<event>
 7    0  0.4705418E-002  0.4486915E+03  0.7546771E-02  0.1028113E+00
         21   -1    0    0  502  501  0.00000000000E+00  0.00000000000E+00  0.40900676250E+03  0.40900676250E+03  0.00000000000E+00 0. -1.
         21   -1    0    0  501  502 -0.00000000000E+00 -0.00000000000E+00 -0.12305668235E+03  0.12305668235E+03  0.00000000000E+00 0. -1.
      99926    2    1    2    0    0  0.00000000000E+00  0.00000000000E+00  0.28595008014E+03  0.53206344485E+03  0.44869149871E+03 0.  0.
      99925    2    3    3    0    0  0.67759793192E+02 -0.18509618742E+02  0.85049351412E+02  0.28519788131E+03  0.26300274479E+03 0.  0.
         25    1    4    4    0    0  0.15740809614E+02 -0.36629358855E+02  0.16600605618E+02  0.13233507178E+03  0.12509000000E+03 0.  0.
         25    1    4    4    0    0  0.52018983578E+02  0.18119740113E+02  0.68448745794E+02  0.15286280952E+03  0.12509000000E+03 0.  0.
         25    1    3    3    0    0 -0.67759793192E+02  0.18509618742E+02  0.20090072873E+03  0.24686556354E+03  0.12509000000E+03 0.  0.
<mgrwt>
<rscale>  2 0.44869150E+03</rscale>
<asrwt>0</asrwt>
<pdfrwt beam="1">  1       21 0.60148053E-01 0.44869150E+03</pdfrwt>
<pdfrwt beam="2">  1       21 0.18096571E-01 0.44869150E+03</pdfrwt>
<totfact> 0.66317576E+04</totfact>
</mgrwt>
</event>
<event>
 7    0  0.4705418E-002  0.4235596E+03  0.7546771E-02  0.1035914E+00
         21   -1    0    0  502  501  0.00000000000E+00  0.00000000000E+00  0.31049674775E+03  0.31049674775E+03  0.00000000000E+00 0.  1.
         21   -1    0    0  501  502 -0.00000000000E+00 -0.00000000000E+00 -0.14444812684E+03  0.14444812684E+03  0.00000000000E+00 0.  1.
      99926    2    1    2    0    0  0.00000000000E+00  0.14210854715E-13  0.16604862091E+03  0.45494487459E+03  0.42355955237E+03 0.  0.
      99925    2    3    3    0    0  0.10295021234E+02 -0.67064041676E+02  0.15380580512E+03  0.31211291813E+03  0.26297276441E+03 0.  0.
         25    1    3    3    0    0 -0.10295021234E+02  0.67064041676E+02  0.12242815781E+02  0.14283195646E+03  0.12509000000E+03 0.  0.
         25    1    4    4    0    0  0.32679629107E+02 -0.40490995698E+02  0.45112880114E+02  0.14279411383E+03  0.12509000000E+03 0.  0.
         25    1    4    4    0    0 -0.22384607873E+02 -0.26573045978E+02  0.10869292501E+03  0.16931880430E+03  0.12509000000E+03 0.  0.
<mgrwt>
<rscale>  2 0.42355955E+03</rscale>
<asrwt>0</asrwt>
<pdfrwt beam="1">  1       21 0.45661287E-01 0.42355955E+03</pdfrwt>
<pdfrwt beam="2">  1       21 0.21242371E-01 0.42355955E+03</pdfrwt>
<totfact> 0.88727170E+04</totfact>
</mgrwt>
</event>
<event>
 7    0  0.4705418E-002  0.4665205E+03  0.7546771E-02  0.1022907E+00
         21   -1    0    0  502  501  0.00000000000E+00  0.00000000000E+00  0.11239206950E+04  0.11239206950E+04  0.00000000000E+00 0.  1.
         21   -1    0    0  501  502 -0.00000000000E+00 -0.00000000000E+00 -0.48411202435E+02  0.48411202435E+02  0.00000000000E+00 0.  1.
      99926    2    1    2    0    0  0.00000000000E+00  0.88817841970E-15  0.10755094926E+04  0.11723318975E+04  0.46652053455E+03 0.  0.
      99925    2    3    3    0    0  0.11840177735E+03  0.74075981274E+01  0.58293395208E+03  0.65045832599E+03  0.26307829248E+03 0.  0.
         25    1    4    4    0    0  0.65474558107E+02  0.30278670917E+02  0.22967709706E+03  0.27129834627E+03  0.12509000000E+03 0.  0.
         25    1    4    4    0    0  0.52927219246E+02 -0.22871072789E+02  0.35325685502E+03  0.37915997972E+03  0.12509000000E+03 0.  0.
         25    1    3    3    0    0 -0.11840177735E+03 -0.74075981274E+01  0.49257554053E+03  0.52187357149E+03  0.12509000000E+03 0.  0.
<mgrwt>
<rscale>  2 0.46652053E+03</rscale>
<asrwt>0</asrwt>
<pdfrwt beam="1">  1       21 0.16528244E+00 0.46652053E+03</pdfrwt>
<pdfrwt beam="2">  1       21 0.71192952E-02 0.46652053E+03</pdfrwt>
<totfact> 0.30238411E+04</totfact>
</mgrwt>
</event>
<event>
 7    0  0.4705418E-002  0.4365955E+03  0.7546771E-02  0.1031797E+00
         21   -1    0    0  502  501  0.00000000000E+00  0.00000000000E+00  0.45609944234E+02  0.45609944234E+02  0.00000000000E+00 0.  1.
         21   -1    0    0  501  502 -0.00000000000E+00 -0.00000000000E+00 -0.10448139547E+04  0.10448139547E+04  0.00000000000E+00 0.  1.
      99926    2    1    2    0    0  0.00000000000E+00  0.00000000000E+00 -0.99920401043E+03  0.10904238989E+04  0.43659549337E+03 0.  0.
      99925    2    3    3    0    0  0.79681913695E+02 -0.34205923279E+02 -0.73604956322E+03  0.78642221512E+03  0.26300511088E+03 0.  0.
         25    1    3    3    0    0 -0.79681913695E+02  0.34205923279E+02 -0.26315444721E+03  0.30400168379E+03  0.12509000000E+03 0.  0.
         25    1    4    4    0    0  0.57969665794E+02 -0.52328588654E+02 -0.43020062132E+03  0.45477340075E+03  0.12509000000E+03 0.  0.
         25    1    4    4    0    0  0.21712247901E+02  0.18122665376E+02 -0.30584894191E+03  0.33164881437E+03  0.12509000000E+03 0.  0.
<mgrwt>
<rscale>  2 0.43659549E+03</rscale>
<asrwt>0</asrwt>
<pdfrwt beam="1">  1       21 0.67073451E-02 0.43659549E+03</pdfrwt>
<pdfrwt beam="2">  1       21 0.15364910E+00 0.43659549E+03</pdfrwt>
<totfact> 0.41470290E+04</totfact>
</mgrwt>
</event>
<event>
 7    0  0.4705418E-002  0.4541355E+03  0.7546771E-02  0.1026496E+00
         21   -1    0    0  502  501  0.00000000000E+00  0.00000000000E+00  0.25939149534E+03  0.25939149534E+03  0.00000000000E+00 0.  1.
         21   -1    0    0  501  502 -0.00000000000E+00 -0.00000000000E+00 -0.19877199779E+03  0.19877199779E+03  0.00000000000E+00 0.  1.
      99926    2    1    2    0    0  0.00000000000E+00 -0.14210854715E-13  0.60619497548E+02  0.45816349313E+03  0.45413551167E+03 0.  0.
      99925    2    3    3    0    0 -0.63582154489E+02 -0.87460670487E+02  0.69175835398E+02  0.29259544589E+03  0.26293485790E+03 0.  0.
         25    1    4    4    0    0 -0.63671054060E+02 -0.28389447640E+02  0.55507119994E+02  0.15358552123E+03  0.12509000000E+03 0.  0.
         25    1    4    4    0    0  0.88899571365E-01 -0.59071222847E+02  0.13668715404E+02  0.13900992465E+03  0.12509000000E+03 0.  0.
         25    1    3    3    0    0  0.63582154489E+02  0.87460670487E+02 -0.85563378498E+01  0.16556804725E+03  0.12509000000E+03 0.  0.
<mgrwt>
<rscale>  2 0.45413551E+03</rscale>
<asrwt>0</asrwt>
<pdfrwt beam="1">  1       21 0.38145808E-01 0.45413551E+03</pdfrwt>
<pdfrwt beam="2">  1       21 0.29231176E-01 0.45413551E+03</pdfrwt>
<totfact> 0.68787620E+04</totfact>
</mgrwt>
</event>
<event>
 7    0  0.4705418E-002  0.4444191E+03  0.7546771E-02  0.1029400E+00
         21   -1    0    0  502  501  0.00000000000E+00  0.00000000000E+00  0.99109008649E+03  0.99109008649E+03  0.00000000000E+00 0.  1.
         21   -1    0    0  501  502 -0.00000000000E+00 -0.00000000000E+00 -0.49820986397E+02  0.49820986397E+02  0.00000000000E+00 0.  1.
      99926    2    1    2    0    0  0.71054273576E-14  0.00000000000E+00  0.94126910009E+03  0.10409110729E+04  0.44441910723E+03 0.  0.
      99925    2    3    3    0    0 -0.60433440773E+02  0.73278197583E+02  0.50581716202E+03  0.57799877723E+03  0.26307734618E+03 0.  0.
         25    1    4    4    0    0 -0.27548106975E+02  0.69664280477E+02  0.31906562155E+03  0.35080249305E+03  0.12509000000E+03 0.  0.
         25    1    3    3    0    0  0.60433440773E+02 -0.73278197583E+02  0.43545193807E+03  0.46291229566E+03  0.12509000000E+03 0.  0.
         25    1    4    4    0    0 -0.32885333798E+02  0.36139171059E+01  0.18675154047E+03  0.22719628418E+03  0.12509000000E+03 0.  0.
<mgrwt>
<rscale>  2 0.44441911E+03</rscale>
<asrwt>0</asrwt>
<pdfrwt beam="1">  1       21 0.14574853E+00 0.44441911E+03</pdfrwt>
<pdfrwt beam="2">  1       21 0.73266162E-02 0.44441911E+03</pdfrwt>
<totfact> 0.40886701E+04</totfact>
</mgrwt>
</event>
<event>
 7    0  0.4705418E-002  0.4533918E+03  0.7546771E-02  0.1026715E+00
         21   -1    0    0  502  501  0.00000000000E+00  0.00000000000E+00  0.19165035603E+03  0.19165035603E+03  0.00000000000E+00 0. -1.
         21   -1    0    0  501  502 -0.00000000000E+00 -0.00000000000E+00 -0.26814988985E+03  0.26814988985E+03  0.00000000000E+00 0. -1.
      99926    2    1    2    0    0  0.00000000000E+00  0.00000000000E+00 -0.76499533822E+02  0.45980024587E+03  0.45339175933E+03 0.  0.
      99925    2    3    3    0    0 -0.25552335959E+02  0.72519659045E+02  0.33895125594E+02  0.27609800923E+03  0.26300039608E+03 0.  0.
         25    1    4    4    0    0  0.13816539530E+02  0.17980013849E+02  0.41870126368E+02  0.13384615514E+03  0.12509000000E+03 0.  0.
         25    1    3    3    0    0  0.25552335959E+02 -0.72519659045E+02 -0.11039465942E+03  0.18370223665E+03  0.12509000000E+03 0.  0.
         25    1    4    4    0    0 -0.39368875489E+02  0.54539645196E+02 -0.79750007746E+01  0.14225185409E+03  0.12509000000E+03 0.  0.
<mgrwt>
<rscale>  2 0.45339176E+03</rscale>
<asrwt>0</asrwt>
<pdfrwt beam="1">  1       21 0.28183876E-01 0.45339176E+03</pdfrwt>
<pdfrwt beam="2">  1       21 0.39433807E-01 0.45339176E+03</pdfrwt>
<totfact> 0.69076682E+04</totfact>
</mgrwt>
</event>
<event>
 7    0  0.4705418E-002  0.4601440E+03  0.7546771E-02  0.1024739E+00
         21   -1    0    0  502  501  0.00000000000E+00  0.00000000000E+00  0.31967058444E+03  0.31967058444E+03  0.00000000000E+00 0. -1.
         21   -1    0    0  501  502 -0.00000000000E+00 -0.00000000000E+00 -0.16558649873E+03  0.16558649873E+03  0.00000000000E+00 0. -1.
      99926    2    1    2    0    0  0.00000000000E+00  0.00000000000E+00  0.15408408572E+03  0.48525708317E+03  0.46014403321E+03 0.  0.
      99925    2    3    3    0    0 -0.64113729123E+02 -0.97789688242E+02  0.11451952413E+03  0.30951222259E+03  0.26269697587E+03 0.  0.
         25    1    3    3    0    0  0.64113729123E+02  0.97789688242E+02  0.39564561583E+02  0.17574486058E+03  0.12509000000E+03 0.  0.
         25    1    4    4    0    0 -0.27534208163E+02 -0.60947841165E+02  0.17520764608E+02  0.14292395619E+03  0.12509000000E+03 0.  0.
         25    1    4    4    0    0 -0.36579520961E+02 -0.36841847077E+02  0.96998759526E+02  0.16658826639E+03  0.12509000000E+03 0.  0.
<mgrwt>
<rscale>  2 0.46014403E+03</rscale>
<asrwt>0</asrwt>
<pdfrwt beam="1">  1       21 0.47010380E-01 0.46014403E+03</pdfrwt>
<pdfrwt beam="2">  1       21 0.24350956E-01 0.46014403E+03</pdfrwt>
<totfact> 0.63679169E+04</totfact>
</mgrwt>
</event>
<event>
 7    0  0.4705418E-002  0.4535191E+03  0.7546771E-02  0.1026678E+00
         21   -1    0    0  502  501  0.00000000000E+00  0.00000000000E+00  0.59375119768E+03  0.59375119768E+03  0.00000000000E+00 0. -1.
         21   -1    0    0  501  502 -0.00000000000E+00 -0.00000000000E+00 -0.86601737730E+02  0.86601737730E+02  0.00000000000E+00 0. -1.
      99926    2    1    2    0    0 -0.71054273576E-14  0.00000000000E+00  0.50714945995E+03  0.68035293541E+03  0.45351906464E+03 0.  0.
      99925    2    3    3    0    0  0.47671198515E+02 -0.10088884124E+03  0.32481400053E+03  0.43267405194E+03  0.26315698513E+03 0.  0.
         25    1    4    4    0    0  0.52322708036E+02 -0.68071782906E+02  0.21386848838E+03  0.26221874805E+03  0.12509000000E+03 0.  0.
         25    1    3    3    0    0 -0.47671198515E+02  0.10088884124E+03  0.18233545942E+03  0.24767888347E+03  0.12509000000E+03 0.  0.
         25    1    4    4    0    0 -0.46515095203E+01 -0.32817058338E+02  0.11094551215E+03  0.17045530389E+03  0.12509000000E+03 0.  0.
<mgrwt>
<rscale>  2 0.45351906E+03</rscale>
<asrwt>0</asrwt>
<pdfrwt beam="1">  1       21 0.87316350E-01 0.45351906E+03</pdfrwt>
<pdfrwt beam="2">  1       21 0.12735550E-01 0.45351906E+03</pdfrwt>
<totfact> 0.54617219E+04</totfact>
</mgrwt>
</event>
<event>
 7    0  0.4705418E-002  0.4582431E+03  0.7546771E-02  0.1025292E+00
         21   -1    0    0  502  501  0.00000000000E+00  0.00000000000E+00  0.27149694374E+02  0.27149694374E+02  0.00000000000E+00 0.  1.
         21   -1    0    0  501  502 -0.00000000000E+00 -0.00000000000E+00 -0.19336010312E+04  0.19336010312E+04  0.00000000000E+00 0.  1.
      99926    2    1    2    0    0  0.00000000000E+00  0.00000000000E+00 -0.19064513369E+04  0.19607507256E+04  0.45824306668E+03 0.  0.
      99925    2    3    3    0    0  0.13966959261E+02  0.10130743553E+03 -0.14327495400E+04  0.14602518017E+04  0.26287983447E+03 0.  0.
         25    1    4    4    0    0  0.27972917367E+02  0.40365990808E+02 -0.53200129171E+03  0.54871192789E+03  0.12509000000E+03 0.  0.
         25    1    4    4    0    0 -0.14005958106E+02  0.60941444725E+02 -0.90074824833E+03  0.91153987380E+03  0.12509000000E+03 0.  0.
         25    1    3    3    0    0 -0.13966959261E+02 -0.10130743553E+03 -0.47370179681E+03  0.50049892393E+03  0.12509000000E+03 0.  0.
<mgrwt>
<rscale>  2 0.45824307E+03</rscale>
<asrwt>0</asrwt>
<pdfrwt beam="1">  1       21 0.39926002E-02 0.45824307E+03</pdfrwt>
<pdfrwt beam="2">  1       21 0.28435323E+00 0.45824307E+03</pdfrwt>
<totfact> 0.14005575E+04</totfact>
</mgrwt>
</event>
<event>
 7    0  0.4705418E-002  0.4533855E+03  0.7546771E-02  0.1026717E+00
         21   -1    0    0  502  501  0.00000000000E+00  0.00000000000E+00  0.31001976354E+03  0.31001976354E+03  0.00000000000E+00 0. -1.
         21   -1    0    0  501  502 -0.00000000000E+00 -0.00000000000E+00 -0.16576236570E+03  0.16576236570E+03  0.00000000000E+00 0. -1.
      99926    2    1    2    0    0  0.00000000000E+00  0.00000000000E+00  0.14425739784E+03  0.47578212923E+03  0.45338552873E+03 0.  0.
      99925    2    3    3    0    0  0.81672487816E+02  0.64189703272E+02  0.13380483049E+03  0.31284816244E+03  0.26302001217E+03 0.  0.
         25    1    4    4    0    0  0.25022163811E+01  0.11976314983E+02  0.54853648658E+02  0.13713542241E+03  0.12509000000E+03 0.  0.
         25    1    3    3    0    0 -0.81672487816E+02 -0.64189703272E+02  0.10452567349E+02  0.16293396680E+03  0.12509000000E+03 0.  0.
         25    1    4    4    0    0  0.79170271435E+02  0.52213388289E+02  0.78951181836E+02  0.17571274003E+03  0.12509000000E+03 0.  0.
<mgrwt>
<rscale>  2 0.45338553E+03</rscale>
<asrwt>0</asrwt>
<pdfrwt beam="1">  1       21 0.45591141E-01 0.45338553E+03</pdfrwt>
<pdfrwt beam="2">  1       21 0.24376819E-01 0.45338553E+03</pdfrwt>
<totfact> 0.67873953E+04</totfact>
</mgrwt>
</event>
<event>
 7    0  0.4705418E-002  0.4538110E+03  0.7546771E-02  0.1026592E+00
         21   -1    0    0  502  501  0.00000000000E+00  0.00000000000E+00  0.21245589306E+03  0.21245589306E+03  0.00000000000E+00 0.  1.
         21   -1    0    0  501  502 -0.00000000000E+00 -0.00000000000E+00 -0.24233783102E+03  0.24233783102E+03  0.00000000000E+00 0.  1.
      99926    2    1    2    0    0  0.00000000000E+00  0.00000000000E+00 -0.29881937966E+02  0.45479372408E+03  0.45381097524E+03 0.  0.
      99925    2    3    3    0    0  0.10188815415E+03 -0.36013927584E+02 -0.48528015838E+02  0.28844053579E+03  0.26299196837E+03 0.  0.
         25    1    4    4    0    0  0.56703487499E+02 -0.88103885781E+01 -0.64056068585E+02  0.15180117412E+03  0.12509000000E+03 0.  0.
         25    1    3    3    0    0 -0.10188815415E+03  0.36013927584E+02  0.18646077872E+02  0.16635318829E+03  0.12509000000E+03 0.  0.
         25    1    4    4    0    0  0.45184666648E+02 -0.27203539006E+02  0.15528052747E+02  0.13663936167E+03  0.12509000000E+03 0.  0.
<mgrwt>
<rscale>  2 0.45381098E+03</rscale>
<asrwt>0</asrwt>
<pdfrwt beam="1">  1       21 0.31243514E-01 0.45381098E+03</pdfrwt>
<pdfrwt beam="2">  1       21 0.35637916E-01 0.45381098E+03</pdfrwt>
<totfact> 0.69215259E+04</totfact>
</mgrwt>
</event>
<event>
 7    0  0.4705418E-002  0.4568584E+03  0.7546771E-02  0.1025696E+00
         21   -1    0    0  502  501  0.00000000000E+00  0.00000000000E+00  0.34142437243E+03  0.34142437243E+03  0.00000000000E+00 0. -1.
         21   -1    0    0  501  502 -0.00000000000E+00 -0.00000000000E+00 -0.15283002675E+03  0.15283002675E+03  0.00000000000E+00 0. -1.
      99926    2    1    2    0    0  0.38857805862E-14  0.00000000000E+00  0.18859434568E+03  0.49425439918E+03  0.45685838494E+03 0.  0.
      99925    2    3    3    0    0 -0.69928079262E+00  0.11317009701E+03  0.10612664580E+03  0.30648755047E+03  0.26431760023E+03 0.  0.
         25    1    4    4    0    0  0.32041796327E+02  0.43382311714E+02  0.24515553075E+02  0.13840961717E+03  0.12509000000E+03 0.  0.
         25    1    4    4    0    0 -0.32741077120E+02  0.69787785300E+02  0.81611092722E+02  0.16807793330E+03  0.12509000000E+03 0.  0.
         25    1    3    3    0    0  0.69928079262E+00 -0.11317009701E+03  0.82467699880E+02  0.18776684871E+03  0.12509000000E+03 0.  0.
<mgrwt>
<rscale>  2 0.45685838E+03</rscale>
<asrwt>0</asrwt>
<pdfrwt beam="1">  1       21 0.50209467E-01 0.45685838E+03</pdfrwt>
<pdfrwt beam="2">  1       21 0.22475004E-01 0.45685838E+03</pdfrwt>
<totfact> 0.64716174E+04</totfact>
</mgrwt>
</event>
<event>
 7    0  0.4705418E-002  0.4574790E+03  0.7546771E-02  0.1025515E+00
         21   -1    0    0  502  501  0.00000000000E+00  0.00000000000E+00  0.12196867860E+03  0.12196867860E+03  0.00000000000E+00 0.  1.
         21   -1    0    0  501  502 -0.00000000000E+00 -0.00000000000E+00 -0.42897705119E+03  0.42897705119E+03  0.00000000000E+00 0.  1.
      99926    2    1    2    0    0  0.00000000000E+00  0.00000000000E+00 -0.30700837258E+03  0.55094572979E+03  0.45747902284E+03 0.  0.
      99925    2    3    3    0    0  0.10062206731E+03 -0.44245615346E+02 -0.14991510203E+03  0.32201718491E+03  0.26294116197E+03 0.  0.
         25    1    3    3    0    0 -0.10062206731E+03  0.44245615346E+02 -0.15709327056E+03  0.22892854488E+03  0.12509000000E+03 0.  0.
         25    1    4    4    0    0  0.70333254347E+02  0.78765056130E+01 -0.55331207627E+02  0.15400602795E+03  0.12509000000E+03 0.  0.
         25    1    4    4    0    0  0.30288812958E+02 -0.52122120960E+02 -0.94583894398E+02  0.16801115696E+03  0.12509000000E+03 0.  0.
<mgrwt>
<rscale>  2 0.45747902E+03</rscale>
<asrwt>0</asrwt>
<pdfrwt beam="1">  1       21 0.17936571E-01 0.45747902E+03</pdfrwt>
<pdfrwt beam="2">  1       21 0.63084859E-01 0.45747902E+03</pdfrwt>
<totfact> 0.60606582E+04</totfact>
</mgrwt>
</event>
<event>
 7    0  0.4705418E-002  0.4566079E+03  0.7546771E-02  0.1025770E+00
         21   -1    0    0  502  501  0.00000000000E+00  0.00000000000E+00  0.91292018542E+02  0.91292018542E+02  0.00000000000E+00 0. -1.
         21   -1    0    0  501  502 -0.00000000000E+00 -0.00000000000E+00 -0.57094473269E+03  0.57094473269E+03  0.00000000000E+00 0. -1.
      99926    2    1    2    0    0  0.00000000000E+00  0.00000000000E+00 -0.47965271415E+03  0.66223675123E+03  0.45660791550E+03 0.  0.
      99925    2    3    3    0    0  0.31800514468E+02  0.10995447564E+03 -0.29070751526E+03  0.40836856553E+03  0.26296913592E+03 0.  0.
         25    1    4    4    0    0 -0.39230822263E+01  0.44307214015E+02 -0.18775463309E+03  0.22995179959E+03  0.12509000000E+03 0.  0.
         25    1    3    3    0    0 -0.31800514468E+02 -0.10995447564E+03 -0.18894519888E+03  0.25386818571E+03  0.12509000000E+03 0.  0.
         25    1    4    4    0    0  0.35723596695E+02  0.65647261621E+02 -0.10295288217E+03  0.17841676594E+03  0.12509000000E+03 0.  0.
<mgrwt>
<rscale>  2 0.45660792E+03</rscale>
<asrwt>0</asrwt>
<pdfrwt beam="1">  1       21 0.13425297E-01 0.45660792E+03</pdfrwt>
<pdfrwt beam="2">  1       21 0.83962459E-01 0.45660792E+03</pdfrwt>
<totfact> 0.54309469E+04</totfact>
</mgrwt>
</event>
<event>
 7    0  0.4705418E-002  0.4542037E+03  0.7546771E-02  0.1026476E+00
         21   -1    0    0  502  501  0.00000000000E+00  0.00000000000E+00  0.11207415653E+03  0.11207415653E+03  0.00000000000E+00 0.  1.
         21   -1    0    0  501  502 -0.00000000000E+00 -0.00000000000E+00 -0.46018869322E+03  0.46018869322E+03  0.00000000000E+00 0.  1.
      99926    2    1    2    0    0  0.00000000000E+00  0.00000000000E+00 -0.34811453669E+03  0.57226284975E+03  0.45420374122E+03 0.  0.
      99925    2    3    3    0    0 -0.85416283633E+02 -0.71333082361E+02 -0.19960785339E+03  0.34846362447E+03  0.26305750758E+03 0.  0.
         25    1    3    3    0    0  0.85416283633E+02  0.71333082361E+02 -0.14850668331E+03  0.22379922528E+03  0.12509000000E+03 0.  0.
         25    1    4    4    0    0 -0.10568021791E+02 -0.52291330148E+02 -0.11954231793E+03  0.18106335954E+03  0.12509000000E+03 0.  0.
         25    1    4    4    0    0 -0.74848261842E+02 -0.19041752213E+02 -0.80065535455E+02  0.16740026492E+03  0.12509000000E+03 0.  0.
<mgrwt>
<rscale>  2 0.45420374E+03</rscale>
<asrwt>0</asrwt>
<pdfrwt beam="1">  1       21 0.16481494E-01 0.45420374E+03</pdfrwt>
<pdfrwt beam="2">  1       21 0.67674808E-01 0.45420374E+03</pdfrwt>
<totfact> 0.60800808E+04</totfact>
</mgrwt>
</event>
<event>
 7    0  0.4705418E-002  0.4465658E+03  0.7546771E-02  0.1028751E+00
         21   -1    0    0  502  501  0.00000000000E+00  0.00000000000E+00  0.35648652406E+04  0.35648652406E+04  0.00000000000E+00 0. -1.
         21   -1    0    0  501  502 -0.00000000000E+00 -0.00000000000E+00 -0.13985170708E+02  0.13985170708E+02  0.00000000000E+00 0. -1.
      99926    2    1    2    0    0  0.14210854715E-13 -0.71054273576E-14  0.35508800699E+04  0.35788504113E+04  0.44656577988E+03 0.  0.
      99925    2    3    3    0    0  0.90482816679E+02 -0.53218867050E+02  0.22909431353E+04  0.23083749195E+04  0.26297325353E+03 0.  0.
         25    1    4    4    0    0  0.80496802472E+02 -0.35918428239E+02  0.10719768665E+04  0.10828443005E+04  0.12509000000E+03 0.  0.
         25    1    3    3    0    0 -0.90482816679E+02  0.53218867050E+02  0.12599369346E+04  0.12704754918E+04  0.12509000000E+03 0.  0.
         25    1    4    4    0    0  0.99860142073E+01 -0.17300438811E+02  0.12189662687E+04  0.12255306190E+04  0.12509000000E+03 0.  0.
<mgrwt>
<rscale>  2 0.44656578E+03</rscale>
<asrwt>0</asrwt>
<pdfrwt beam="1">  1       21 0.52424426E+00 0.44656578E+03</pdfrwt>
<pdfrwt beam="2">  1       21 0.20566452E-02 0.44656578E+03</pdfrwt>
<totfact> 0.11755458E+03</totfact>
</mgrwt>
</event>
<event>
 7    0  0.4705418E-002  0.4556920E+03  0.7546771E-02  0.1026038E+00
         21   -1    0    0  502  501  0.00000000000E+00  0.00000000000E+00  0.13175075306E+03  0.13175075306E+03  0.00000000000E+00 0. -1.
         21   -1    0    0  501  502 -0.00000000000E+00 -0.00000000000E+00 -0.39403033706E+03  0.39403033706E+03  0.00000000000E+00 0. -1.
      99926    2    1    2    0    0 -0.71054273576E-14  0.00000000000E+00 -0.26227958400E+03  0.52578109012E+03  0.45569197331E+03 0.  0.
      99925    2    3    3    0    0  0.60661485230E+02 -0.17141338707E+02 -0.55681613167E+02  0.27617365646E+03  0.26305475703E+03 0.  0.
         25    1    3    3    0    0 -0.60661485230E+02  0.17141338707E+02 -0.20659797083E+03  0.24960743365E+03  0.12509000000E+03 0.  0.
         25    1    4    4    0    0  0.13447252114E+02 -0.38617549666E+02 -0.49531244507E+02  0.14061648557E+03  0.12509000000E+03 0.  0.
         25    1    4    4    0    0  0.47214233116E+02  0.21476210959E+02 -0.61503686606E+01  0.13555717089E+03  0.12509000000E+03 0.  0.
<mgrwt>
<rscale>  2 0.45569197E+03</rscale>
<asrwt>0</asrwt>
<pdfrwt beam="1">  1       21 0.19375110E-01 0.45569197E+03</pdfrwt>
<pdfrwt beam="2">  1       21 0.57945639E-01 0.45569197E+03</pdfrwt>
<totfact> 0.63145930E+04</totfact>
</mgrwt>
</event>
<event>
 7    0  0.4705418E-002  0.4537357E+03  0.7546771E-02  0.1026614E+00
         21   -1    0    0  502  501  0.00000000000E+00  0.00000000000E+00  0.12907372162E+03  0.12907372162E+03  0.00000000000E+00 0.  1.
         21   -1    0    0  501  502 -0.00000000000E+00 -0.00000000000E+00 -0.39875679935E+03  0.39875679935E+03  0.00000000000E+00 0.  1.
      99926    2    1    2    0    0  0.71054273576E-14  0.00000000000E+00 -0.26968307773E+03  0.52783052097E+03  0.45373571212E+03 0.  0.
      99925    2    3    3    0    0  0.63478884748E+02  0.72515064490E+02 -0.23630091969E+03  0.36643076892E+03  0.26295509194E+03 0.  0.
         25    1    3    3    0    0 -0.63478884748E+02 -0.72515064490E+02 -0.33382158041E+02  0.16139975205E+03  0.12509000000E+03 0.  0.
         25    1    4    4    0    0  0.15316826026E+02  0.26155312822E+02 -0.16010917970E+03  0.20542921669E+03  0.12509000000E+03 0.  0.
         25    1    4    4    0    0  0.48162058722E+02  0.46359751668E+02 -0.76191739991E+02  0.16100155222E+03  0.12509000000E+03 0.  0.
<mgrwt>
<rscale>  2 0.45373571E+03</rscale>
<asrwt>0</asrwt>
<pdfrwt beam="1">  1       21 0.18981430E-01 0.45373571E+03</pdfrwt>
<pdfrwt beam="2">  1       21 0.58640705E-01 0.45373571E+03</pdfrwt>
<totfact> 0.63992519E+04</totfact>
</mgrwt>
</event>
<event>
 7    0  0.4705418E-002  0.4567066E+03  0.7546771E-02  0.1025741E+00
         21   -1    0    0  502  501  0.00000000000E+00  0.00000000000E+00  0.15768577214E+03  0.15768577214E+03  0.00000000000E+00 0. -1.
         21   -1    0    0  501  502 -0.00000000000E+00 -0.00000000000E+00 -0.33069079785E+03  0.33069079785E+03  0.00000000000E+00 0. -1.
      99926    2    1    2    0    0  0.00000000000E+00  0.00000000000E+00 -0.17300502570E+03  0.48837656999E+03  0.45670661830E+03 0.  0.
      99925    2    3    3    0    0  0.72120248427E+02 -0.25247285694E+02 -0.17075680901E+02  0.27436670027E+03  0.26295769939E+03 0.  0.
         25    1    4    4    0    0 -0.35852755050E+01 -0.20123691633E+02  0.23971131368E+01  0.12677172956E+03  0.12509000000E+03 0.  0.
         25    1    3    3    0    0 -0.72120248427E+02  0.25247285694E+02 -0.15592934480E+03  0.21400986972E+03  0.12509000000E+03 0.  0.
         25    1    4    4    0    0  0.75705523932E+02 -0.51235940608E+01 -0.19472794038E+02  0.14759497071E+03  0.12509000000E+03 0.  0.
<mgrwt>
<rscale>  2 0.45670662E+03</rscale>
<asrwt>0</asrwt>
<pdfrwt beam="1">  1       21 0.23189084E-01 0.45670662E+03</pdfrwt>
<pdfrwt beam="2">  1       21 0.48630999E-01 0.45670662E+03</pdfrwt>
<totfact> 0.65207295E+04</totfact>
</mgrwt>
</event>
<event>
 7    0  0.4705418E-002  0.4569228E+03  0.7546771E-02  0.1025677E+00
         21   -1    0    0  502  501  0.00000000000E+00  0.00000000000E+00  0.14445037849E+03  0.14445037849E+03  0.00000000000E+00 0. -1.
         21   -1    0    0  501  502 -0.00000000000E+00 -0.00000000000E+00 -0.36133243865E+03  0.36133243865E+03  0.00000000000E+00 0. -1.
      99926    2    1    2    0    0 -0.71054273576E-14  0.14210854715E-13 -0.21688206015E+03  0.50578281714E+03  0.45692278352E+03 0.  0.
      99925    2    3    3    0    0  0.50027299384E+02 -0.98474065520E+02 -0.17107158928E+03  0.33273375009E+03  0.26314708345E+03 0.  0.
         25    1    3    3    0    0 -0.50027299384E+02  0.98474065520E+02 -0.45810470877E+02  0.17304906705E+03  0.12509000000E+03 0.  0.
         25    1    4    4    0    0  0.40156871772E+02 -0.67793295398E+02 -0.51043090810E+02  0.15640144012E+03  0.12509000000E+03 0.  0.
         25    1    4    4    0    0  0.98704276116E+01 -0.30680770121E+02 -0.12002849847E+03  0.17633230997E+03  0.12509000000E+03 0.  0.
<mgrwt>
<rscale>  2 0.45692278E+03</rscale>
<asrwt>0</asrwt>
<pdfrwt beam="1">  1       21 0.21242703E-01 0.45692278E+03</pdfrwt>
<pdfrwt beam="2">  1       21 0.53137123E-01 0.45692278E+03</pdfrwt>
<totfact> 0.63885690E+04</totfact>
</mgrwt>
</event>
<event>
 7    0  0.4705418E-002  0.4544096E+03  0.7546771E-02  0.1026415E+00
         21   -1    0    0  502  501  0.00000000000E+00  0.00000000000E+00  0.44014936861E+03  0.44014936861E+03  0.00000000000E+00 0. -1.
         21   -1    0    0  501  502 -0.00000000000E+00 -0.00000000000E+00 -0.11728297163E+03  0.11728297163E+03  0.00000000000E+00 0. -1.
      99926    2    1    2    0    0 -0.14210854715E-13  0.71054273576E-14  0.32286639698E+03  0.55743234024E+03  0.45440962099E+03 0.  0.
      99925    2    3    3    0    0 -0.94467289190E+02  0.56702328097E+02  0.17473715741E+03  0.33443233474E+03  0.26300701436E+03 0.  0.
         25    1    4    4    0    0 -0.59489354795E+02 -0.78632165206E+01  0.10177282254E+03  0.17206402592E+03  0.12509000000E+03 0.  0.
         25    1    3    3    0    0  0.94467289190E+02 -0.56702328097E+02  0.14812923957E+03  0.22300000550E+03  0.12509000000E+03 0.  0.
         25    1    4    4    0    0 -0.34977934395E+02  0.64565544618E+02  0.72964334872E+02  0.16236830882E+03  0.12509000000E+03 0.  0.
<mgrwt>
<rscale>  2 0.45440962E+03</rscale>
<asrwt>0</asrwt>
<pdfrwt beam="1">  1       21 0.64727848E-01 0.45440962E+03</pdfrwt>
<pdfrwt beam="2">  1       21 0.17247496E-01 0.45440962E+03</pdfrwt>
<totfact> 0.61665515E+04</totfact>
</mgrwt>
</event>
<event>
 7    0  0.4705418E-002  0.4550368E+03  0.7546771E-02  0.1026231E+00
         21   -1    0    0  502  501  0.00000000000E+00  0.00000000000E+00  0.99779738295E+02  0.99779738295E+02  0.00000000000E+00 0. -1.
         21   -1    0    0  501  502 -0.00000000000E+00 -0.00000000000E+00 -0.51878886205E+03  0.51878886205E+03  0.00000000000E+00 0. -1.
      99926    2    1    2    0    0  0.00000000000E+00  0.00000000000E+00 -0.41900912375E+03  0.61856860034E+03  0.45503677603E+03 0.  0.
      99925    2    3    3    0    0 -0.11103395158E+03 -0.21722315336E+02 -0.26715970857E+03  0.39161893549E+03  0.26304121990E+03 0.  0.
         25    1    4    4    0    0 -0.94739135152E+02  0.43232054129E+01 -0.15883803187E+03  0.22331865642E+03  0.12509000000E+03 0.  0.
         25    1    3    3    0    0  0.11103395158E+03  0.21722315336E+02 -0.15184941519E+03  0.22694966486E+03  0.12509000000E+03 0.  0.
         25    1    4    4    0    0 -0.16294816425E+02 -0.26045520749E+02 -0.10832167669E+03  0.16830027907E+03  0.12509000000E+03 0.  0.
<mgrwt>
<rscale>  2 0.45503678E+03</rscale>
<asrwt>0</asrwt>
<pdfrwt beam="1">  1       21 0.14673491E-01 0.45503678E+03</pdfrwt>
<pdfrwt beam="2">  1       21 0.76292479E-01 0.45503678E+03</pdfrwt>
<totfact> 0.57532927E+04</totfact>
</mgrwt>
</event>
<event>
 7    0  0.4705418E-002  0.4418645E+03  0.7546771E-02  0.1030176E+00
         21   -1    0    0  502  501  0.00000000000E+00  0.00000000000E+00  0.52368709429E+03  0.52368709429E+03  0.00000000000E+00 0. -1.
         21   -1    0    0  501  502 -0.00000000000E+00 -0.00000000000E+00 -0.93206530342E+02  0.93206530342E+02  0.00000000000E+00 0. -1.
      99926    2    1    2    0    0  0.00000000000E+00  0.71054273576E-14  0.43048056395E+03  0.61689362463E+03  0.44186449074E+03 0.  0.
      99925    2    3    3    0    0 -0.24481351044E+02 -0.44857954196E+02  0.39483344478E+03  0.47714457165E+03  0.26298654059E+03 0.  0.
         25    1    4    4    0    0 -0.22944156931E+02 -0.10699350988E+02  0.12951972734E+03  0.18183448055E+03  0.12509000000E+03 0.  0.
         25    1    3    3    0    0  0.24481351044E+02  0.44857954196E+02  0.35647119161E+02  0.13974905298E+03  0.12509000000E+03 0.  0.
         25    1    4    4    0    0 -0.15371941128E+01 -0.34158603208E+02  0.26531371745E+03  0.29531009110E+03  0.12509000000E+03 0.  0.
<mgrwt>
<rscale>  2 0.44186449E+03</rscale>
<asrwt>0</asrwt>
<pdfrwt beam="1">  1       21 0.77012806E-01 0.44186449E+03</pdfrwt>
<pdfrwt beam="2">  1       21 0.13706843E-01 0.44186449E+03</pdfrwt>
<totfact> 0.64038753E+04</totfact>
</mgrwt>
</event>
<event>
 7    0  0.4705418E-002  0.4401896E+03  0.7546771E-02  0.1030689E+00
         21   -1    0    0  502  501  0.00000000000E+00  0.00000000000E+00  0.13010367636E+04  0.13010367636E+04  0.00000000000E+00 0. -1.
         21   -1    0    0  501  502 -0.00000000000E+00 -0.00000000000E+00 -0.37233168103E+02  0.37233168103E+02  0.00000000000E+00 0. -1.
      99926    2    1    2    0    0  0.71054273576E-14  0.00000000000E+00  0.12638035955E+04  0.13382699317E+04  0.44018959791E+03 0.  0.
      99925    2    3    3    0    0  0.39921187683E+02 -0.64530200451E+02  0.99699378074E+03  0.10339792264E+04  0.26336019774E+03 0.  0.
         25    1    4    4    0    0 -0.16176025642E+02 -0.12069189780E+02  0.49553816337E+03  0.51148109311E+03  0.12509000000E+03 0.  0.
         25    1    4    4    0    0  0.56097213325E+02 -0.52461010672E+02  0.50145561737E+03  0.52249813327E+03  0.12509000000E+03 0.  0.
         25    1    3    3    0    0 -0.39921187683E+02  0.64530200451E+02  0.26680981476E+03  0.30429070533E+03  0.12509000000E+03 0.  0.
<mgrwt>
<rscale>  2 0.44018960E+03</rscale>
<asrwt>0</asrwt>
<pdfrwt beam="1">  1       21 0.19132891E+00 0.44018960E+03</pdfrwt>
<pdfrwt beam="2">  1       21 0.54754668E-02 0.44018960E+03</pdfrwt>
<totfact> 0.31497080E+04</totfact>
</mgrwt>
</event>
<event>
 7    0  0.4705418E-002  0.4540315E+03  0.7546771E-02  0.1026527E+00
         21   -1    0    0  502  501  0.00000000000E+00  0.00000000000E+00  0.22479540936E+03  0.22479540936E+03  0.00000000000E+00 0. -1.
         21   -1    0    0  501  502 -0.00000000000E+00 -0.00000000000E+00 -0.22925806182E+03  0.22925806182E+03  0.00000000000E+00 0. -1.
      99926    2    1    2    0    0  0.00000000000E+00  0.00000000000E+00 -0.44626524571E+01  0.45405347118E+03  0.45403154012E+03 0.  0.
      99925    2    3    3    0    0 -0.34851744898E+02  0.94681876471E+02 -0.52098299701E+02  0.28643496133E+03  0.26296663741E+03 0.  0.
         25    1    4    4    0    0  0.17487259728E+02  0.26460975070E+02 -0.13092104752E+02  0.12971082746E+03  0.12509000000E+03 0.  0.
         25    1    3    3    0    0  0.34851744898E+02 -0.94681876471E+02  0.47635647244E+02  0.16761850985E+03  0.12509000000E+03 0.  0.
         25    1    4    4    0    0 -0.52339004626E+02  0.68220901401E+02 -0.39006194949E+02  0.15672413387E+03  0.12509000000E+03 0.  0.
<mgrwt>
<rscale>  2 0.45403154E+03</rscale>
<asrwt>0</asrwt>
<pdfrwt beam="1">  1       21 0.33058149E-01 0.45403154E+03</pdfrwt>
<pdfrwt beam="2">  1       21 0.33714421E-01 0.45403154E+03</pdfrwt>
<totfact> 0.69147973E+04</totfact>
</mgrwt>
</event>
<event>
 7    0  0.4705418E-002  0.4534256E+03  0.7546771E-02  0.1026705E+00
         21   -1    0    0  502  501  0.00000000000E+00  0.00000000000E+00  0.12190523883E+04  0.12190523883E+04  0.00000000000E+00 0.  1.
         21   -1    0    0  501  502 -0.00000000000E+00 -0.00000000000E+00 -0.42162834520E+02  0.42162834520E+02  0.00000000000E+00 0.  1.
      99926    2    1    2    0    0  0.00000000000E+00 -0.14210854715E-13  0.11768895537E+04  0.12612152228E+04  0.45342564602E+03 0.  0.
      99925    2    3    3    0    0 -0.19128242173E+02 -0.10153800478E+03  0.62261374797E+03  0.68368164538E+03  0.26286281023E+03 0.  0.
         25    1    4    4    0    0 -0.62925680787E+01 -0.10576440838E+02  0.31452519537E+03  0.33871088577E+03  0.12509000000E+03 0.  0.
         25    1    3    3    0    0  0.19128242173E+02  0.10153800478E+03  0.55427580576E+03  0.57753357740E+03  0.12509000000E+03 0.  0.
         25    1    4    4    0    0 -0.12835674094E+02 -0.90961563944E+02  0.30808855260E+03  0.34497075961E+03  0.12509000000E+03 0.  0.
<mgrwt>
<rscale>  2 0.45342565E+03</rscale>
<asrwt>0</asrwt>
<pdfrwt beam="1">  1       21 0.17927239E+00 0.45342565E+03</pdfrwt>
<pdfrwt beam="2">  1       21 0.62004176E-02 0.45342565E+03</pdfrwt>
<totfact> 0.30635906E+04</totfact>
</mgrwt>
</event>
<event>
 7    0  0.4705418E-002  0.4483637E+03  0.7546771E-02  0.1028211E+00
         21   -1    0    0  502  501  0.00000000000E+00  0.00000000000E+00  0.17259106435E+04  0.17259106435E+04  0.00000000000E+00 0. -1.
         21   -1    0    0  501  502 -0.00000000000E+00 -0.00000000000E+00 -0.29119405018E+02  0.29119405018E+02  0.00000000000E+00 0. -1.
      99926    2    1    2    0    0  0.14210854715E-13  0.17763568394E-14  0.16967912385E+04  0.17550300486E+04  0.44836365176E+03 0.  0.
      99925    2    3    3    0    0 -0.10628477711E+03  0.39252575416E+01  0.10373762751E+04  0.10754805923E+04  0.26305342929E+03 0.  0.
         25    1    3    3    0    0  0.10628477711E+03 -0.39252575416E+01  0.65941496339E+03  0.67954945628E+03  0.12509000000E+03 0.  0.
         25    1    4    4    0    0 -0.63621783590E+02  0.34056543005E+02  0.62200776864E+03  0.63855207448E+03  0.12509000000E+03 0.  0.
         25    1    4    4    0    0 -0.42662993525E+02 -0.30131285464E+02  0.41536850649E+03  0.43692851780E+03  0.12509000000E+03 0.  0.
<mgrwt>
<rscale>  2 0.44836365E+03</rscale>
<asrwt>0</asrwt>
<pdfrwt beam="1">  1       21 0.25381032E+00 0.44836365E+03</pdfrwt>
<pdfrwt beam="2">  1       21 0.42822666E-02 0.44836365E+03</pdfrwt>
<totfact> 0.19105324E+04</totfact>
</mgrwt>
</event>
<event>
 7    0  0.4705418E-002  0.4769926E+03  0.7546771E-02  0.1019965E+00
         21   -1    0    0  502  501  0.00000000000E+00  0.00000000000E+00  0.85903739921E+03  0.85903739921E+03  0.00000000000E+00 0.  1.
         21   -1    0    0  501  502 -0.00000000000E+00 -0.00000000000E+00 -0.66214218608E+02  0.66214218608E+02  0.00000000000E+00 0.  1.
      99926    2    1    2    0    0  0.00000000000E+00  0.00000000000E+00  0.79282318060E+03  0.92525161781E+03  0.47699262109E+03 0.  0.
      99925    2    3    3    0    0 -0.93707471207E+02  0.93987973612E+02  0.48197220826E+03  0.56484814329E+03  0.26294749685E+03 0.  0.
         25    1    4    4    0    0 -0.32473291164E+02  0.53772611559E+02  0.30855978305E+03  0.33882540667E+03  0.12509000000E+03 0.  0.
         25    1    4    4    0    0 -0.61234180043E+02  0.40215362053E+02  0.17341242521E+03  0.22602273662E+03  0.12509000000E+03 0.  0.
         25    1    3    3    0    0  0.93707471207E+02 -0.93987973612E+02  0.31085097234E+03  0.36040347452E+03  0.12509000000E+03 0.  0.
<mgrwt>
<rscale>  2 0.47699262E+03</rscale>
<asrwt>0</asrwt>
<pdfrwt beam="1">  1       21 0.12632902E+00 0.47699262E+03</pdfrwt>
<pdfrwt beam="2">  1       21 0.97373856E-02 0.47699262E+03</pdfrwt>
<totfact> 0.35620854E+04</totfact>
</mgrwt>
</event>
<event>
 7    0  0.4705418E-002  0.4607291E+03  0.7546771E-02  0.1024570E+00
         21   -1    0    0  502  501  0.00000000000E+00  0.00000000000E+00  0.67309683432E+02  0.67309683432E+02  0.00000000000E+00 0.  1.
         21   -1    0    0  501  502 -0.00000000000E+00 -0.00000000000E+00 -0.78841307460E+03  0.78841307460E+03  0.00000000000E+00 0.  1.
      99926    2    1    2    0    0  0.71054273576E-14  0.00000000000E+00 -0.72110339117E+03  0.85572275803E+03  0.46072913719E+03 0.  0.
      99925    2    3    3    0    0  0.39953021671E+02 -0.10493700296E+03 -0.52107748573E+03  0.59444533942E+03  0.26312638958E+03 0.  0.
         25    1    3    3    0    0 -0.39953021671E+02  0.10493700296E+03 -0.20002590544E+03  0.26127741861E+03  0.12509000000E+03 0.  0.
         25    1    4    4    0    0 -0.15045715503E+02 -0.72595807622E+02 -0.27752903455E+03  0.31331517352E+03  0.12509000000E+03 0.  0.
         25    1    4    4    0    0  0.54998737174E+02 -0.32341195338E+02 -0.24354845118E+03  0.28113016590E+03  0.12509000000E+03 0.  0.
<mgrwt>
<rscale>  2 0.46072914E+03</rscale>
<asrwt>0</asrwt>
<pdfrwt beam="1">  1       21 0.98984823E-02 0.46072914E+03</pdfrwt>
<pdfrwt beam="2">  1       21 0.11594311E+00 0.46072914E+03</pdfrwt>
<totfact> 0.43209619E+04</totfact>
</mgrwt>
</event>
<event>
 7    0  0.4705418E-002  0.3888960E+03  0.7546771E-02  0.1047694E+00
         21   -1    0    0  502  501  0.00000000000E+00  0.00000000000E+00  0.86515322229E+03  0.86515322229E+03  0.00000000000E+00 0. -1.
         21   -1    0    0  501  502 -0.00000000000E+00 -0.00000000000E+00 -0.43703264814E+02  0.43703264814E+02  0.00000000000E+00 0. -1.
      99926    2    1    2    0    0 -0.17763568394E-14 -0.53290705182E-14  0.82144995748E+03  0.90885648711E+03  0.38889597775E+03 0.  0.
      99925    2    3    3    0    0  0.84953424142E+01  0.51600652361E+01  0.56954044876E+03  0.62742318098E+03  0.26302989970E+03 0.  0.
         25    1    4    4    0    0  0.22068987689E+02  0.38088782954E+02  0.30772169870E+03  0.33507901689E+03  0.12509000000E+03 0.  0.
         25    1    3    3    0    0 -0.84953424142E+01 -0.51600652361E+01  0.25190950872E+03  0.28143330613E+03  0.12509000000E+03 0.  0.
         25    1    4    4    0    0 -0.13573645275E+02 -0.32928717717E+02  0.26181875006E+03  0.29234416409E+03  0.12509000000E+03 0.  0.
<mgrwt>
<rscale>  2 0.38889598E+03</rscale>
<asrwt>0</asrwt>
<pdfrwt beam="1">  1       21 0.12722840E+00 0.38889598E+03</pdfrwt>
<pdfrwt beam="2">  1       21 0.64269513E-02 0.38889598E+03</pdfrwt>
<totfact> 0.74591060E+04</totfact>
</mgrwt>
</event>
<event>
 7    0  0.4705418E-002  0.4585325E+03  0.7546771E-02  0.1025208E+00
         21   -1    0    0  502  501  0.00000000000E+00  0.00000000000E+00  0.35585978756E+03  0.35585978756E+03  0.00000000000E+00 0. -1.
         21   -1    0    0  501  502 -0.00000000000E+00 -0.00000000000E+00 -0.14770710678E+03  0.14770710678E+03  0.00000000000E+00 0. -1.
      99926    2    1    2    0    0  0.00000000000E+00  0.00000000000E+00  0.20815268078E+03  0.50356689434E+03  0.45853252727E+03 0.  0.
      99925    2    3    3    0    0 -0.11468752303E+03 -0.13815228017E+02  0.11353289557E+03  0.30877341315E+03  0.26288250955E+03 0.  0.
         25    1    4    4    0    0 -0.86612293589E+02 -0.36980040590E+02  0.55085475903E+02  0.16598533236E+03  0.12509000000E+03 0.  0.
         25    1    4    4    0    0 -0.28075229436E+02  0.23164812573E+02  0.58447419670E+02  0.14278808079E+03  0.12509000000E+03 0.  0.
         25    1    3    3    0    0  0.11468752303E+03  0.13815228017E+02  0.94619785210E+02  0.19479348119E+03  0.12509000000E+03 0.  0.
<mgrwt>
<rscale>  2 0.45853253E+03</rscale>
<asrwt>0</asrwt>
<pdfrwt beam="1">  1       21 0.52332322E-01 0.45853253E+03</pdfrwt>
<pdfrwt beam="2">  1       21 0.21721633E-01 0.45853253E+03</pdfrwt>
<totfact> 0.63229125E+04</totfact>
</mgrwt>
</event>
<event>
 7    0  0.4705418E-002  0.4246032E+03  0.7546771E-02  0.1035578E+00
         21   -1    0    0  502  501  0.00000000000E+00  0.00000000000E+00  0.73465979322E+03  0.73465979322E+03  0.00000000000E+00 0. -1.
         21   -1    0    0  501  502 -0.00000000000E+00 -0.00000000000E+00 -0.61350805817E+02  0.61350805817E+02  0.00000000000E+00 0. -1.
      99926    2    1    2    0    0  0.00000000000E+00  0.00000000000E+00  0.67330898740E+03  0.79601059904E+03  0.42460320449E+03 0.  0.
      99925    2    3    3    0    0 -0.46912909089E+02 -0.49128888581E+02  0.35111413421E+03  0.44377275290E+03  0.26275207371E+03 0.  0.
         25    1    4    4    0    0 -0.79438098845E+01 -0.43378579871E+02  0.12432030223E+03  0.18179067895E+03  0.12509000000E+03 0.  0.
         25    1    3    3    0    0  0.46912909089E+02  0.49128888581E+02  0.32219485319E+03  0.35223784614E+03  0.12509000000E+03 0.  0.
         25    1    4    4    0    0 -0.38969099205E+02 -0.57503087100E+01  0.22679383198E+03  0.26198207394E+03  0.12509000000E+03 0.  0.
<mgrwt>
<rscale>  2 0.42460320E+03</rscale>
<asrwt>0</asrwt>
<pdfrwt beam="1">  1       21 0.10803820E+00 0.42460320E+03</pdfrwt>
<pdfrwt beam="2">  1       21 0.90221778E-02 0.42460320E+03</pdfrwt>
<totfact> 0.61332880E+04</totfact>
</mgrwt>
</event>
<event>
 7    0  0.4705418E-002  0.4375267E+03  0.7546771E-02  0.1031508E+00
         21   -1    0    0  502  501  0.00000000000E+00  0.00000000000E+00  0.87294509069E+03  0.87294509069E+03  0.00000000000E+00 0.  1.
         21   -1    0    0  501  502 -0.00000000000E+00 -0.00000000000E+00 -0.54822919688E+02  0.54822919688E+02  0.00000000000E+00 0.  1.
      99926    2    1    2    0    0  0.71054273576E-14  0.14210854715E-13  0.81812217100E+03  0.92776801038E+03  0.43752667850E+03 0.  0.
      99925    2    3    3    0    0  0.37592718206E+02  0.87479676083E+02  0.49629377782E+03  0.56959636305E+03  0.26280524483E+03 0.  0.
         25    1    4    4    0    0 -0.18350961455E+02  0.24978154172E+02  0.22415045891E+03  0.25855676804E+03  0.12509000000E+03 0.  0.
         25    1    3    3    0    0 -0.37592718206E+02 -0.87479676083E+02  0.32182839318E+03  0.35817164733E+03  0.12509000000E+03 0.  0.
         25    1    4    4    0    0  0.55943679661E+02  0.62501521912E+02  0.27214331891E+03  0.31103959501E+03  0.12509000000E+03 0.  0.
<mgrwt>
<rscale>  2 0.43752668E+03</rscale>
<asrwt>0</asrwt>
<pdfrwt beam="1">  1       21 0.12837427E+00 0.43752668E+03</pdfrwt>
<pdfrwt beam="2">  1       21 0.80621946E-02 0.43752668E+03</pdfrwt>
<totfact> 0.48329104E+04</totfact>
</mgrwt>
</event>
<event>
 7    0  0.4705418E-002  0.4570584E+03  0.7546771E-02  0.1025638E+00
         21   -1    0    0  502  501  0.00000000000E+00  0.00000000000E+00  0.49961804028E+02  0.49961804028E+02  0.00000000000E+00 0.  1.
         21   -1    0    0  501  502 -0.00000000000E+00 -0.00000000000E+00 -0.10453105451E+04  0.10453105451E+04  0.00000000000E+00 0.  1.
      99926    2    1    2    0    0  0.14210854715E-13  0.35527136788E-14 -0.99534874109E+03  0.10952723491E+04  0.45705842342E+03 0.  0.
      99925    2    3    3    0    0 -0.98039170486E+02 -0.19647015692E+02 -0.76050580507E+03  0.81102527902E+03  0.26342976198E+03 0.  0.
         25    1    3    3    0    0  0.98039170486E+02  0.19647015692E+02 -0.23484293602E+03  0.28424707012E+03  0.12509000000E+03 0.  0.
         25    1    4    4    0    0 -0.46753005051E+02 -0.16136184661E+01 -0.26034897296E+03  0.29260475571E+03  0.12509000000E+03 0.  0.
         25    1    4    4    0    0 -0.51286165435E+02 -0.18033397225E+02 -0.50015683211E+03  0.51842052331E+03  0.12509000000E+03 0.  0.
<mgrwt>
<rscale>  2 0.45705842E+03</rscale>
<asrwt>0</asrwt>
<pdfrwt beam="1">  1       21 0.73473240E-02 0.45705842E+03</pdfrwt>
<pdfrwt beam="2">  1       21 0.15372214E+00 0.45705842E+03</pdfrwt>
<totfact> 0.35091703E+04</totfact>
</mgrwt>
</event>
<event>
 7    0  0.4705418E-002  0.4540977E+03  0.7546771E-02  0.1026507E+00
         21   -1    0    0  502  501  0.00000000000E+00  0.00000000000E+00  0.48723701931E+03  0.48723701931E+03  0.00000000000E+00 0. -1.
         21   -1    0    0  501  502 -0.00000000000E+00 -0.00000000000E+00 -0.10580310092E+03  0.10580310092E+03  0.00000000000E+00 0. -1.
      99926    2    1    2    0    0  0.14210854715E-13  0.14210854715E-13  0.38143391838E+03  0.59304012023E+03  0.45409773189E+03 0.  0.
      99925    2    3    3    0    0  0.59885267378E+02  0.72350282734E+02  0.32065414950E+03  0.42522326450E+03  0.26301127812E+03 0.  0.
         25    1    4    4    0    0  0.68635956930E+02  0.24410552693E+02  0.15694343039E+03  0.21350765352E+03  0.12509000000E+03 0.  0.
         25    1    4    4    0    0 -0.87506895519E+01  0.47939730041E+02  0.16371071910E+03  0.21171561098E+03  0.12509000000E+03 0.  0.
         25    1    3    3    0    0 -0.59885267378E+02 -0.72350282734E+02  0.60779768885E+02  0.16781685573E+03  0.12509000000E+03 0.  0.
<mgrwt>
<rscale>  2 0.45409773E+03</rscale>
<asrwt>0</asrwt>
<pdfrwt beam="1">  1       21 0.71652502E-01 0.45409773E+03</pdfrwt>
<pdfrwt beam="2">  1       21 0.15559280E-01 0.45409773E+03</pdfrwt>
<totfact> 0.59532079E+04</totfact>
</mgrwt>
</event>
<event>
 7    0  0.4705418E-002  0.4560388E+03  0.7546771E-02  0.1025936E+00
         21   -1    0    0  502  501  0.00000000000E+00  0.00000000000E+00  0.35905908047E+03  0.35905908047E+03  0.00000000000E+00 0. -1.
         21   -1    0    0  501  502 -0.00000000000E+00 -0.00000000000E+00 -0.14480301851E+03  0.14480301851E+03  0.00000000000E+00 0. -1.
      99926    2    1    2    0    0 -0.14210854715E-13  0.00000000000E+00  0.21425606196E+03  0.50386209898E+03  0.45603876447E+03 0.  0.
      99925    2    3    3    0    0  0.10117122477E+03  0.22054679381E+02  0.18777878727E+03  0.33933070447E+03  0.26298750625E+03 0.  0.
         25    1    3    3    0    0 -0.10117122477E+03 -0.22054679381E+02  0.26477274697E+02  0.16453139451E+03  0.12509000000E+03 0.  0.
         25    1    4    4    0    0  0.29142739591E+02  0.44535137851E+02  0.10166999967E+03  0.16975563233E+03  0.12509000000E+03 0.  0.
         25    1    4    4    0    0  0.72028485178E+02 -0.22480458470E+02  0.86108787596E+02  0.16957507214E+03  0.12509000000E+03 0.  0.
<mgrwt>
<rscale>  2 0.45603876E+03</rscale>
<asrwt>0</asrwt>
<pdfrwt beam="1">  1       21 0.52802806E-01 0.45603876E+03</pdfrwt>
<pdfrwt beam="2">  1       21 0.21294562E-01 0.45603876E+03</pdfrwt>
<totfact> 0.64466991E+04</totfact>
</mgrwt>
</event>
<event>
 7    0  0.4705418E-002  0.4547207E+03  0.7546771E-02  0.1026324E+00
         21   -1    0    0  502  501  0.00000000000E+00  0.00000000000E+00  0.93696463258E+03  0.93696463258E+03  0.00000000000E+00 0. -1.
         21   -1    0    0  501  502 -0.00000000000E+00 -0.00000000000E+00 -0.55170411208E+02  0.55170411208E+02  0.00000000000E+00 0. -1.
      99926    2    1    2    0    0  0.11102230246E-15  0.00000000000E+00  0.88179422137E+03  0.99213504379E+03  0.45472067939E+03 0.  0.
      99925    2    3    3    0    0 -0.44441164420E+00  0.70779937937E+02  0.36300499239E+03  0.45380450469E+03  0.26297510692E+03 0.  0.
         25    1    4    4    0    0  0.16452651620E+02  0.73586610328E+02  0.19730544910E+03  0.24548447468E+03  0.12509000000E+03 0.  0.
         25    1    4    4    0    0 -0.16897063264E+02 -0.28066723905E+01  0.16569954329E+03  0.20832003001E+03  0.12509000000E+03 0.  0.
         25    1    3    3    0    0  0.44441164420E+00 -0.70779937937E+02  0.51878922898E+03  0.53833053909E+03  0.12509000000E+03 0.  0.
<mgrwt>
<rscale>  2 0.45472068E+03</rscale>
<asrwt>0</asrwt>
<pdfrwt beam="1">  1       21 0.13778891E+00 0.45472068E+03</pdfrwt>
<pdfrwt beam="2">  1       21 0.81132963E-02 0.45472068E+03</pdfrwt>
<totfact> 0.39560312E+04</totfact>
</mgrwt>
</event>
<event>
 7    0  0.4705418E-002  0.4568915E+03  0.7546771E-02  0.1025687E+00
         21   -1    0    0  502  501  0.00000000000E+00  0.00000000000E+00  0.22765685390E+03  0.22765685390E+03  0.00000000000E+00 0.  1.
         21   -1    0    0  501  502 -0.00000000000E+00 -0.00000000000E+00 -0.22923741736E+03  0.22923741736E+03  0.00000000000E+00 0.  1.
      99926    2    1    2    0    0  0.00000000000E+00  0.00000000000E+00 -0.15805634619E+01  0.45689427127E+03  0.45689153739E+03 0.  0.
      99925    2    3    3    0    0  0.88563480487E+02  0.64167471992E+02 -0.36438625300E+02  0.28711928161E+03  0.26296150654E+03 0.  0.
         25    1    4    4    0    0  0.57873439856E+02 -0.56001302325E+01 -0.10330626165E+02  0.13832905131E+03  0.12509000000E+03 0.  0.
         25    1    3    3    0    0 -0.88563480487E+02 -0.64167471992E+02  0.34858061838E+02  0.16977498966E+03  0.12509000000E+03 0.  0.
         25    1    4    4    0    0  0.30690040632E+02  0.69767602225E+02 -0.26107999136E+02  0.14879023030E+03  0.12509000000E+03 0.  0.
<mgrwt>
<rscale>  2 0.45689154E+03</rscale>
<asrwt>0</asrwt>
<pdfrwt beam="1">  1       21 0.33478949E-01 0.45689154E+03</pdfrwt>
<pdfrwt beam="2">  1       21 0.33711385E-01 0.45689154E+03</pdfrwt>
<totfact> 0.67384482E+04</totfact>
</mgrwt>
</event>
<event>
 7    0  0.4705418E-002  0.4810035E+03  0.7546771E-02  0.1018860E+00
         21   -1    0    0  502  501  0.00000000000E+00  0.00000000000E+00  0.26702696254E+02  0.26702696254E+02  0.00000000000E+00 0. -1.
         21   -1    0    0  501  502 -0.00000000000E+00 -0.00000000000E+00 -0.21661142062E+04  0.21661142062E+04  0.00000000000E+00 0. -1.
      99926    2    1    2    0    0  0.00000000000E+00  0.00000000000E+00 -0.21394115100E+04  0.21928169025E+04  0.48100349147E+03 0.  0.
      99925    2    3    3    0    0  0.48355288646E+02  0.17180837337E+02 -0.18919209542E+04  0.19108018348E+04  0.26299304128E+03 0.  0.
         25    1    3    3    0    0 -0.48355288646E+02 -0.17180837337E+02 -0.24749055578E+03  0.28201506770E+03  0.12509000000E+03 0.  0.
         25    1    4    4    0    0 -0.22305234760E+01 -0.19479929213E+00 -0.69468028220E+03  0.70585637049E+03  0.12509000000E+03 0.  0.
         25    1    4    4    0    0  0.50585812122E+02  0.17375636629E+02 -0.11972406720E+04  0.12049454643E+04  0.12509000000E+03 0.  0.
<mgrwt>
<rscale>  2 0.48100349E+03</rscale>
<asrwt>0</asrwt>
<pdfrwt beam="1">  1       21 0.39268666E-02 0.48100349E+03</pdfrwt>
<pdfrwt beam="2">  1       21 0.31854625E+00 0.48100349E+03</pdfrwt>
<totfact> 0.88770663E+03</totfact>
</mgrwt>
</event>
<event>
 7    0  0.4705418E-002  0.4513549E+03  0.7546771E-02  0.1027319E+00
         21   -1    0    0  502  501  0.00000000000E+00  0.00000000000E+00  0.62681921112E+03  0.62681921112E+03  0.00000000000E+00 0. -1.
         21   -1    0    0  501  502 -0.00000000000E+00 -0.00000000000E+00 -0.81251996489E+02  0.81251996489E+02  0.00000000000E+00 0. -1.
      99926    2    1    2    0    0 -0.71054273576E-14  0.00000000000E+00  0.54556721463E+03  0.70807120761E+03  0.45135490400E+03 0.  0.
      99925    2    3    3    0    0 -0.50845954264E+02  0.93342460757E+02  0.38692753713E+03  0.47979028107E+03  0.26303548957E+03 0.  0.
         25    1    4    4    0    0 -0.57475946307E+02  0.71998421105E+02  0.23527357419E+03  0.28193690758E+03  0.12509000000E+03 0.  0.
         25    1    3    3    0    0  0.50845954264E+02 -0.93342460757E+02  0.15863967750E+03  0.22828092654E+03  0.12509000000E+03 0.  0.
         25    1    4    4    0    0  0.66299920430E+01  0.21344039651E+02  0.15165396294E+03  0.19785337348E+03  0.12509000000E+03 0.  0.
<mgrwt>
<rscale>  2 0.45135490E+03</rscale>
<asrwt>0</asrwt>
<pdfrwt beam="1">  1       21 0.92179293E-01 0.45135490E+03</pdfrwt>
<pdfrwt beam="2">  1       21 0.11948823E-01 0.45135490E+03</pdfrwt>
<totfact> 0.53999027E+04</totfact>
</mgrwt>
</event>
<event>
 7    0  0.4705418E-002  0.4550312E+03  0.7546771E-02  0.1026232E+00
         21   -1    0    0  502  501  0.00000000000E+00  0.00000000000E+00  0.29641614501E+03  0.29641614501E+03  0.00000000000E+00 0.  1.
         21   -1    0    0  501  502 -0.00000000000E+00 -0.00000000000E+00 -0.17463064907E+03  0.17463064907E+03  0.00000000000E+00 0.  1.
      99926    2    1    2    0    0  0.00000000000E+00  0.00000000000E+00  0.12178549594E+03  0.47104679407E+03  0.45503118045E+03 0.  0.
      99925    2    3    3    0    0  0.51639412724E+02  0.94391834520E+02  0.40397996256E+02  0.28706885905E+03  0.26305908911E+03 0.  0.
         25    1    4    4    0    0 -0.96689023119E+01  0.37484637779E+02  0.38830593291E+02  0.13657931328E+03  0.12509000000E+03 0.  0.
         25    1    4    4    0    0  0.61308315036E+02  0.56907196742E+02  0.15674029644E+01  0.15048954577E+03  0.12509000000E+03 0.  0.
         25    1    3    3    0    0 -0.51639412724E+02 -0.94391834520E+02  0.81387499683E+02  0.18397793502E+03  0.12509000000E+03 0.  0.
<mgrwt>
<rscale>  2 0.45503118E+03</rscale>
<asrwt>0</asrwt>
<pdfrwt beam="1">  1       21 0.43590610E-01 0.45503118E+03</pdfrwt>
<pdfrwt beam="2">  1       21 0.25680978E-01 0.45503118E+03</pdfrwt>
<totfact> 0.67341278E+04</totfact>
</mgrwt>
</event>
<event>
 7    0  0.4705418E-002  0.4507202E+03  0.7546771E-02  0.1027508E+00
         21   -1    0    0  502  501  0.00000000000E+00  0.00000000000E+00  0.13589862598E+03  0.13589862598E+03  0.00000000000E+00 0. -1.
         21   -1    0    0  501  502 -0.00000000000E+00 -0.00000000000E+00 -0.37371361565E+03  0.37371361565E+03  0.00000000000E+00 0. -1.
      99926    2    1    2    0    0  0.00000000000E+00  0.00000000000E+00 -0.23781498967E+03  0.50961224162E+03  0.45072016540E+03 0.  0.
      99925    2    3    3    0    0 -0.71364154563E+02 -0.57320779213E+02 -0.21757758995E+03  0.35329341763E+03  0.26286444607E+03 0.  0.
         25    1    4    4    0    0 -0.26424953623E+02 -0.63047443037E+02 -0.13724150318E+03  0.19787874201E+03  0.12509000000E+03 0.  0.
         25    1    4    4    0    0 -0.44939200940E+02  0.57266638233E+01 -0.80336086775E+02  0.15541467562E+03  0.12509000000E+03 0.  0.
         25    1    3    3    0    0  0.71364154563E+02  0.57320779213E+02 -0.20237399720E+02  0.15631882399E+03  0.12509000000E+03 0.  0.
<mgrwt>
<rscale>  2 0.45072017E+03</rscale>
<asrwt>0</asrwt>
<pdfrwt beam="1">  1       21 0.19985092E-01 0.45072017E+03</pdfrwt>
<pdfrwt beam="2">  1       21 0.54957884E-01 0.45072017E+03</pdfrwt>
<totfact> 0.66842042E+04</totfact>
</mgrwt>
</event>
<event>
 7    0  0.4705418E-002  0.4316797E+03  0.7546771E-02  0.1033331E+00
         21   -1    0    0  502  501  0.00000000000E+00  0.00000000000E+00  0.26174700442E+03  0.26174700442E+03  0.00000000000E+00 0. -1.
         21   -1    0    0  501  502 -0.00000000000E+00 -0.00000000000E+00 -0.17798427593E+03  0.17798427593E+03  0.00000000000E+00 0. -1.
      99926    2    1    2    0    0 -0.35527136788E-14  0.00000000000E+00  0.83762728491E+02  0.43973128034E+03  0.43167974730E+03 0.  0.
      99925    2    3    3    0    0  0.16593481523E+02  0.19904682773E+01  0.14351966775E+03  0.30009709583E+03  0.26302293874E+03 0.  0.
         25    1    4    4    0    0  0.20721716938E+02  0.19099721668E+01  0.11618902595E+03  0.17198963747E+03  0.12509000000E+03 0.  0.
         25    1    4    4    0    0 -0.41282354146E+01  0.80496110468E-01  0.27330641806E+02  0.12810745837E+03  0.12509000000E+03 0.  0.
         25    1    3    3    0    0 -0.16593481523E+02 -0.19904682773E+01 -0.59756939261E+02  0.13963418451E+03  0.12509000000E+03 0.  0.
<mgrwt>
<rscale>  2 0.43167975E+03</rscale>
<asrwt>0</asrwt>
<pdfrwt beam="1">  1       21 0.38492207E-01 0.43167975E+03</pdfrwt>
<pdfrwt beam="2">  1       21 0.26174158E-01 0.43167975E+03</pdfrwt>
<totfact> 0.84297195E+04</totfact>
</mgrwt>
</event>
<event>
 7    0  0.4705418E-002  0.4492820E+03  0.7546771E-02  0.1027936E+00
         21   -1    0    0  502  501  0.00000000000E+00  0.00000000000E+00  0.31603106615E+03  0.31603106615E+03  0.00000000000E+00 0.  1.
         21   -1    0    0  501  502 -0.00000000000E+00 -0.00000000000E+00 -0.15967916733E+03  0.15967916733E+03  0.00000000000E+00 0.  1.
      99926    2    1    2    0    0  0.71054273576E-14  0.14210854715E-13  0.15635189882E+03  0.47571023347E+03  0.44928199382E+03 0.  0.
      99925    2    3    3    0    0  0.62250200382E+02  0.87032329390E+02  0.86435645616E+02  0.29686531639E+03  0.26307447887E+03 0.  0.
         25    1    4    4    0    0  0.34357346809E+02  0.17806044785E+02  0.74153760529E+01  0.13114868818E+03  0.12509000000E+03 0.  0.
         25    1    4    4    0    0  0.27892853573E+02  0.69226284605E+02  0.79020269563E+02  0.16571662820E+03  0.12509000000E+03 0.  0.
         25    1    3    3    0    0 -0.62250200382E+02 -0.87032329390E+02  0.69916253202E+02  0.17884491709E+03  0.12509000000E+03 0.  0.
<mgrwt>
<rscale>  2 0.44928199E+03</rscale>
<asrwt>0</asrwt>
<pdfrwt beam="1">  1       21 0.46475157E-01 0.44928199E+03</pdfrwt>
<pdfrwt beam="2">  1       21 0.23482231E-01 0.44928199E+03</pdfrwt>
<totfact> 0.70143505E+04</totfact>
</mgrwt>
</event>
<event>
 7    0  0.4705418E-002  0.4037163E+03  0.7546771E-02  0.1042500E+00
         21   -1    0    0  502  501  0.00000000000E+00  0.00000000000E+00  0.17692485751E+03  0.17692485751E+03  0.00000000000E+00 0. -1.
         21   -1    0    0  501  502 -0.00000000000E+00 -0.00000000000E+00 -0.23030523124E+03  0.23030523124E+03  0.00000000000E+00 0. -1.
      99926    2    1    2    0    0  0.00000000000E+00  0.00000000000E+00 -0.53380373738E+02  0.40723008875E+03  0.40371633715E+03 0.  0.
      99925    2    3    3    0    0 -0.78473808879E+01 -0.21888193145E+02  0.11770501140E+02  0.26428667693E+03  0.26299853330E+03 0.  0.
         25    1    3    3    0    0  0.78473808879E+01  0.21888193145E+02 -0.65150874878E+02  0.14294341182E+03  0.12509000000E+03 0.  0.
         25    1    4    4    0    0  0.19781264129E+02  0.12782650142E+02 -0.17208834688E+02  0.12844588996E+03  0.12509000000E+03 0.  0.
         25    1    4    4    0    0 -0.27628645017E+02 -0.34670843287E+02  0.28979335828E+02  0.13584078697E+03  0.12509000000E+03 0.  0.
<mgrwt>
<rscale>  2 0.40371634E+03</rscale>
<asrwt>0</asrwt>
<pdfrwt beam="1">  1       21 0.26018361E-01 0.40371634E+03</pdfrwt>
<pdfrwt beam="2">  1       21 0.33868416E-01 0.40371634E+03</pdfrwt>
<totfact> 0.11118135E+05</totfact>
</mgrwt>
</event>
<event>
 7    0  0.4705418E-002  0.4480017E+03  0.7546771E-02  0.1028320E+00
         21   -1    0    0  502  501  0.00000000000E+00  0.00000000000E+00  0.78945408136E+02  0.78945408136E+02  0.00000000000E+00 0.  1.
         21   -1    0    0  501  502 -0.00000000000E+00 -0.00000000000E+00 -0.63558326963E+03  0.63558326963E+03  0.00000000000E+00 0.  1.
      99926    2    1    2    0    0  0.00000000000E+00  0.00000000000E+00 -0.55663786150E+03  0.71452867777E+03  0.44800169922E+03 0.  0.
      99925    2    3    3    0    0  0.44903407674E+02 -0.32983700665E+02 -0.49721716780E+03  0.56525521238E+03  0.26302909086E+03 0.  0.
         25    1    3    3    0    0 -0.44903407674E+02  0.32983700665E+02 -0.59420693701E+02  0.14927346539E+03  0.12509000000E+03 0.  0.
         25    1    4    4    0    0 -0.13107000850E+00 -0.11631444505E+02 -0.16973257911E+03  0.21116809464E+03  0.12509000000E+03 0.  0.
         25    1    4    4    0    0  0.45034477682E+02 -0.21352256160E+02 -0.32748458869E+03  0.35408711774E+03  0.12509000000E+03 0.  0.
<mgrwt>
<rscale>  2 0.44800170E+03</rscale>
<asrwt>0</asrwt>
<pdfrwt beam="1">  1       21 0.11609619E-01 0.44800170E+03</pdfrwt>
<pdfrwt beam="2">  1       21 0.93468126E-01 0.44800170E+03</pdfrwt>
<totfact> 0.55092178E+04</totfact>
</mgrwt>
</event>
<event>
 7    0  0.4705418E-002  0.4450137E+03  0.7546771E-02  0.1029220E+00
         21   -1    0    0  502  501  0.00000000000E+00  0.00000000000E+00  0.55717633819E+03  0.55717633819E+03  0.00000000000E+00 0.  1.
         21   -1    0    0  501  502 -0.00000000000E+00 -0.00000000000E+00 -0.88857516260E+02  0.88857516260E+02  0.00000000000E+00 0.  1.
      99926    2    1    2    0    0  0.00000000000E+00  0.71054273576E-14  0.46831882193E+03  0.64603385445E+03  0.44501373251E+03 0.  0.
      99925    2    3    3    0    0  0.30332903151E+02 -0.51165130976E+02  0.17459817040E+03  0.32129198022E+03  0.26307044647E+03 0.  0.
         25    1    3    3    0    0 -0.30332903151E+02  0.51165130976E+02  0.29372065153E+03  0.32474187423E+03  0.12509000000E+03 0.  0.
         25    1    4    4    0    0  0.39764455278E+02 -0.58377402868E+02  0.84345456445E+02  0.16658570525E+03  0.12509000000E+03 0.  0.
         25    1    4    4    0    0 -0.94315521279E+01  0.72122718918E+01  0.90252713957E+02  0.15470627498E+03  0.12509000000E+03 0.  0.
<mgrwt>
<rscale>  2 0.44501373E+03</rscale>
<asrwt>0</asrwt>
<pdfrwt beam="1">  1       21 0.81937695E-01 0.44501373E+03</pdfrwt>
<pdfrwt beam="2">  1       21 0.13067282E-01 0.44501373E+03</pdfrwt>
<totfact> 0.60562805E+04</totfact>
</mgrwt>
</event>
<event>
 7    0  0.4705418E-002  0.4498331E+03  0.7546771E-02  0.1027772E+00
         21   -1    0    0  502  501  0.00000000000E+00  0.00000000000E+00  0.87932685288E+03  0.87932685288E+03  0.00000000000E+00 0.  1.
         21   -1    0    0  501  502 -0.00000000000E+00 -0.00000000000E+00 -0.57529744543E+02  0.57529744543E+02  0.00000000000E+00 0.  1.
      99926    2    1    2    0    0  0.00000000000E+00 -0.35527136788E-14  0.82179710834E+03  0.93685659743E+03  0.44983307667E+03 0.  0.
      99925    2    3    3    0    0  0.76294512707E+02  0.17581126310E+02  0.67527161639E+03  0.72889704231E+03  0.26300036829E+03 0.  0.
         25    1    3    3    0    0 -0.76294512707E+02 -0.17581126310E+02  0.14652549195E+03  0.20795955511E+03  0.12509000000E+03 0.  0.
         25    1    4    4    0    0  0.57432665409E+02  0.44520280131E+02  0.33680218830E+03  0.36655666484E+03  0.12509000000E+03 0.  0.
         25    1    4    4    0    0  0.18861847299E+02 -0.26939153821E+02  0.33846942809E+03  0.36234037747E+03  0.12509000000E+03 0.  0.
<mgrwt>
<rscale>  2 0.44983308E+03</rscale>
<asrwt>0</asrwt>
<pdfrwt beam="1">  1       21 0.12931276E+00 0.44983308E+03</pdfrwt>
<pdfrwt beam="2">  1       21 0.84602571E-02 0.44983308E+03</pdfrwt>
<totfact> 0.43405283E+04</totfact>
</mgrwt>
</event>
<event>
 7    0  0.4705418E-002  0.4540014E+03  0.7546771E-02  0.1026535E+00
         21   -1    0    0  502  501  0.00000000000E+00  0.00000000000E+00  0.63801517666E+03  0.63801517666E+03  0.00000000000E+00 0. -1.
         21   -1    0    0  501  502 -0.00000000000E+00 -0.00000000000E+00 -0.80765052251E+02  0.80765052251E+02  0.00000000000E+00 0. -1.
      99926    2    1    2    0    0  0.00000000000E+00  0.00000000000E+00  0.55725012441E+03  0.71878022891E+03  0.45400144969E+03 0.  0.
      99925    2    3    3    0    0  0.81153805913E+02 -0.39650545974E+02  0.45656115413E+03  0.53454157161E+03  0.26292298930E+03 0.  0.
         25    1    4    4    0    0  0.48031602380E+01 -0.25872685560E+02  0.17361035862E+03  0.21559343897E+03  0.12509000000E+03 0.  0.
         25    1    3    3    0    0 -0.81153805913E+02  0.39650545974E+02  0.10068897028E+03  0.18423865731E+03  0.12509000000E+03 0.  0.
         25    1    4    4    0    0  0.76350645675E+02 -0.13777860415E+02  0.28295079551E+03  0.31894813264E+03  0.12509000000E+03 0.  0.
<mgrwt>
<rscale>  2 0.45400145E+03</rscale>
<asrwt>0</asrwt>
<pdfrwt beam="1">  1       21 0.93825758E-01 0.45400145E+03</pdfrwt>
<pdfrwt beam="2">  1       21 0.11877214E-01 0.45400145E+03</pdfrwt>
<totfact> 0.52304799E+04</totfact>
</mgrwt>
</event>
<event>
 7    0  0.4705418E-002  0.4524514E+03  0.7546771E-02  0.1026994E+00
         21   -1    0    0  502  501  0.00000000000E+00  0.00000000000E+00  0.10185608055E+04  0.10185608055E+04  0.00000000000E+00 0. -1.
         21   -1    0    0  501  502 -0.00000000000E+00 -0.00000000000E+00 -0.50245478453E+02  0.50245478453E+02  0.00000000000E+00 0. -1.
      99926    2    1    2    0    0  0.00000000000E+00  0.00000000000E+00  0.96831532700E+03  0.10688062839E+04  0.45245143387E+03 0.  0.
      99925    2    3    3    0    0 -0.10408394592E+02 -0.87003543915E+02  0.45085516222E+03  0.52927826650E+03  0.26303451248E+03 0.  0.
         25    1    3    3    0    0  0.10408394592E+02  0.87003543915E+02  0.51746016478E+03  0.53952801741E+03  0.12509000000E+03 0.  0.
         25    1    4    4    0    0 -0.34269663528E+02 -0.59344336059E+02  0.28166758316E+03  0.31572186425E+03  0.12509000000E+03 0.  0.
         25    1    4    4    0    0  0.23861268935E+02 -0.27659207856E+02  0.16918757905E+03  0.21355640225E+03  0.12509000000E+03 0.  0.
<mgrwt>
<rscale>  2 0.45245143E+03</rscale>
<asrwt>0</asrwt>
<pdfrwt beam="1">  1       21 0.14978834E+00 0.45245143E+03</pdfrwt>
<pdfrwt beam="2">  1       21 0.73890416E-02 0.45245143E+03</pdfrwt>
<totfact> 0.37331770E+04</totfact>
</mgrwt>
</event>
<event>
 7    0  0.4705418E-002  0.4505760E+03  0.7546771E-02  0.1027550E+00
         21   -1    0    0  502  501  0.00000000000E+00  0.00000000000E+00  0.43741977981E+02  0.43741977981E+02  0.00000000000E+00 0.  1.
         21   -1    0    0  501  502 -0.00000000000E+00 -0.00000000000E+00 -0.11603198742E+04  0.11603198742E+04  0.00000000000E+00 0.  1.
      99926    2    1    2    0    0  0.00000000000E+00  0.71054273576E-14 -0.11165778962E+04  0.12040618522E+04  0.45057601528E+03 0.  0.
      99925    2    3    3    0    0  0.86504541189E+02 -0.50829821515E+02 -0.81922527232E+03  0.86622639306E+03  0.26296655836E+03 0.  0.
         25    1    4    4    0    0  0.23411352278E+02 -0.60717640185E+02 -0.41254559256E+03  0.43597717519E+03  0.12509000000E+03 0.  0.
         25    1    3    3    0    0 -0.86504541189E+02  0.50829821515E+02 -0.29735262389E+03  0.33783545911E+03  0.12509000000E+03 0.  0.
         25    1    4    4    0    0  0.63093188911E+02  0.98878186692E+01 -0.40667967977E+03  0.43024921787E+03  0.12509000000E+03 0.  0.
<mgrwt>
<rscale>  2 0.45057602E+03</rscale>
<asrwt>0</asrwt>
<pdfrwt beam="1">  1       21 0.64326444E-02 0.45057602E+03</pdfrwt>
<pdfrwt beam="2">  1       21 0.17063526E+00 0.45057602E+03</pdfrwt>
<totfact> 0.33155397E+04</totfact>
</mgrwt>
</event>
<event>
 7    0  0.4705418E-002  0.4538074E+03  0.7546771E-02  0.1026593E+00
         21   -1    0    0  502  501  0.00000000000E+00  0.00000000000E+00  0.29412479409E+03  0.29412479409E+03  0.00000000000E+00 0. -1.
         21   -1    0    0  501  502 -0.00000000000E+00 -0.00000000000E+00 -0.17504570829E+03  0.17504570829E+03  0.00000000000E+00 0. -1.
      99926    2    1    2    0    0  0.71054273576E-14  0.00000000000E+00  0.11907908580E+03  0.46917050237E+03  0.45380737281E+03 0.  0.
      99925    2    3    3    0    0 -0.60228608342E+02  0.45131900668E+02  0.15941143560E+03  0.31771562374E+03  0.26432335888E+03 0.  0.
         25    1    3    3    0    0  0.60228608342E+02 -0.45131900668E+02 -0.40332349795E+02  0.15145487863E+03  0.12509000000E+03 0.  0.
         25    1    4    4    0    0 -0.24537957634E+02  0.44720131489E+02  0.39375036528E+02  0.14071212857E+03  0.12509000000E+03 0.  0.
         25    1    4    4    0    0 -0.35690650708E+02  0.41176917892E+00  0.12003639907E+03  0.17700349517E+03  0.12509000000E+03 0.  0.
<mgrwt>
<rscale>  2 0.45380737E+03</rscale>
<asrwt>0</asrwt>
<pdfrwt beam="1">  1       21 0.43253647E-01 0.45380737E+03</pdfrwt>
<pdfrwt beam="2">  1       21 0.25742016E-01 0.45380737E+03</pdfrwt>
<totfact> 0.68139859E+04</totfact>
</mgrwt>
</event>
<event>
 7    0  0.4705418E-002  0.4566979E+03  0.7546771E-02  0.1025743E+00
         21   -1    0    0  502  501  0.00000000000E+00  0.00000000000E+00  0.73890441378E+03  0.73890441378E+03  0.00000000000E+00 0. -1.
         21   -1    0    0  501  502 -0.00000000000E+00 -0.00000000000E+00 -0.70568308281E+02  0.70568308281E+02  0.00000000000E+00 0. -1.
      99926    2    1    2    0    0  0.00000000000E+00  0.00000000000E+00  0.66833610550E+03  0.80947272206E+03  0.45669786276E+03 0.  0.
      99925    2    3    3    0    0 -0.93863000829E+02  0.60607379036E+02  0.46652240883E+03  0.54706122540E+03  0.26296256212E+03 0.  0.
         25    1    3    3    0    0  0.93863000829E+02 -0.60607379036E+02  0.20181369667E+03  0.26241149666E+03  0.12509000000E+03 0.  0.
         25    1    4    4    0    0 -0.75590679891E+02  0.37555879606E+02  0.19415816265E+03  0.24590505322E+03  0.12509000000E+03 0.  0.
         25    1    4    4    0    0 -0.18272320937E+02  0.23051499430E+02  0.27236424619E+03  0.30115617217E+03  0.12509000000E+03 0.  0.
<mgrwt>
<rscale>  2 0.45669786E+03</rscale>
<asrwt>0</asrwt>
<pdfrwt beam="1">  1       21 0.10866241E+00 0.45669786E+03</pdfrwt>
<pdfrwt beam="2">  1       21 0.10377693E-01 0.45669786E+03</pdfrwt>
<totfact> 0.46684912E+04</totfact>
</mgrwt>
</event>
<event>
 7    0  0.4705418E-002  0.3950924E+03  0.7546771E-02  0.1045492E+00
         21   -1    0    0  502  501  0.00000000000E+00  0.00000000000E+00  0.10927226069E+03  0.10927226069E+03  0.00000000000E+00 0. -1.
         21   -1    0    0  501  502 -0.00000000000E+00 -0.00000000000E+00 -0.35713081687E+03  0.35713081687E+03  0.00000000000E+00 0. -1.
      99926    2    1    2    0    0  0.00000000000E+00  0.00000000000E+00 -0.24785855618E+03  0.46640307756E+03  0.39509235235E+03 0.  0.
      99925    2    3    3    0    0  0.19502345848E+02 -0.20527621252E+02 -0.14452534014E+03  0.30170035638E+03  0.26331313368E+03 0.  0.
         25    1    4    4    0    0  0.54367374126E+01  0.50474889406E+01 -0.11459912701E+03  0.16981019778E+03  0.12509000000E+03 0.  0.
         25    1    4    4    0    0  0.14065608435E+02 -0.25575110192E+02 -0.29926213129E+02  0.13189015860E+03  0.12509000000E+03 0.  0.
         25    1    3    3    0    0 -0.19502345848E+02  0.20527621252E+02 -0.10333321604E+03  0.16470272118E+03  0.12509000000E+03 0.  0.
<mgrwt>
<rscale>  2 0.39509235E+03</rscale>
<asrwt>0</asrwt>
<pdfrwt beam="1">  1       21 0.16069450E-01 0.39509235E+03</pdfrwt>
<pdfrwt beam="2">  1       21 0.52519238E-01 0.39509235E+03</pdfrwt>
<totfact> 0.11232891E+05</totfact>
</mgrwt>
</event>
<event>
 7    0  0.4705418E-002  0.4437658E+03  0.7546771E-02  0.1029598E+00
         21   -1    0    0  502  501  0.00000000000E+00  0.00000000000E+00  0.27332427019E+03  0.27332427019E+03  0.00000000000E+00 0.  1.
         21   -1    0    0  501  502 -0.00000000000E+00 -0.00000000000E+00 -0.18012314153E+03  0.18012314153E+03  0.00000000000E+00 0.  1.
      99926    2    1    2    0    0  0.00000000000E+00  0.35527136788E-14  0.93201128659E+02  0.45344741172E+03  0.44376582204E+03 0.  0.
      99925    2    3    3    0    0  0.94767481959E+02  0.20572456217E+02  0.90503844439E+02  0.29514742741E+03  0.26366068432E+03 0.  0.
         25    1    3    3    0    0 -0.94767481959E+02 -0.20572456217E+02  0.26972842203E+01  0.15829998431E+03  0.12509000000E+03 0.  0.
         25    1    4    4    0    0  0.47318035195E+02 -0.66397898640E+01  0.48831129115E+01  0.13399416463E+03  0.12509000000E+03 0.  0.
         25    1    4    4    0    0  0.47449446765E+02  0.27212246081E+02  0.85620731527E+02  0.16115326277E+03  0.12509000000E+03 0.  0.
<mgrwt>
<rscale>  2 0.44376582E+03</rscale>
<asrwt>0</asrwt>
<pdfrwt beam="1">  1       21 0.40194746E-01 0.44376582E+03</pdfrwt>
<pdfrwt beam="2">  1       21 0.26488697E-01 0.44376582E+03</pdfrwt>
<totfact> 0.75165068E+04</totfact>
</mgrwt>
</event>
<event>
 7    0  0.4705418E-002  0.4429638E+03  0.7546771E-02  0.1029841E+00
         21   -1    0    0  502  501  0.00000000000E+00  0.00000000000E+00  0.59433012432E+03  0.59433012432E+03  0.00000000000E+00 0.  1.
         21   -1    0    0  501  502 -0.00000000000E+00 -0.00000000000E+00 -0.82537002189E+02  0.82537002189E+02  0.00000000000E+00 0.  1.
      99926    2    1    2    0    0  0.00000000000E+00  0.00000000000E+00  0.51179312213E+03  0.67686712651E+03  0.44296377627E+03 0.  0.
      99925    2    3    3    0    0 -0.64979891647E+02 -0.60778822754E+02  0.25027862949E+03  0.37362829394E+03  0.26275893523E+03 0.  0.
         25    1    4    4    0    0 -0.56041340235E+02 -0.38965889353E+02  0.88387585197E+02  0.16768674863E+03  0.12509000000E+03 0.  0.
         25    1    3    3    0    0  0.64979891647E+02  0.60778822754E+02  0.26151449264E+03  0.30323883256E+03  0.12509000000E+03 0.  0.
         25    1    4    4    0    0 -0.89385514119E+01 -0.21812933401E+02  0.16189104429E+03  0.20594154531E+03  0.12509000000E+03 0.  0.
<mgrwt>
<rscale>  2 0.44296378E+03</rscale>
<asrwt>0</asrwt>
<pdfrwt beam="1">  1       21 0.87401487E-01 0.44296378E+03</pdfrwt>
<pdfrwt beam="2">  1       21 0.12137795E-01 0.44296378E+03</pdfrwt>
<totfact> 0.59631696E+04</totfact>
</mgrwt>
</event>
<event>
 7    0  0.4705418E-002  0.4565378E+03  0.7546771E-02  0.1025790E+00
         21   -1    0    0  502  501  0.00000000000E+00  0.00000000000E+00  0.12661066063E+04  0.12661066063E+04  0.00000000000E+00 0.  1.
         21   -1    0    0  501  502 -0.00000000000E+00 -0.00000000000E+00 -0.41155063587E+02  0.41155063587E+02  0.00000000000E+00 0.  1.
      99926    2    1    2    0    0 -0.14210854715E-13 -0.71054273576E-14  0.12249515427E+04  0.13072616699E+04  0.45653783147E+03 0.  0.
      99925    2    3    3    0    0  0.87233037958E+02 -0.46337769857E+02  0.93587181390E+03  0.97715352164E+03  0.26308964439E+03 0.  0.
         25    1    3    3    0    0 -0.87233037958E+02  0.46337769857E+02  0.28907972883E+03  0.33010814826E+03  0.12509000000E+03 0.  0.
         25    1    4    4    0    0  0.68709449171E+02 -0.32490349443E+02  0.38756473582E+03  0.41428316857E+03  0.12509000000E+03 0.  0.
         25    1    4    4    0    0  0.18523588787E+02 -0.13847420415E+02  0.54830707808E+03  0.56287035307E+03  0.12509000000E+03 0.  0.
<mgrwt>
<rscale>  2 0.45653783E+03</rscale>
<asrwt>0</asrwt>
<pdfrwt beam="1">  1       21 0.18619212E+00 0.45653783E+03</pdfrwt>
<pdfrwt beam="2">  1       21 0.60522160E-02 0.45653783E+03</pdfrwt>
<totfact> 0.28561415E+04</totfact>
</mgrwt>
</event>
<event>
 7    0  0.4705418E-002  0.4586516E+03  0.7546771E-02  0.1025173E+00
         21   -1    0    0  502  501  0.00000000000E+00  0.00000000000E+00  0.97032427001E+02  0.97032427001E+02  0.00000000000E+00 0. -1.
         21   -1    0    0  501  502 -0.00000000000E+00 -0.00000000000E+00 -0.54198712412E+03  0.54198712412E+03  0.00000000000E+00 0. -1.
      99926    2    1    2    0    0  0.00000000000E+00  0.00000000000E+00 -0.44495469712E+03  0.63901955112E+03  0.45865161531E+03 0.  0.
      99925    2    3    3    0    0  0.66159129730E+02 -0.94090829978E+02 -0.25290629196E+03  0.38258200949E+03  0.26301575379E+03 0.  0.
         25    1    3    3    0    0 -0.66159129730E+02  0.94090829978E+02 -0.19204840516E+03  0.25643754163E+03  0.12509000000E+03 0.  0.
         25    1    4    4    0    0  0.22099969210E+02 -0.83997801709E+02 -0.11371336719E+03  0.19005861546E+03  0.12509000000E+03 0.  0.
         25    1    4    4    0    0  0.44059160521E+02 -0.10093028269E+02 -0.13919292477E+03  0.19252339404E+03  0.12509000000E+03 0.  0.
<mgrwt>
<rscale>  2 0.45865162E+03</rscale>
<asrwt>0</asrwt>
<pdfrwt beam="1">  1       21 0.14269475E-01 0.45865162E+03</pdfrwt>
<pdfrwt beam="2">  1       21 0.79703988E-01 0.45865162E+03</pdfrwt>
<totfact> 0.54743767E+04</totfact>
</mgrwt>
</event>
<event>
 7    0  0.4705418E-002  0.4324147E+03  0.7546771E-02  0.1033100E+00
         21   -1    0    0  502  501  0.00000000000E+00  0.00000000000E+00  0.48020018089E+02  0.48020018089E+02  0.00000000000E+00 0. -1.
         21   -1    0    0  501  502 -0.00000000000E+00 -0.00000000000E+00 -0.97346128493E+03  0.97346128493E+03  0.00000000000E+00 0. -1.
      99926    2    1    2    0    0  0.00000000000E+00  0.17763568394E-14 -0.92544126684E+03  0.10214813030E+04  0.43241474772E+03 0.  0.
      99925    2    3    3    0    0  0.87882510404E+02 -0.14624190406E+01 -0.64505263662E+03  0.70212137071E+03  0.26297536177E+03 0.  0.
         25    1    4    4    0    0  0.22566851265E+02  0.29237846722E+02 -0.35271452090E+03  0.37605738367E+03  0.12509000000E+03 0.  0.
         25    1    3    3    0    0 -0.87882510404E+02  0.14624190406E+01 -0.28038863022E+03  0.31935993230E+03  0.12509000000E+03 0.  0.
         25    1    4    4    0    0  0.65315659138E+02 -0.30700265762E+02 -0.29233811572E+03  0.32606398705E+03  0.12509000000E+03 0.  0.
<mgrwt>
<rscale>  2 0.43241475E+03</rscale>
<asrwt>0</asrwt>
<pdfrwt beam="1">  1       21 0.70617666E-02 0.43241475E+03</pdfrwt>
<pdfrwt beam="2">  1       21 0.14315609E+00 0.43241475E+03</pdfrwt>
<totfact> 0.45920118E+04</totfact>
</mgrwt>
</event>
<event>
 7    0  0.4705418E-002  0.4544510E+03  0.7546771E-02  0.1026403E+00
         21   -1    0    0  502  501  0.00000000000E+00  0.00000000000E+00  0.59044477714E+03  0.59044477714E+03  0.00000000000E+00 0.  1.
         21   -1    0    0  501  502 -0.00000000000E+00 -0.00000000000E+00 -0.87444958883E+02  0.87444958883E+02  0.00000000000E+00 0.  1.
      99926    2    1    2    0    0  0.35527136788E-14  0.00000000000E+00  0.50299981826E+03  0.67788973602E+03  0.45445096219E+03 0.  0.
      99925    2    3    3    0    0  0.24241901350E+02 -0.95585881002E+02  0.39791335152E+03  0.48706257857E+03  0.26300302223E+03 0.  0.
         25    1    4    4    0    0  0.40969894920E+01 -0.88316356136E+02  0.23571192559E+03  0.28111240465E+03  0.12509000000E+03 0.  0.
         25    1    3    3    0    0 -0.24241901350E+02  0.95585881002E+02  0.10508646674E+03  0.19082715745E+03  0.12509000000E+03 0.  0.
         25    1    4    4    0    0  0.20144911858E+02 -0.72695248668E+01  0.16220142593E+03  0.20595017392E+03  0.12509000000E+03 0.  0.
<mgrwt>
<rscale>  2 0.45445096E+03</rscale>
<asrwt>0</asrwt>
<pdfrwt beam="1">  1       21 0.86830112E-01 0.45445096E+03</pdfrwt>
<pdfrwt beam="2">  1       21 0.12859553E-01 0.45445096E+03</pdfrwt>
<totfact> 0.54355069E+04</totfact>
</mgrwt>
</event>
<event>
 7    0  0.4705418E-002  0.4500215E+03  0.7546771E-02  0.1027716E+00
         21   -1    0    0  502  501  0.00000000000E+00  0.00000000000E+00  0.10364792454E+03  0.10364792454E+03  0.00000000000E+00 0.  1.
         21   -1    0    0  501  502 -0.00000000000E+00 -0.00000000000E+00 -0.48847911784E+03  0.48847911784E+03  0.00000000000E+00 0.  1.
      99926    2    1    2    0    0 -0.71054273576E-14  0.00000000000E+00 -0.38483119330E+03  0.59212704238E+03  0.45002154058E+03 0.  0.
      99925    2    3    3    0    0  0.62103016408E+02 -0.88609641347E+02 -0.25013770336E+03  0.37882374302E+03  0.26311614251E+03 0.  0.
         25    1    4    4    0    0  0.65740190039E+02 -0.22964958653E+02 -0.12784900264E+03  0.19194279744E+03  0.12509000000E+03 0.  0.
         25    1    4    4    0    0 -0.36371736310E+01 -0.65644682693E+02 -0.12228870072E+03  0.18688094558E+03  0.12509000000E+03 0.  0.
         25    1    3    3    0    0 -0.62103016408E+02  0.88609641347E+02 -0.13469348994E+03  0.21330329936E+03  0.12509000000E+03 0.  0.
<mgrwt>
<rscale>  2 0.45002154E+03</rscale>
<asrwt>0</asrwt>
<pdfrwt beam="1">  1       21 0.15242342E-01 0.45002154E+03</pdfrwt>
<pdfrwt beam="2">  1       21 0.71835165E-01 0.45002154E+03</pdfrwt>
<totfact> 0.61551690E+04</totfact>
</mgrwt>
</event>
<event>
 7    0  0.4705418E-002  0.4544369E+03  0.7546771E-02  0.1026407E+00
         21   -1    0    0  502  501  0.00000000000E+00  0.00000000000E+00  0.47918602921E+03  0.47918602921E+03  0.00000000000E+00 0.  1.
         21   -1    0    0  501  502 -0.00000000000E+00 -0.00000000000E+00 -0.10774150834E+03  0.10774150834E+03  0.00000000000E+00 0.  1.
      99926    2    1    2    0    0  0.88817841970E-15  0.00000000000E+00  0.37144452087E+03  0.58692753755E+03  0.45443690679E+03 0.  0.
      99925    2    3    3    0    0  0.53637895993E+01 -0.30048675241E+02  0.37388640277E+03  0.45814413796E+03  0.26300820491E+03 0.  0.
         25    1    4    4    0    0 -0.26731186786E+02 -0.31770322680E+02  0.15001824513E+03  0.19969199213E+03  0.12509000000E+03 0.  0.
         25    1    4    4    0    0  0.32094976385E+02  0.17216474392E+01  0.22386815764E+03  0.25845214583E+03  0.12509000000E+03 0.  0.
         25    1    3    3    0    0 -0.53637895993E+01  0.30048675241E+02 -0.24418818963E+01  0.12878339959E+03  0.12509000000E+03 0.  0.
<mgrwt>
<rscale>  2 0.45443691E+03</rscale>
<asrwt>0</asrwt>
<pdfrwt beam="1">  1       21 0.70468533E-01 0.45443691E+03</pdfrwt>
<pdfrwt beam="2">  1       21 0.15844340E-01 0.45443691E+03</pdfrwt>
<totfact> 0.59755728E+04</totfact>
</mgrwt>
</event>
<event>
 7    0  0.4705418E-002  0.4478546E+03  0.7546771E-02  0.1028364E+00
         21   -1    0    0  502  501  0.00000000000E+00  0.00000000000E+00  0.37368269594E+03  0.37368269594E+03  0.00000000000E+00 0. -1.
         21   -1    0    0  501  502 -0.00000000000E+00 -0.00000000000E+00 -0.13418719362E+03  0.13418719362E+03  0.00000000000E+00 0. -1.
      99926    2    1    2    0    0  0.17763568394E-14  0.14210854715E-13  0.23949550233E+03  0.50786988956E+03  0.44785458476E+03 0.  0.
      99925    2    3    3    0    0 -0.14764882017E+02 -0.99015956471E+02  0.19236690207E+03  0.34086457695E+03  0.26298569054E+03 0.  0.
         25    1    4    4    0    0 -0.46630582164E+02 -0.57576713144E+02  0.90045414514E+02  0.17101220385E+03  0.12509000000E+03 0.  0.
         25    1    3    3    0    0  0.14764882017E+02  0.99015956471E+02  0.47128600251E+02  0.16700531261E+03  0.12509000000E+03 0.  0.
         25    1    4    4    0    0  0.31865700148E+02 -0.41439243327E+02  0.10232148756E+03  0.16985237311E+03  0.12509000000E+03 0.  0.
<mgrwt>
<rscale>  2 0.44785458E+03</rscale>
<asrwt>0</asrwt>
<pdfrwt beam="1">  1       21 0.54953337E-01 0.44785458E+03</pdfrwt>
<pdfrwt beam="2">  1       21 0.19733411E-01 0.44785458E+03</pdfrwt>
<totfact> 0.68525278E+04</totfact>
</mgrwt>
</event>
<event>
 7    0  0.4705418E-002  0.4543107E+03  0.7546771E-02  0.1026444E+00
         21   -1    0    0  502  501  0.00000000000E+00  0.00000000000E+00  0.25011215252E+02  0.25011215252E+02  0.00000000000E+00 0.  1.
         21   -1    0    0  501  502 -0.00000000000E+00 -0.00000000000E+00 -0.20630566029E+04  0.20630566029E+04  0.00000000000E+00 0.  1.
      99926    2    1    2    0    0 -0.14210854715E-13  0.00000000000E+00 -0.20380453876E+04  0.20880678181E+04  0.45431069885E+03 0.  0.
      99925    2    3    3    0    0 -0.74240947353E+02 -0.64891957039E+02 -0.15277012847E+04  0.15534452449E+04  0.26381476300E+03 0.  0.
         25    1    3    3    0    0  0.74240947353E+02  0.64891957039E+02 -0.51034410294E+03  0.53462257328E+03  0.12509000000E+03 0.  0.
         25    1    4    4    0    0 -0.39404112843E+02  0.74281866176E+01 -0.80103889889E+03  0.81173806594E+03  0.12509000000E+03 0.  0.
         25    1    4    4    0    0 -0.34836834510E+02 -0.72320143657E+02 -0.72666238581E+03  0.74170717893E+03  0.12509000000E+03 0.  0.
<mgrwt>
<rscale>  2 0.45431070E+03</rscale>
<asrwt>0</asrwt>
<pdfrwt beam="1">  1       21 0.36781187E-02 0.45431070E+03</pdfrwt>
<pdfrwt beam="2">  1       21 0.30339078E+00 0.45431070E+03</pdfrwt>
<totfact> 0.12390943E+04</totfact>
</mgrwt>
</event>
<event>
 7    0  0.4705418E-002  0.4508574E+03  0.7546771E-02  0.1027467E+00
         21   -1    0    0  502  501  0.00000000000E+00  0.00000000000E+00  0.20010901904E+03  0.20010901904E+03  0.00000000000E+00 0.  1.
         21   -1    0    0  501  502 -0.00000000000E+00 -0.00000000000E+00 -0.25395208376E+03  0.25395208376E+03  0.00000000000E+00 0.  1.
      99926    2    1    2    0    0  0.00000000000E+00 -0.71054273576E-14 -0.53843064717E+02  0.45406110280E+03  0.45085741588E+03 0.  0.
      99925    2    3    3    0    0 -0.99366714171E+02  0.35125841941E+02 -0.11166275960E+02  0.28501559101E+03  0.26457821668E+03 0.  0.
         25    1    4    4    0    0 -0.19280101992E+02  0.48168489481E+02  0.89692713758E+00  0.13542613592E+03  0.12509000000E+03 0.  0.
         25    1    3    3    0    0  0.99366714171E+02 -0.35125841941E+02 -0.42676788757E+02  0.16904551179E+03  0.12509000000E+03 0.  0.
         25    1    4    4    0    0 -0.80086612179E+02 -0.13042647541E+02 -0.12063203098E+02  0.14958945509E+03  0.12509000000E+03 0.  0.
<mgrwt>
<rscale>  2 0.45085742E+03</rscale>
<asrwt>0</asrwt>
<pdfrwt beam="1">  1       21 0.29427797E-01 0.45085742E+03</pdfrwt>
<pdfrwt beam="2">  1       21 0.37345894E-01 0.45085742E+03</pdfrwt>
<totfact> 0.70930004E+04</totfact>
</mgrwt>
</event>
<event>
 7    0  0.4705418E-002  0.4540875E+03  0.7546771E-02  0.1026510E+00
         21   -1    0    0  502  501  0.00000000000E+00  0.00000000000E+00  0.19598708446E+04  0.19598708446E+04  0.00000000000E+00 0. -1.
         21   -1    0    0  501  502 -0.00000000000E+00 -0.00000000000E+00 -0.26302174539E+02  0.26302174539E+02  0.00000000000E+00 0. -1.
      99926    2    1    2    0    0  0.00000000000E+00  0.00000000000E+00  0.19335686701E+04  0.19861730192E+04  0.45408750271E+03 0.  0.
      99925    2    3    3    0    0 -0.23527311954E+02  0.64340530807E+02  0.82849140253E+03  0.87193044518E+03  0.26300467458E+03 0.  0.
         25    1    4    4    0    0 -0.51366211857E+02  0.24181121127E+02  0.40628797382E+03  0.42888301448E+03  0.12509000000E+03 0.  0.
         25    1    3    3    0    0  0.23527311954E+02 -0.64340530807E+02  0.11050772676E+04  0.11142425740E+04  0.12509000000E+03 0.  0.
         25    1    4    4    0    0  0.27838899903E+02  0.40159409679E+02  0.42220342872E+03  0.44304743070E+03  0.12509000000E+03 0.  0.
<mgrwt>
<rscale>  2 0.45408750E+03</rscale>
<asrwt>0</asrwt>
<pdfrwt beam="1">  1       21 0.28821620E+00 0.45408750E+03</pdfrwt>
<pdfrwt beam="2">  1       21 0.38679682E-02 0.45408750E+03</pdfrwt>
<totfact> 0.14035954E+04</totfact>
</mgrwt>
</event>
<event>
 7    0  0.4705418E-002  0.4500944E+03  0.7546771E-02  0.1027694E+00
         21   -1    0    0  502  501  0.00000000000E+00  0.00000000000E+00  0.43869986561E+03  0.43869986561E+03  0.00000000000E+00 0.  1.
         21   -1    0    0  501  502 -0.00000000000E+00 -0.00000000000E+00 -0.11544620357E+03  0.11544620357E+03  0.00000000000E+00 0.  1.
      99926    2    1    2    0    0  0.00000000000E+00  0.00000000000E+00  0.32325366204E+03  0.55414606918E+03  0.45009436340E+03 0.  0.
      99925    2    3    3    0    0  0.27650817049E+02  0.74362034204E+02  0.29516272605E+03  0.40337840488E+03  0.26324669582E+03 0.  0.
         25    1    4    4    0    0  0.40904226164E+02  0.14488444001E+02  0.17471337335E+03  0.21921528609E+03  0.12509000000E+03 0.  0.
         25    1    3    3    0    0 -0.27650817049E+02 -0.74362034204E+02  0.28090935997E+02  0.15076766430E+03  0.12509000000E+03 0.  0.
         25    1    4    4    0    0 -0.13253409115E+02  0.59873590203E+02  0.12044935270E+03  0.18416311879E+03  0.12509000000E+03 0.  0.
<mgrwt>
<rscale>  2 0.45009436E+03</rscale>
<asrwt>0</asrwt>
<pdfrwt beam="1">  1       21 0.64514686E-01 0.45009436E+03</pdfrwt>
<pdfrwt beam="2">  1       21 0.16977383E-01 0.45009436E+03</pdfrwt>
<totfact> 0.64042816E+04</totfact>
</mgrwt>
</event>
<event>
 7    0  0.4705418E-002  0.4565790E+03  0.7546771E-02  0.1025778E+00
         21   -1    0    0  502  501  0.00000000000E+00  0.00000000000E+00  0.34099524964E+03  0.34099524964E+03  0.00000000000E+00 0. -1.
         21   -1    0    0  501  502 -0.00000000000E+00 -0.00000000000E+00 -0.15283525456E+03  0.15283525456E+03  0.00000000000E+00 0. -1.
      99926    2    1    2    0    0  0.00000000000E+00  0.00000000000E+00  0.18815999508E+03  0.49383050420E+03  0.45657899988E+03 0.  0.
      99925    2    3    3    0    0  0.20867547397E+02  0.10783668811E+03  0.15365530249E+03  0.32382377566E+03  0.26303551065E+03 0.  0.
         25    1    4    4    0    0  0.20838668500E+02  0.24319727127E+02  0.39597186011E+02  0.13505978111E+03  0.12509000000E+03 0.  0.
         25    1    3    3    0    0 -0.20867547397E+02 -0.10783668811E+03  0.34504692585E+02  0.17000672854E+03  0.12509000000E+03 0.  0.
         25    1    4    4    0    0  0.28878896652E-01  0.83516960983E+02  0.11405811648E+03  0.18876399456E+03  0.12509000000E+03 0.  0.
<mgrwt>
<rscale>  2 0.45657900E+03</rscale>
<asrwt>0</asrwt>
<pdfrwt beam="1">  1       21 0.50146360E-01 0.45657900E+03</pdfrwt>
<pdfrwt beam="2">  1       21 0.22475773E-01 0.45657900E+03</pdfrwt>
<totfact> 0.64889077E+04</totfact>
</mgrwt>
</event>
<event>
 7    0  0.4705418E-002  0.4587118E+03  0.7546771E-02  0.1025155E+00
         21   -1    0    0  502  501  0.00000000000E+00  0.00000000000E+00  0.65778323190E+03  0.65778323190E+03  0.00000000000E+00 0.  1.
         21   -1    0    0  501  502 -0.00000000000E+00 -0.00000000000E+00 -0.79971836037E+02  0.79971836037E+02  0.00000000000E+00 0.  1.
      99926    2    1    2    0    0  0.00000000000E+00  0.00000000000E+00  0.57781139586E+03  0.73775506794E+03  0.45871181703E+03 0.  0.
      99925    2    3    3    0    0 -0.87229678752E+02  0.19871787957E+02  0.24224405766E+03  0.36862521087E+03  0.26305599747E+03 0.  0.
         25    1    3    3    0    0  0.87229678752E+02 -0.19871787957E+02  0.33556733821E+03  0.36912985707E+03  0.12509000000E+03 0.  0.
         25    1    4    4    0    0 -0.46234337479E+02  0.29757713179E+02  0.17011841089E+03  0.21819926050E+03  0.12509000000E+03 0.  0.
         25    1    4    4    0    0 -0.40995341273E+02 -0.98859252213E+01  0.72125646763E+02  0.15042595037E+03  0.12509000000E+03 0.  0.
<mgrwt>
<rscale>  2 0.45871182E+03</rscale>
<asrwt>0</asrwt>
<pdfrwt beam="1">  1       21 0.96732825E-01 0.45871182E+03</pdfrwt>
<pdfrwt beam="2">  1       21 0.11760565E-01 0.45871182E+03</pdfrwt>
<totfact> 0.49441885E+04</totfact>
</mgrwt>
</event>
<event>
 7    0  0.4705418E-002  0.4332301E+03  0.7546771E-02  0.1032844E+00
         21   -1    0    0  502  501  0.00000000000E+00  0.00000000000E+00  0.17037742742E+03  0.17037742742E+03  0.00000000000E+00 0. -1.
         21   -1    0    0  501  502 -0.00000000000E+00 -0.00000000000E+00 -0.27540080859E+03  0.27540080859E+03  0.00000000000E+00 0. -1.
      99926    2    1    2    0    0 -0.42188474936E-14  0.14210854715E-13 -0.10502338117E+03  0.44577823601E+03  0.43323010642E+03 0.  0.
      99925    2    3    3    0    0 -0.14934597855E+01 -0.89432141556E+02 -0.49805083820E+02  0.28238635485E+03  0.26317516727E+03 0.  0.
         25    1    4    4    0    0 -0.32027971499E+02 -0.65141634090E+02 -0.80081629223E+01  0.14484772081E+03  0.12509000000E+03 0.  0.
         25    1    4    4    0    0  0.30534511714E+02 -0.24290507465E+02 -0.41796920898E+02  0.13753863405E+03  0.12509000000E+03 0.  0.
         25    1    3    3    0    0  0.14934597855E+01  0.89432141556E+02 -0.55218297351E+02  0.16339188116E+03  0.12509000000E+03 0.  0.
<mgrwt>
<rscale>  2 0.43323011E+03</rscale>
<asrwt>0</asrwt>
<pdfrwt beam="1">  1       21 0.25055504E-01 0.43323011E+03</pdfrwt>
<pdfrwt beam="2">  1       21 0.40500118E-01 0.43323011E+03</pdfrwt>
<totfact> 0.82657215E+04</totfact>
</mgrwt>
</event>
<event>
 7    0  0.4705418E-002  0.4250059E+03  0.7546771E-02  0.1035449E+00
         21   -1    0    0  502  501  0.00000000000E+00  0.00000000000E+00  0.26123290200E+03  0.26123290200E+03  0.00000000000E+00 0. -1.
         21   -1    0    0  501  502 -0.00000000000E+00 -0.00000000000E+00 -0.17286296270E+03  0.17286296270E+03  0.00000000000E+00 0. -1.
      99926    2    1    2    0    0  0.00000000000E+00  0.88817841970E-15  0.88369939300E+02  0.43409586470E+03  0.42500585123E+03 0.  0.
      99925    2    3    3    0    0 -0.62416334964E+02 -0.16174699853E+01  0.11161673574E+03  0.29236959076E+03  0.26291304043E+03 0.  0.
         25    1    3    3    0    0  0.62416334964E+02  0.16174699853E+01 -0.23246796442E+02  0.14172627394E+03  0.12509000000E+03 0.  0.
         25    1    4    4    0    0 -0.27732417146E+02  0.14560673602E+02  0.95715851939E+02  0.16059306520E+03  0.12509000000E+03 0.  0.
         25    1    4    4    0    0 -0.34683917819E+02 -0.16178143588E+02  0.15900883803E+02  0.13177652557E+03  0.12509000000E+03 0.  0.
<mgrwt>
<rscale>  2 0.42500585E+03</rscale>
<asrwt>0</asrwt>
<pdfrwt beam="1">  1       21 0.38416603E-01 0.42500585E+03</pdfrwt>
<pdfrwt beam="2">  1       21 0.25421024E-01 0.42500585E+03</pdfrwt>
<totfact> 0.89715243E+04</totfact>
</mgrwt>
</event>
<event>
 7    0  0.4705418E-002  0.4523870E+03  0.7546771E-02  0.1027013E+00
         21   -1    0    0  502  501  0.00000000000E+00  0.00000000000E+00  0.15626252404E+03  0.15626252404E+03  0.00000000000E+00 0.  1.
         21   -1    0    0  501  502 -0.00000000000E+00 -0.00000000000E+00 -0.32742008173E+03  0.32742008173E+03  0.00000000000E+00 0.  1.
      99926    2    1    2    0    0  0.35527136788E-14  0.00000000000E+00 -0.17115755770E+03  0.48368260577E+03  0.45238695115E+03 0.  0.
      99925    2    3    3    0    0 -0.20361624048E+02 -0.10859714425E+03 -0.10218993548E+03  0.30309474215E+03  0.26308877653E+03 0.  0.
         25    1    4    4    0    0 -0.41788958719E+02 -0.35875369114E+02 -0.29790096772E+02  0.13988680118E+03  0.12509000000E+03 0.  0.
         25    1    3    3    0    0  0.20361624048E+02  0.10859714425E+03 -0.68967622214E+02  0.18058786362E+03  0.12509000000E+03 0.  0.
         25    1    4    4    0    0  0.21427334671E+02 -0.72721775134E+02 -0.72399838709E+02  0.16320794097E+03  0.12509000000E+03 0.  0.
<mgrwt>
<rscale>  2 0.45238695E+03</rscale>
<asrwt>0</asrwt>
<pdfrwt beam="1">  1       21 0.22979783E-01 0.45238695E+03</pdfrwt>
<pdfrwt beam="2">  1       21 0.48150011E-01 0.45238695E+03</pdfrwt>
<totfact> 0.67829122E+04</totfact>
</mgrwt>
</event>
<event>
 7    0  0.4705418E-002  0.4632545E+03  0.7546771E-02  0.1023842E+00
         21   -1    0    0  502  501  0.00000000000E+00  0.00000000000E+00  0.19010765518E+03  0.19010765518E+03  0.00000000000E+00 0.  1.
         21   -1    0    0  501  502 -0.00000000000E+00 -0.00000000000E+00 -0.28221476960E+03  0.28221476960E+03  0.00000000000E+00 0.  1.
      99926    2    1    2    0    0  0.00000000000E+00 -0.33306690739E-14 -0.92107114416E+02  0.47232242477E+03  0.46325452229E+03 0.  0.
      99925    2    3    3    0    0  0.11905132343E+03 -0.10774529923E+01 -0.70812263059E+02  0.29832427160E+03  0.26421320162E+03 0.  0.
         25    1    4    4    0    0  0.53066477693E+02  0.39651460438E+02 -0.21883163554E+02  0.14322943244E+03  0.12509000000E+03 0.  0.
         25    1    3    3    0    0 -0.11905132343E+03  0.10774529923E+01 -0.21294851357E+02  0.17399815318E+03  0.12509000000E+03 0.  0.
         25    1    4    4    0    0  0.65984845732E+02 -0.40728913430E+02 -0.48929099505E+02  0.15509483916E+03  0.12509000000E+03 0.  0.
<mgrwt>
<rscale>  2 0.46325452E+03</rscale>
<asrwt>0</asrwt>
<pdfrwt beam="1">  1       21 0.27957009E-01 0.46325452E+03</pdfrwt>
<pdfrwt beam="2">  1       21 0.41502171E-01 0.46325452E+03</pdfrwt>
<totfact> 0.63031541E+04</totfact>
</mgrwt>
</event>
<event>
 7    0  0.4705418E-002  0.4530167E+03  0.7546771E-02  0.1026826E+00
         21   -1    0    0  502  501  0.00000000000E+00  0.00000000000E+00  0.20136284459E+03  0.20136284459E+03  0.00000000000E+00 0. -1.
         21   -1    0    0  501  502 -0.00000000000E+00 -0.00000000000E+00 -0.25479389727E+03  0.25479389727E+03  0.00000000000E+00 0. -1.
      99926    2    1    2    0    0  0.14210854715E-13  0.44408920985E-15 -0.53431052679E+02  0.45615674186E+03  0.45301666168E+03 0.  0.
      99925    2    3    3    0    0 -0.10158518815E+03  0.32433422568E+01  0.11452285781E+02  0.28241145292E+03  0.26323944266E+03 0.  0.
         25    1    4    4    0    0 -0.29016452687E+02 -0.11335958545E+02 -0.27760779332E+02  0.13186594500E+03  0.12509000000E+03 0.  0.
         25    1    3    3    0    0  0.10158518815E+03 -0.32433422568E+01 -0.64883338460E+02  0.17374528894E+03  0.12509000000E+03 0.  0.
         25    1    4    4    0    0 -0.72568735461E+02  0.14579300802E+02  0.39213065113E+02  0.15054550792E+03  0.12509000000E+03 0.  0.
<mgrwt>
<rscale>  2 0.45301666E+03</rscale>
<asrwt>0</asrwt>
<pdfrwt beam="1">  1       21 0.29612183E-01 0.45301666E+03</pdfrwt>
<pdfrwt beam="2">  1       21 0.37469691E-01 0.45301666E+03</pdfrwt>
<totfact> 0.69555164E+04</totfact>
</mgrwt>
</event>
<event>
 7    0  0.4705418E-002  0.4538040E+03  0.7546771E-02  0.1026594E+00
         21   -1    0    0  502  501  0.00000000000E+00  0.00000000000E+00  0.77324736572E+02  0.77324736572E+02  0.00000000000E+00 0. -1.
         21   -1    0    0  501  502 -0.00000000000E+00 -0.00000000000E+00 -0.66582201716E+03  0.66582201716E+03  0.00000000000E+00 0. -1.
      99926    2    1    2    0    0  0.00000000000E+00  0.00000000000E+00 -0.58849728059E+03  0.74314675373E+03  0.45380397566E+03 0.  0.
      99925    2    3    3    0    0 -0.56072810474E+02  0.54673200466E+02 -0.50199869836E+03  0.57208293011E+03  0.26295031251E+03 0.  0.
         25    1    4    4    0    0 -0.24098966891E+02  0.22041129515E+02 -0.16424057206E+03  0.20901924602E+03  0.12509000000E+03 0.  0.
         25    1    3    3    0    0  0.56072810474E+02 -0.54673200466E+02 -0.86498582230E+02  0.17106382362E+03  0.12509000000E+03 0.  0.
         25    1    4    4    0    0 -0.31973843583E+02  0.32632070950E+02 -0.33775812630E+03  0.36306368409E+03  0.12509000000E+03 0.  0.
<mgrwt>
<rscale>  2 0.45380398E+03</rscale>
<asrwt>0</asrwt>
<pdfrwt beam="1">  1       21 0.11371285E-01 0.45380398E+03</pdfrwt>
<pdfrwt beam="2">  1       21 0.97915000E-01 0.45380398E+03</pdfrwt>
<totfact> 0.51100924E+04</totfact>
</mgrwt>
</event>
<event>
 7    0  0.4705418E-002  0.4589954E+03  0.7546771E-02  0.1025073E+00
         21   -1    0    0  502  501  0.00000000000E+00  0.00000000000E+00  0.80121623134E+02  0.80121623134E+02  0.00000000000E+00 0.  1.
         21   -1    0    0  501  502 -0.00000000000E+00 -0.00000000000E+00 -0.65736557050E+03  0.65736557050E+03  0.00000000000E+00 0.  1.
      99926    2    1    2    0    0  0.00000000000E+00 -0.71054273576E-14 -0.57724394736E+03  0.73748719363E+03  0.45899540957E+03 0.  0.
      99925    2    3    3    0    0  0.68500476194E+02 -0.47437219993E+02 -0.23017729549E+03  0.35927379617E+03  0.26297047016E+03 0.  0.
         25    1    4    4    0    0  0.31383310240E+02 -0.56495853868E+02 -0.87763147275E+02  0.16591133712E+03  0.12509000000E+03 0.  0.
         25    1    3    3    0    0 -0.68500476194E+02  0.47437219993E+02 -0.34706665187E+03  0.37821339746E+03  0.12509000000E+03 0.  0.
         25    1    4    4    0    0  0.37117165954E+02  0.90586338746E+01 -0.14241414822E+03  0.19336245905E+03  0.12509000000E+03 0.  0.
<mgrwt>
<rscale>  2 0.45899541E+03</rscale>
<asrwt>0</asrwt>
<pdfrwt beam="1">  1       21 0.11782592E-01 0.45899541E+03</pdfrwt>
<pdfrwt beam="2">  1       21 0.96671407E-01 0.45899541E+03</pdfrwt>
<totfact> 0.49346038E+04</totfact>
</mgrwt>
</event>
<event>
 7    0  0.4705418E-002  0.4473734E+03  0.7546771E-02  0.1028508E+00
         21   -1    0    0  502  501  0.00000000000E+00  0.00000000000E+00  0.39673087960E+03  0.39673087960E+03  0.00000000000E+00 0. -1.
         21   -1    0    0  501  502 -0.00000000000E+00 -0.00000000000E+00 -0.12612010382E+03  0.12612010382E+03  0.00000000000E+00 0. -1.
      99926    2    1    2    0    0  0.00000000000E+00  0.71054273576E-14  0.27061077578E+03  0.52285098342E+03  0.44737339985E+03 0.  0.
      99925    2    3    3    0    0  0.30227253055E+02  0.61159221086E+02  0.76873497306E+02  0.28236028023E+03  0.26298984032E+03 0.  0.
         25    1    3    3    0    0 -0.30227253055E+02 -0.61159221086E+02  0.19373727847E+03  0.24049070319E+03  0.12509000000E+03 0.  0.
         25    1    4    4    0    0  0.45235804588E+02  0.54450082331E+01  0.26902495348E+02  0.13582039054E+03  0.12509000000E+03 0.  0.
         25    1    4    4    0    0 -0.15008551532E+02  0.55714212853E+02  0.49971001958E+02  0.14653988969E+03  0.12509000000E+03 0.  0.
<mgrwt>
<rscale>  2 0.44737340E+03</rscale>
<asrwt>0</asrwt>
<pdfrwt beam="1">  1       21 0.58342776E-01 0.44737340E+03</pdfrwt>
<pdfrwt beam="2">  1       21 0.18547074E-01 0.44737340E+03</pdfrwt>
<totfact> 0.67692729E+04</totfact>
</mgrwt>
</event>
<event>
 7    0  0.4705418E-002  0.4608336E+03  0.7546771E-02  0.1024540E+00
         21   -1    0    0  502  501  0.00000000000E+00  0.00000000000E+00  0.33146519296E+03  0.33146519296E+03  0.00000000000E+00 0.  1.
         21   -1    0    0  501  502 -0.00000000000E+00 -0.00000000000E+00 -0.16017338579E+03  0.16017338579E+03  0.00000000000E+00 0.  1.
      99926    2    1    2    0    0  0.00000000000E+00  0.00000000000E+00  0.17129180717E+03  0.49163857875E+03  0.46083360220E+03 0.  0.
      99925    2    3    3    0    0 -0.78187362919E+02  0.39979883059E+02  0.22316133380E+02  0.27820729180E+03  0.26303922261E+03 0.  0.
         25    1    3    3    0    0  0.78187362919E+02 -0.39979883059E+02  0.14897567379E+03  0.21343128696E+03  0.12509000000E+03 0.  0.
         25    1    4    4    0    0 -0.61701499161E+02  0.49372545806E+02 -0.77501978256E+01  0.14816307551E+03  0.12509000000E+03 0.  0.
         25    1    4    4    0    0 -0.16485863757E+02 -0.93926627467E+01  0.30066331206E+02  0.13004421629E+03  0.12509000000E+03 0.  0.
<mgrwt>
<rscale>  2 0.46083360E+03</rscale>
<asrwt>0</asrwt>
<pdfrwt beam="1">  1       21 0.48744881E-01 0.46083360E+03</pdfrwt>
<pdfrwt beam="2">  1       21 0.23554910E-01 0.46083360E+03</pdfrwt>
<totfact> 0.62898436E+04</totfact>
</mgrwt>
</event>
<event>
 7    0  0.4705418E-002  0.4540078E+03  0.7546771E-02  0.1026534E+00
         21   -1    0    0  502  501  0.00000000000E+00  0.00000000000E+00  0.75560066237E+03  0.75560066237E+03  0.00000000000E+00 0. -1.
         21   -1    0    0  501  502 -0.00000000000E+00 -0.00000000000E+00 -0.68198412653E+02  0.68198412653E+02  0.00000000000E+00 0. -1.
      99926    2    1    2    0    0  0.00000000000E+00  0.00000000000E+00  0.68740224971E+03  0.82379907502E+03  0.45400777867E+03 0.  0.
      99925    2    3    3    0    0 -0.69433294245E+02  0.48406419529E+02  0.56635048470E+03  0.63023977735E+03  0.26322070898E+03 0.  0.
         25    1    4    4    0    0 -0.21310178867E+02  0.63007536750E+02  0.28994644084E+03  0.32270810351E+03  0.12509000000E+03 0.  0.
         25    1    3    3    0    0  0.69433294245E+02 -0.48406419529E+02  0.12105176502E+03  0.19355929767E+03  0.12509000000E+03 0.  0.
         25    1    4    4    0    0 -0.48123115378E+02 -0.14601117220E+02  0.27640404385E+03  0.30753167384E+03  0.12509000000E+03 0.  0.
<mgrwt>
<rscale>  2 0.45400778E+03</rscale>
<asrwt>0</asrwt>
<pdfrwt beam="1">  1       21 0.11111774E+00 0.45400778E+03</pdfrwt>
<pdfrwt beam="2">  1       21 0.10029179E-01 0.45400778E+03</pdfrwt>
<totfact> 0.46999978E+04</totfact>
</mgrwt>
</event>
<event>
 7    0  0.4705418E-002  0.4660665E+03  0.7546771E-02  0.1023036E+00
         21   -1    0    0  502  501  0.00000000000E+00  0.00000000000E+00  0.21763880202E+03  0.21763880202E+03  0.00000000000E+00 0. -1.
         21   -1    0    0  501  502 -0.00000000000E+00 -0.00000000000E+00 -0.24951661295E+03  0.24951661295E+03  0.00000000000E+00 0. -1.
      99926    2    1    2    0    0  0.00000000000E+00  0.00000000000E+00 -0.31877810931E+02  0.46715541497E+03  0.46606650481E+03 0.  0.
      99925    2    3    3    0    0 -0.68767352926E+02 -0.10032844991E+03 -0.39937536774E+02  0.29249227069E+03  0.26298664392E+03 0.  0.
         25    1    4    4    0    0 -0.44550397260E+00 -0.23151033222E+02 -0.25677328064E+02  0.12978059211E+03  0.12509000000E+03 0.  0.
         25    1    4    4    0    0 -0.68321848954E+02 -0.77177416692E+02 -0.14260208710E+02  0.16271167857E+03  0.12509000000E+03 0.  0.
         25    1    3    3    0    0  0.68767352926E+02  0.10032844991E+03  0.80597258426E+01  0.17466314428E+03  0.12509000000E+03 0.  0.
<mgrwt>
<rscale>  2 0.46606650E+03</rscale>
<asrwt>0</asrwt>
<pdfrwt beam="1">  1       21 0.32005706E-01 0.46606650E+03</pdfrwt>
<pdfrwt beam="2">  1       21 0.36693619E-01 0.46606650E+03</pdfrwt>
<totfact> 0.62005866E+04</totfact>
</mgrwt>
</event>
<event>
 7    0  0.4705418E-002  0.4207218E+03  0.7546771E-02  0.1036832E+00
         21   -1    0    0  502  501  0.00000000000E+00  0.00000000000E+00  0.78102076554E+02  0.78102076554E+02  0.00000000000E+00 0.  1.
         21   -1    0    0  501  502 -0.00000000000E+00 -0.00000000000E+00 -0.56658806770E+03  0.56658806770E+03  0.00000000000E+00 0.  1.
      99926    2    1    2    0    0 -0.71054273576E-14  0.35527136788E-14 -0.48848599115E+03  0.64469014425E+03  0.42072178284E+03 0.  0.
      99925    2    3    3    0    0 -0.59389068058E+02  0.17595084978E+02 -0.24839613806E+03  0.36697213246E+03  0.26292823389E+03 0.  0.
         25    1    4    4    0    0 -0.33731414662E+02 -0.89304068916E+01 -0.17302498129E+03  0.21633934629E+03  0.12509000000E+03 0.  0.
         25    1    4    4    0    0 -0.25657653397E+02  0.26525491869E+02 -0.75371156770E+02  0.15063278617E+03  0.12509000000E+03 0.  0.
         25    1    3    3    0    0  0.59389068058E+02 -0.17595084978E+02 -0.24008985309E+03  0.27771801179E+03  0.12509000000E+03 0.  0.
<mgrwt>
<rscale>  2 0.42072178E+03</rscale>
<asrwt>0</asrwt>
<pdfrwt beam="1">  1       21 0.11485599E-01 0.42072178E+03</pdfrwt>
<pdfrwt beam="2">  1       21 0.83321778E-01 0.42072178E+03</pdfrwt>
<totfact> 0.74093881E+04</totfact>
</mgrwt>
</event>
<event>
 7    0  0.4705418E-002  0.4504447E+03  0.7546771E-02  0.1027590E+00
         21   -1    0    0  502  501  0.00000000000E+00  0.00000000000E+00  0.13339362284E+03  0.13339362284E+03  0.00000000000E+00 0. -1.
         21   -1    0    0  501  502 -0.00000000000E+00 -0.00000000000E+00 -0.38026632105E+03  0.38026632105E+03  0.00000000000E+00 0. -1.
      99926    2    1    2    0    0 -0.14210854715E-13  0.88817841970E-15 -0.24687269821E+03  0.51365994389E+03  0.45044467899E+03 0.  0.
      99925    2    3    3    0    0 -0.72526397474E+02 -0.35455773777E+01 -0.63150773440E+02  0.27983543022E+03  0.26276833594E+03 0.  0.
         25    1    3    3    0    0  0.72526397474E+02  0.35455773777E+01 -0.18372192477E+03  0.23382451367E+03  0.12509000000E+03 0.  0.
         25    1    4    4    0    0 -0.83690199396E+01  0.27368149017E+02 -0.22667976585E+02  0.13030886899E+03  0.12509000000E+03 0.  0.
         25    1    4    4    0    0 -0.64157377534E+02 -0.30913726395E+02 -0.40482796855E+02  0.14952656123E+03  0.12509000000E+03 0.  0.
<mgrwt>
<rscale>  2 0.45044468E+03</rscale>
<asrwt>0</asrwt>
<pdfrwt beam="1">  1       21 0.19616709E-01 0.45044468E+03</pdfrwt>
<pdfrwt beam="2">  1       21 0.55921517E-01 0.45044468E+03</pdfrwt>
<totfact> 0.66699749E+04</totfact>
</mgrwt>
</event>
<event>
 7    0  0.4705418E-002  0.4508344E+03  0.7546771E-02  0.1027474E+00
         21   -1    0    0  502  501  0.00000000000E+00  0.00000000000E+00  0.16350742002E+04  0.16350742002E+04  0.00000000000E+00 0.  1.
         21   -1    0    0  501  502 -0.00000000000E+00 -0.00000000000E+00 -0.31076822429E+02  0.31076822429E+02  0.00000000000E+00 0.  1.
      99926    2    1    2    0    0  0.00000000000E+00 -0.35527136788E-14  0.16039973777E+04  0.16661510226E+04  0.45083438456E+03 0.  0.
      99925    2    3    3    0    0  0.57093769351E+02 -0.29549873973E+02  0.13397803049E+04  0.13668333599E+04  0.26284838718E+03 0.  0.
         25    1    4    4    0    0  0.10465620567E+02  0.16783817018E+02  0.53881278410E+03  0.55349611574E+03  0.12509000000E+03 0.  0.
         25    1    3    3    0    0 -0.57093769351E+02  0.29549873973E+02  0.26421707279E+03  0.29931766270E+03  0.12509000000E+03 0.  0.
         25    1    4    4    0    0  0.46628148784E+02 -0.46333690992E+02  0.80096752085E+03  0.81333724416E+03  0.12509000000E+03 0.  0.
<mgrwt>
<rscale>  2 0.45083438E+03</rscale>
<asrwt>0</asrwt>
<pdfrwt beam="1">  1       21 0.24045203E+00 0.45083438E+03</pdfrwt>
<pdfrwt beam="2">  1       21 0.45701221E-02 0.45083438E+03</pdfrwt>
<totfact> 0.20634789E+04</totfact>
</mgrwt>
</event>
<event>
 7    0  0.4705418E-002  0.4646085E+03  0.7546771E-02  0.1023453E+00
         21   -1    0    0  502  501  0.00000000000E+00  0.00000000000E+00  0.13041428596E+03  0.13041428596E+03  0.00000000000E+00 0. -1.
         21   -1    0    0  501  502 -0.00000000000E+00 -0.00000000000E+00 -0.41379867164E+03  0.41379867164E+03  0.00000000000E+00 0. -1.
      99926    2    1    2    0    0  0.00000000000E+00  0.00000000000E+00 -0.28338438568E+03  0.54421295760E+03  0.46460847299E+03 0.  0.
      99925    2    3    3    0    0 -0.53760537724E+02 -0.75349215694E+02 -0.84019071491E+02  0.29130638132E+03  0.26312070178E+03 0.  0.
         25    1    4    4    0    0 -0.57365854332E+02 -0.11119369517E+02 -0.47120285538E+02  0.14588458120E+03  0.12509000000E+03 0.  0.
         25    1    4    4    0    0  0.36053166081E+01 -0.64229846177E+02 -0.36898785952E+02  0.14542180013E+03  0.12509000000E+03 0.  0.
         25    1    3    3    0    0  0.53760537724E+02  0.75349215694E+02 -0.19936531419E+03  0.25290657628E+03  0.12509000000E+03 0.  0.
<mgrwt>
<rscale>  2 0.46460847E+03</rscale>
<asrwt>0</asrwt>
<pdfrwt beam="1">  1       21 0.19178571E-01 0.46460847E+03</pdfrwt>
<pdfrwt beam="2">  1       21 0.60852746E-01 0.46460847E+03</pdfrwt>
<totfact> 0.57731874E+04</totfact>
</mgrwt>
</event>
<event>
 7    0  0.4705418E-002  0.4634166E+03  0.7546771E-02  0.1023795E+00
         21   -1    0    0  502  501  0.00000000000E+00  0.00000000000E+00  0.40311976768E+03  0.40311976768E+03  0.00000000000E+00 0.  1.
         21   -1    0    0  501  502 -0.00000000000E+00 -0.00000000000E+00 -0.13318311688E+03  0.13318311688E+03  0.00000000000E+00 0.  1.
      99926    2    1    2    0    0  0.71054273576E-14  0.35527136788E-14  0.26993665080E+03  0.53630288456E+03  0.46341664682E+03 0.  0.
      99925    2    3    3    0    0 -0.19134332392E+02 -0.21021569029E+02  0.30457451927E+03  0.40342956492E+03  0.26302423276E+03 0.  0.
         25    1    4    4    0    0 -0.40102181270E+02 -0.30421337062E+02  0.18449866004E+03  0.22851894090E+03  0.12509000000E+03 0.  0.
         25    1    4    4    0    0  0.20967848878E+02  0.93997680330E+01  0.12007585923E+03  0.17491062402E+03  0.12509000000E+03 0.  0.
         25    1    3    3    0    0  0.19134332392E+02  0.21021569029E+02 -0.34637868479E+02  0.13287331964E+03  0.12509000000E+03 0.  0.
<mgrwt>
<rscale>  2 0.46341665E+03</rscale>
<asrwt>0</asrwt>
<pdfrwt beam="1">  1       21 0.59282319E-01 0.46341665E+03</pdfrwt>
<pdfrwt beam="2">  1       21 0.19585753E-01 0.46341665E+03</pdfrwt>
<totfact> 0.58762952E+04</totfact>
</mgrwt>
</event>
<event>
 7    0  0.4705418E-002  0.4501297E+03  0.7546771E-02  0.1027683E+00
         21   -1    0    0  502  501  0.00000000000E+00  0.00000000000E+00  0.59567524278E+02  0.59567524278E+02  0.00000000000E+00 0.  1.
         21   -1    0    0  501  502 -0.00000000000E+00 -0.00000000000E+00 -0.85036579129E+03  0.85036579129E+03  0.00000000000E+00 0.  1.
      99926    2    1    2    0    0  0.00000000000E+00  0.00000000000E+00 -0.79079826701E+03  0.90993331556E+03  0.45012969206E+03 0.  0.
      99925    2    3    3    0    0  0.77527633450E+02  0.65254584498E+02 -0.57911733072E+03  0.64399155195E+03  0.26282987177E+03 0.  0.
         25    1    4    4    0    0  0.78922242943E+02  0.43459140205E+02 -0.29747393838E+03  0.33504577212E+03  0.12509000000E+03 0.  0.
         25    1    4    4    0    0 -0.13946094927E+01  0.21795444293E+02 -0.28164339233E+03  0.30894577983E+03  0.12509000000E+03 0.  0.
         25    1    3    3    0    0 -0.77527633450E+02 -0.65254584498E+02 -0.21168093629E+03  0.26594176362E+03  0.12509000000E+03 0.  0.
<mgrwt>
<rscale>  2 0.45012969E+03</rscale>
<asrwt>0</asrwt>
<pdfrwt beam="1">  1       21 0.87599301E-02 0.45012969E+03</pdfrwt>
<pdfrwt beam="2">  1       21 0.12505379E+00 0.45012969E+03</pdfrwt>
<totfact> 0.44478019E+04</totfact>
</mgrwt>
</event>
<event>
 7    0  0.4705418E-002  0.4553731E+03  0.7546771E-02  0.1026132E+00
         21   -1    0    0  502  501  0.00000000000E+00  0.00000000000E+00  0.18903916051E+03  0.18903916051E+03  0.00000000000E+00 0. -1.
         21   -1    0    0  501  502 -0.00000000000E+00 -0.00000000000E+00 -0.27423509108E+03  0.27423509108E+03  0.00000000000E+00 0. -1.
      99926    2    1    2    0    0  0.35527136788E-14  0.14210854715E-13 -0.85195930571E+02  0.46327425159E+03  0.45537312789E+03 0.  0.
      99925    2    3    3    0    0  0.10961630306E+02 -0.68679964716E+02 -0.14488236083E+03  0.30820306488E+03  0.26298504868E+03 0.  0.
         25    1    3    3    0    0 -0.10961630306E+02  0.68679964716E+02  0.59686430262E+02  0.15507118672E+03  0.12509000000E+03 0.  0.
         25    1    4    4    0    0 -0.29787783239E+02 -0.45775747688E+02 -0.54595617468E+02  0.14700653269E+03  0.12509000000E+03 0.  0.
         25    1    4    4    0    0  0.40749413545E+02 -0.22904217029E+02 -0.90286743364E+02  0.16119653219E+03  0.12509000000E+03 0.  0.
<mgrwt>
<rscale>  2 0.45537313E+03</rscale>
<asrwt>0</asrwt>
<pdfrwt beam="1">  1       21 0.27799877E-01 0.45537313E+03</pdfrwt>
<pdfrwt beam="2">  1       21 0.40328690E-01 0.45537313E+03</pdfrwt>
<totfact> 0.67737315E+04</totfact>
</mgrwt>
</event>
<event>
 7    0  0.4705418E-002  0.4531770E+03  0.7546771E-02  0.1026779E+00
         21   -1    0    0  502  501  0.00000000000E+00  0.00000000000E+00  0.17511610506E+03  0.17511610506E+03  0.00000000000E+00 0.  1.
         21   -1    0    0  501  502 -0.00000000000E+00 -0.00000000000E+00 -0.29319027598E+03  0.29319027598E+03  0.00000000000E+00 0.  1.
      99926    2    1    2    0    0  0.00000000000E+00  0.00000000000E+00 -0.11807417092E+03  0.46830638104E+03  0.45317695957E+03 0.  0.
      99925    2    3    3    0    0 -0.85708757081E+02  0.69631207338E+02 -0.90926693716E+02  0.29925316547E+03  0.26285033259E+03 0.  0.
         25    1    3    3    0    0  0.85708757081E+02 -0.69631207338E+02 -0.27147477207E+02  0.16905321557E+03  0.12509000000E+03 0.  0.
         25    1    4    4    0    0 -0.29079866206E+02  0.14120985372E+02 -0.78516401691E+01  0.12943800524E+03  0.12509000000E+03 0.  0.
         25    1    4    4    0    0 -0.56628890875E+02  0.55510221967E+02 -0.83075053547E+02  0.16981516024E+03  0.12509000000E+03 0.  0.
<mgrwt>
<rscale>  2 0.45317696E+03</rscale>
<asrwt>0</asrwt>
<pdfrwt beam="1">  1       21 0.25752369E-01 0.45317696E+03</pdfrwt>
<pdfrwt beam="2">  1       21 0.43116216E-01 0.45317696E+03</pdfrwt>
<totfact> 0.68547881E+04</totfact>
</mgrwt>
</event>
<event>
 7    0  0.4705418E-002  0.4490772E+03  0.7546771E-02  0.1027998E+00
         21   -1    0    0  502  501  0.00000000000E+00  0.00000000000E+00  0.27323977813E+03  0.27323977813E+03  0.00000000000E+00 0.  1.
         21   -1    0    0  501  502 -0.00000000000E+00 -0.00000000000E+00 -0.18451771719E+03  0.18451771719E+03  0.00000000000E+00 0.  1.
      99926    2    1    2    0    0  0.00000000000E+00  0.14210854715E-13  0.88722060939E+02  0.45775749532E+03  0.44907718760E+03 0.  0.
      99925    2    3    3    0    0  0.46031551841E+02  0.85971195659E+02  0.10203034962E+03  0.29858912881E+03  0.26312606362E+03 0.  0.
         25    1    4    4    0    0  0.41418462208E+02  0.66678980534E+02  0.86081325474E+02  0.17093588901E+03  0.12509000000E+03 0.  0.
         25    1    4    4    0    0  0.46130896323E+01  0.19292215125E+02  0.15949024144E+02  0.12765323980E+03  0.12509000000E+03 0.  0.
         25    1    3    3    0    0 -0.46031551841E+02 -0.85971195659E+02 -0.13308288679E+02  0.15916836650E+03  0.12509000000E+03 0.  0.
<mgrwt>
<rscale>  2 0.44907719E+03</rscale>
<asrwt>0</asrwt>
<pdfrwt beam="1">  1       21 0.40182320E-01 0.44907719E+03</pdfrwt>
<pdfrwt beam="2">  1       21 0.27134958E-01 0.44907719E+03</pdfrwt>
<totfact> 0.71666246E+04</totfact>
</mgrwt>
</event>
<event>
 7    0  0.4705418E-002  0.4548652E+03  0.7546771E-02  0.1026281E+00
         21   -1    0    0  502  501  0.00000000000E+00  0.00000000000E+00  0.19119997547E+03  0.19119997547E+03  0.00000000000E+00 0. -1.
         21   -1    0    0  501  502 -0.00000000000E+00 -0.00000000000E+00 -0.27053131758E+03  0.27053131758E+03  0.00000000000E+00 0. -1.
      99926    2    1    2    0    0  0.00000000000E+00  0.00000000000E+00 -0.79331342112E+02  0.46173129305E+03  0.45486517248E+03 0.  0.
      99925    2    3    3    0    0  0.43731779927E+02 -0.88236193278E+02  0.62216054693E+01  0.28099693184E+03  0.26310163996E+03 0.  0.
         25    1    4    4    0    0  0.90848523926E+01 -0.59314847001E+02 -0.32495262640E+02  0.14249293250E+03  0.12509000000E+03 0.  0.
         25    1    4    4    0    0  0.34646927534E+02 -0.28921346277E+02  0.38716868109E+02  0.13850399934E+03  0.12509000000E+03 0.  0.
         25    1    3    3    0    0 -0.43731779927E+02  0.88236193278E+02 -0.85552947582E+02  0.18073436120E+03  0.12509000000E+03 0.  0.
<mgrwt>
<rscale>  2 0.45486517E+03</rscale>
<asrwt>0</asrwt>
<pdfrwt beam="1">  1       21 0.28117644E-01 0.45486517E+03</pdfrwt>
<pdfrwt beam="2">  1       21 0.39784017E-01 0.45486517E+03</pdfrwt>
<totfact> 0.68126419E+04</totfact>
</mgrwt>
</event>
<event>
 7    0  0.4705418E-002  0.4761808E+03  0.7546771E-02  0.1020190E+00
         21   -1    0    0  502  501  0.00000000000E+00  0.00000000000E+00  0.17249249988E+03  0.17249249988E+03  0.00000000000E+00 0. -1.
         21   -1    0    0  501  502 -0.00000000000E+00 -0.00000000000E+00 -0.32863474630E+03  0.32863474630E+03  0.00000000000E+00 0. -1.
      99926    2    1    2    0    0  0.00000000000E+00  0.00000000000E+00 -0.15614224642E+03  0.50112724617E+03  0.47618075953E+03 0.  0.
      99925    2    3    3    0    0  0.23630277037E+02  0.95253417105E+02 -0.35312377553E+01  0.28074296468E+03  0.26300672827E+03 0.  0.
         25    1    4    4    0    0 -0.28203397040E+02  0.50973234849E+02 -0.78968337885E+01  0.13821566611E+03  0.12509000000E+03 0.  0.
         25    1    4    4    0    0  0.51833674077E+02  0.44280182256E+02  0.43655960332E+01  0.14252729857E+03  0.12509000000E+03 0.  0.
         25    1    3    3    0    0 -0.23630277037E+02 -0.95253417105E+02 -0.15261100866E+03  0.22038428149E+03  0.12509000000E+03 0.  0.
<mgrwt>
<rscale>  2 0.47618076E+03</rscale>
<asrwt>0</asrwt>
<pdfrwt beam="1">  1       21 0.25366544E-01 0.47618076E+03</pdfrwt>
<pdfrwt beam="2">  1       21 0.48328638E-01 0.47618076E+03</pdfrwt>
<totfact> 0.55293132E+04</totfact>
</mgrwt>
</event>
<event>
 7    0  0.4705418E-002  0.4498287E+03  0.7546771E-02  0.1027773E+00
         21   -1    0    0  502  501  0.00000000000E+00  0.00000000000E+00  0.78286422516E+02  0.78286422516E+02  0.00000000000E+00 0. -1.
         21   -1    0    0  501  502 -0.00000000000E+00 -0.00000000000E+00 -0.64617157415E+03  0.64617157415E+03  0.00000000000E+00 0. -1.
      99926    2    1    2    0    0  0.71054273576E-14  0.00000000000E+00 -0.56788515163E+03  0.72445799666E+03  0.44982868237E+03 0.  0.
      99925    2    3    3    0    0  0.32216804466E+02  0.10670477397E+02 -0.52449229619E+03  0.58777504388E+03  0.26312649405E+03 0.  0.
         25    1    4    4    0    0  0.27410435745E+02  0.30009387700E+02 -0.19934343601E+03  0.23882464052E+03  0.12509000000E+03 0.  0.
         25    1    3    3    0    0 -0.32216804466E+02 -0.10670477397E+02 -0.43392855443E+02  0.13668295278E+03  0.12509000000E+03 0.  0.
         25    1    4    4    0    0  0.48063687213E+01 -0.19338910303E+02 -0.32514886018E+03  0.34895040336E+03  0.12509000000E+03 0.  0.
<mgrwt>
<rscale>  2 0.44982868E+03</rscale>
<asrwt>0</asrwt>
<pdfrwt beam="1">  1       21 0.11512709E-01 0.44982868E+03</pdfrwt>
<pdfrwt beam="2">  1       21 0.95025232E-01 0.44982868E+03</pdfrwt>
<totfact> 0.53747943E+04</totfact>
</mgrwt>
</event>
<event>
 7    0  0.4705418E-002  0.4613217E+03  0.7546771E-02  0.1024399E+00
         21   -1    0    0  502  501  0.00000000000E+00  0.00000000000E+00  0.52698492928E+02  0.52698492928E+02  0.00000000000E+00 0.  1.
         21   -1    0    0  501  502 -0.00000000000E+00 -0.00000000000E+00 -0.10096005653E+04  0.10096005653E+04  0.00000000000E+00 0.  1.
      99926    2    1    2    0    0  0.00000000000E+00  0.00000000000E+00 -0.95690207238E+03  0.10622990582E+04  0.46132170229E+03 0.  0.
      99925    2    3    3    0    0  0.79569432286E+02 -0.73634370314E+02 -0.71160600107E+03  0.76637510559E+03  0.26304825921E+03 0.  0.
         25    1    3    3    0    0 -0.79569432286E+02  0.73634370314E+02 -0.24529607131E+03  0.29592395264E+03  0.12509000000E+03 0.  0.
         25    1    4    4    0    0  0.28730158320E+02 -0.64388724521E+02 -0.44139028167E+03  0.46415969094E+03  0.12509000000E+03 0.  0.
         25    1    4    4    0    0  0.50839273966E+02 -0.92456457931E+01 -0.27021571940E+03  0.30221541465E+03  0.12509000000E+03 0.  0.
<mgrwt>
<rscale>  2 0.46132170E+03</rscale>
<asrwt>0</asrwt>
<pdfrwt beam="1">  1       21 0.77497793E-02 0.46132170E+03</pdfrwt>
<pdfrwt beam="2">  1       21 0.14847065E+00 0.46132170E+03</pdfrwt>
<totfact> 0.35067023E+04</totfact>
</mgrwt>
</event>
<event>
 7    0  0.4705418E-002  0.4540510E+03  0.7546771E-02  0.1026521E+00
         21   -1    0    0  502  501  0.00000000000E+00  0.00000000000E+00  0.63642613023E+02  0.63642613023E+02  0.00000000000E+00 0.  1.
         21   -1    0    0  501  502 -0.00000000000E+00 -0.00000000000E+00 -0.80984377859E+03  0.80984377859E+03  0.00000000000E+00 0.  1.
      99926    2    1    2    0    0  0.14210854715E-13  0.35527136788E-14 -0.74620116557E+03  0.87348639161E+03  0.45405098484E+03 0.  0.
      99925    2    3    3    0    0 -0.75500171324E+02 -0.16419905970E+02 -0.62667132487E+03  0.68400082462E+03  0.26300245147E+03 0.  0.
         25    1    4    4    0    0 -0.35306869454E+02 -0.46055387862E+01 -0.41195045111E+03  0.43199359751E+03  0.12509000000E+03 0.  0.
         25    1    4    4    0    0 -0.40193301871E+02 -0.11814367184E+02 -0.21472087377E+03  0.25200722711E+03  0.12509000000E+03 0.  0.
         25    1    3    3    0    0  0.75500171324E+02  0.16419905970E+02 -0.11952984069E+03  0.18948556699E+03  0.12509000000E+03 0.  0.
<mgrwt>
<rscale>  2 0.45405098E+03</rscale>
<asrwt>0</asrwt>
<pdfrwt beam="1">  1       21 0.93592083E-02 0.45405098E+03</pdfrwt>
<pdfrwt beam="2">  1       21 0.11909467E+00 0.45405098E+03</pdfrwt>
<totfact> 0.44731511E+04</totfact>
</mgrwt>
</event>
<event>
 7    0  0.4705418E-002  0.4529647E+03  0.7546771E-02  0.1026842E+00
         21   -1    0    0  502  501  0.00000000000E+00  0.00000000000E+00  0.24990952162E+03  0.24990952162E+03  0.00000000000E+00 0.  1.
         21   -1    0    0  501  502 -0.00000000000E+00 -0.00000000000E+00 -0.20525132486E+03  0.20525132486E+03  0.00000000000E+00 0.  1.
      99926    2    1    2    0    0  0.00000000000E+00  0.00000000000E+00  0.44658196759E+02  0.45516084649E+03  0.45296472450E+03 0.  0.
      99925    2    3    3    0    0  0.83954132615E+02  0.72811135932E+02  0.31387344358E+02  0.28731156433E+03  0.26308365915E+03 0.  0.
         25    1    4    4    0    0  0.29589756834E+02  0.64443026763E+02 -0.11074134799E+02  0.14421720414E+03  0.12509000000E+03 0.  0.
         25    1    3    3    0    0 -0.83954132615E+02 -0.72811135932E+02  0.13270852401E+02  0.16784928216E+03  0.12509000000E+03 0.  0.
         25    1    4    4    0    0  0.54364375780E+02  0.83681091691E+01  0.42461479157E+02  0.14309436019E+03  0.12509000000E+03 0.  0.
<mgrwt>
<rscale>  2 0.45296472E+03</rscale>
<asrwt>0</asrwt>
<pdfrwt beam="1">  1       21 0.36751400E-01 0.45296472E+03</pdfrwt>
<pdfrwt beam="2">  1       21 0.30184019E-01 0.45296472E+03</pdfrwt>
<totfact> 0.69658305E+04</totfact>
</mgrwt>
</event>
<event>
 7    0  0.4705418E-002  0.4539047E+03  0.7546771E-02  0.1026564E+00
         21   -1    0    0  502  501  0.00000000000E+00  0.00000000000E+00  0.59437767018E+03  0.59437767018E+03  0.00000000000E+00 0. -1.
         21   -1    0    0  501  502 -0.00000000000E+00 -0.00000000000E+00 -0.86657638821E+02  0.86657638821E+02  0.00000000000E+00 0. -1.
      99926    2    1    2    0    0  0.00000000000E+00  0.00000000000E+00  0.50772003136E+03  0.68103530900E+03  0.45390468368E+03 0.  0.
      99925    2    3    3    0    0  0.95112999128E+02  0.58387056858E+02  0.31221068509E+03  0.42349513040E+03  0.26347121775E+03 0.  0.
         25    1    4    4    0    0  0.52395223456E+02  0.46650526476E+02  0.21723139687E+03  0.26030466563E+03  0.12509000000E+03 0.  0.
         25    1    3    3    0    0 -0.95112999128E+02 -0.58387056858E+02  0.19550934627E+03  0.25754017859E+03  0.12509000000E+03 0.  0.
         25    1    4    4    0    0  0.42717775672E+02  0.11736530382E+02  0.94979288215E+02  0.16319046478E+03  0.12509000000E+03 0.  0.
<mgrwt>
<rscale>  2 0.45390468E+03</rscale>
<asrwt>0</asrwt>
<pdfrwt beam="1">  1       21 0.87408479E-01 0.45390468E+03</pdfrwt>
<pdfrwt beam="2">  1       21 0.12743771E-01 0.45390468E+03</pdfrwt>
<totfact> 0.54412904E+04</totfact>
</mgrwt>
</event>
<event>
 7    0  0.4705418E-002  0.4422552E+03  0.7546771E-02  0.1030057E+00
         21   -1    0    0  502  501  0.00000000000E+00  0.00000000000E+00  0.32797841656E+02  0.32797841656E+02  0.00000000000E+00 0.  1.
         21   -1    0    0  501  502 -0.00000000000E+00 -0.00000000000E+00 -0.14908728498E+04  0.14908728498E+04  0.00000000000E+00 0.  1.
      99926    2    1    2    0    0  0.35527136788E-14  0.00000000000E+00 -0.14580750082E+04  0.15236706915E+04  0.44225518270E+03 0.  0.
      99925    2    3    3    0    0  0.23086418663E+02  0.34053930618E+02 -0.61163312027E+03  0.66704706899E+03  0.26299061869E+03 0.  0.
         25    1    4    4    0    0  0.14502768844E+02 -0.10286410143E+02 -0.37352191643E+03  0.39431240240E+03  0.12509000000E+03 0.  0.
         25    1    3    3    0    0 -0.23086418663E+02 -0.34053930618E+02 -0.84644188789E+03  0.85662362248E+03  0.12509000000E+03 0.  0.
         25    1    4    4    0    0  0.85836498189E+01  0.44340340762E+02 -0.23811120384E+03  0.27273466659E+03  0.12509000000E+03 0.  0.
<mgrwt>
<rscale>  2 0.44225518E+03</rscale>
<asrwt>0</asrwt>
<pdfrwt beam="1">  1       21 0.48232122E-02 0.44225518E+03</pdfrwt>
<pdfrwt beam="2">  1       21 0.21924600E+00 0.44225518E+03</pdfrwt>
<totfact> 0.25651756E+04</totfact>
</mgrwt>
</event>
<event>
 7    0  0.4705418E-002  0.4517471E+03  0.7546771E-02  0.1027202E+00
         21   -1    0    0  502  501  0.00000000000E+00  0.00000000000E+00  0.13555897320E+03  0.13555897320E+03  0.00000000000E+00 0. -1.
         21   -1    0    0  501  502 -0.00000000000E+00 -0.00000000000E+00 -0.37635908153E+03  0.37635908153E+03  0.00000000000E+00 0. -1.
      99926    2    1    2    0    0  0.14210854715E-13  0.00000000000E+00 -0.24080010833E+03  0.51191805473E+03  0.45174705598E+03 0.  0.
      99925    2    3    3    0    0  0.69534162553E+02 -0.63943077431E+02 -0.21581401140E+03  0.35318705570E+03  0.26313816121E+03 0.  0.
         25    1    3    3    0    0 -0.69534162553E+02  0.63943077431E+02 -0.24986096928E+02  0.15873099903E+03  0.12509000000E+03 0.  0.
         25    1    4    4    0    0  0.39432181145E+02 -0.68366208566E+02 -0.14069877118E+03  0.20413840328E+03  0.12509000000E+03 0.  0.
         25    1    4    4    0    0  0.30101981407E+02  0.44231311350E+01 -0.75115240229E+02  0.14904865242E+03  0.12509000000E+03 0.  0.
<mgrwt>
<rscale>  2 0.45174706E+03</rscale>
<asrwt>0</asrwt>
<pdfrwt beam="1">  1       21 0.19935144E-01 0.45174706E+03</pdfrwt>
<pdfrwt beam="2">  1       21 0.55346922E-01 0.45174706E+03</pdfrwt>
<totfact> 0.66131904E+04</totfact>
</mgrwt>
</event>
<event>
 7    0  0.4705418E-002  0.4569571E+03  0.7546771E-02  0.1025667E+00
         21   -1    0    0  502  501  0.00000000000E+00  0.00000000000E+00  0.64817040871E+02  0.64817040871E+02  0.00000000000E+00 0. -1.
         21   -1    0    0  501  502 -0.00000000000E+00 -0.00000000000E+00 -0.80538139345E+03  0.80538139345E+03  0.00000000000E+00 0. -1.
      99926    2    1    2    0    0  0.35527136788E-14  0.00000000000E+00 -0.74056435258E+03  0.87019843432E+03  0.45695706011E+03 0.  0.
      99925    2    3    3    0    0  0.73708145197E+01  0.11293062108E+03 -0.42739256015E+03  0.51448544080E+03  0.26310304871E+03 0.  0.
         25    1    3    3    0    0 -0.73708145197E+01 -0.11293062108E+03 -0.31317179244E+03  0.35571299352E+03  0.12509000000E+03 0.  0.
         25    1    4    4    0    0 -0.37022970041E+02  0.54298098510E+02 -0.21123837644E+03  0.25414197527E+03  0.12509000000E+03 0.  0.
         25    1    4    4    0    0  0.44393784561E+02  0.58632522571E+02 -0.21615418371E+03  0.26034346553E+03  0.12509000000E+03 0.  0.
<mgrwt>
<rscale>  2 0.45695706E+03</rscale>
<asrwt>0</asrwt>
<pdfrwt beam="1">  1       21 0.95319176E-02 0.45695706E+03</pdfrwt>
<pdfrwt beam="2">  1       21 0.11843844E+00 0.45695706E+03</pdfrwt>
<totfact> 0.43870872E+04</totfact>
</mgrwt>
</event>
<event>
 7    0  0.4705418E-002  0.4533573E+03  0.7546771E-02  0.1026726E+00
         21   -1    0    0  502  501  0.00000000000E+00  0.00000000000E+00  0.96943967183E+03  0.96943967183E+03  0.00000000000E+00 0. -1.
         21   -1    0    0  501  502 -0.00000000000E+00 -0.00000000000E+00 -0.53002988811E+02  0.53002988811E+02  0.00000000000E+00 0. -1.
      99926    2    1    2    0    0  0.00000000000E+00  0.00000000000E+00  0.91643668302E+03  0.10224426606E+04  0.45335725462E+03 0.  0.
      99925    2    3    3    0    0  0.80017320108E+02 -0.56247312185E+02  0.45581638509E+03  0.53522084400E+03  0.26291870092E+03 0.  0.
         25    1    3    3    0    0 -0.80017320108E+02  0.56247312185E+02  0.46062029792E+03  0.48722181663E+03  0.12509000000E+03 0.  0.
         25    1    4    4    0    0  0.48519178603E+02 -0.69000438691E+02  0.24156235549E+03  0.28480704156E+03  0.12509000000E+03 0.  0.
         25    1    4    4    0    0  0.31498141505E+02  0.12753126506E+02  0.21425402960E+03  0.25041380245E+03  0.12509000000E+03 0.  0.
<mgrwt>
<rscale>  2 0.45335725E+03</rscale>
<asrwt>0</asrwt>
<pdfrwt beam="1">  1       21 0.14256465E+00 0.45335725E+03</pdfrwt>
<pdfrwt beam="2">  1       21 0.77945578E-02 0.45335725E+03</pdfrwt>
<totfact> 0.38800338E+04</totfact>
</mgrwt>
</event>
<event>
 7    0  0.4705418E-002  0.4560259E+03  0.7546771E-02  0.1025940E+00
         21   -1    0    0  502  501  0.00000000000E+00  0.00000000000E+00  0.52070416921E+03  0.52070416921E+03  0.00000000000E+00 0. -1.
         21   -1    0    0  501  502 -0.00000000000E+00 -0.00000000000E+00 -0.99845377106E+02  0.99845377106E+02  0.00000000000E+00 0. -1.
      99926    2    1    2    0    0  0.00000000000E+00  0.71054273576E-14  0.42085879210E+03  0.62054954632E+03  0.45602589460E+03 0.  0.
      99925    2    3    3    0    0  0.94065234698E+02  0.62603023327E+02  0.29187064234E+03  0.40829296152E+03  0.26219699400E+03 0.  0.
         25    1    4    4    0    0  0.31060188995E+02 -0.11636399855E+01  0.10527362965E+03  0.16642155689E+03  0.12509000000E+03 0.  0.
         25    1    4    4    0    0  0.63005045703E+02  0.63766663313E+02  0.18659701269E+03  0.24187140463E+03  0.12509000000E+03 0.  0.
         25    1    3    3    0    0 -0.94065234698E+02 -0.62603023327E+02  0.12898814976E+03  0.21225658479E+03  0.12509000000E+03 0.  0.
<mgrwt>
<rscale>  2 0.45602589E+03</rscale>
<asrwt>0</asrwt>
<pdfrwt beam="1">  1       21 0.76574141E-01 0.45602589E+03</pdfrwt>
<pdfrwt beam="2">  1       21 0.14683144E-01 0.45602589E+03</pdfrwt>
<totfact> 0.56967992E+04</totfact>
</mgrwt>
</event>
<event>
 7    0  0.4705418E-002  0.4743346E+03  0.7546771E-02  0.1020704E+00
         21   -1    0    0  502  501  0.00000000000E+00  0.00000000000E+00  0.12745944219E+03  0.12745944219E+03  0.00000000000E+00 0. -1.
         21   -1    0    0  501  502 -0.00000000000E+00 -0.00000000000E+00 -0.44130377074E+03  0.44130377074E+03  0.00000000000E+00 0. -1.
      99926    2    1    2    0    0  0.00000000000E+00  0.00000000000E+00 -0.31384432854E+03  0.56876321293E+03  0.47433461799E+03 0.  0.
      99925    2    3    3    0    0  0.98260755363E+02 -0.21737081435E+02 -0.97000668833E+02  0.29895521154E+03  0.26426769004E+03 0.  0.
         25    1    3    3    0    0 -0.98260755363E+02  0.21737081435E+02 -0.21684365971E+03  0.26980800138E+03  0.12509000000E+03 0.  0.
         25    1    4    4    0    0  0.38047603231E+01 -0.12161441268E+02 -0.42250140028E+02  0.13264599235E+03  0.12509000000E+03 0.  0.
         25    1    4    4    0    0  0.94455995040E+02 -0.95756401668E+01 -0.54750528805E+02  0.16630921919E+03  0.12509000000E+03 0.  0.
<mgrwt>
<rscale>  2 0.47433462E+03</rscale>
<asrwt>0</asrwt>
<pdfrwt beam="1">  1       21 0.18744036E-01 0.47433462E+03</pdfrwt>
<pdfrwt beam="2">  1       21 0.64897613E-01 0.47433462E+03</pdfrwt>
<totfact> 0.52192817E+04</totfact>
</mgrwt>
</event>
<event>
 7    0  0.4705418E-002  0.4524649E+03  0.7546771E-02  0.1026990E+00
         21   -1    0    0  502  501  0.00000000000E+00  0.00000000000E+00  0.16899091059E+03  0.16899091059E+03  0.00000000000E+00 0. -1.
         21   -1    0    0  501  502 -0.00000000000E+00 -0.00000000000E+00 -0.30286313562E+03  0.30286313562E+03  0.00000000000E+00 0. -1.
      99926    2    1    2    0    0 -0.14210854715E-13 -0.71054273576E-14 -0.13387222503E+03  0.47185404621E+03  0.45246488073E+03 0.  0.
      99925    2    3    3    0    0  0.74040043667E+02  0.62381536487E+02 -0.28087365294E+02  0.28156130119E+03  0.26289633332E+03 0.  0.
         25    1    4    4    0    0  0.55702616049E+02  0.14202484007E+02  0.17539187991E+02  0.13877904454E+03  0.12509000000E+03 0.  0.
         25    1    3    3    0    0 -0.74040043667E+02 -0.62381536487E+02 -0.10578485973E+03  0.19029274503E+03  0.12509000000E+03 0.  0.
         25    1    4    4    0    0  0.18337427618E+02  0.48179052480E+02 -0.45626553286E+02  0.14278225665E+03  0.12509000000E+03 0.  0.
<mgrwt>
<rscale>  2 0.45246488E+03</rscale>
<asrwt>0</asrwt>
<pdfrwt beam="1">  1       21 0.24851605E-01 0.45246488E+03</pdfrwt>
<pdfrwt beam="2">  1       21 0.44538696E-01 0.45246488E+03</pdfrwt>
<totfact> 0.68669066E+04</totfact>
</mgrwt>
</event>
<event>
 7    0  0.4705418E-002  0.4560903E+03  0.7546771E-02  0.1025921E+00
         21   -1    0    0  502  501  0.00000000000E+00  0.00000000000E+00  0.11808213793E+04  0.11808213793E+04  0.00000000000E+00 0. -1.
         21   -1    0    0  501  502 -0.00000000000E+00 -0.00000000000E+00 -0.44041037272E+02  0.44041037272E+02  0.00000000000E+00 0. -1.
      99926    2    1    2    0    0  0.14210854715E-13  0.00000000000E+00  0.11367803421E+04  0.12248624166E+04  0.45609033482E+03 0.  0.
      99925    2    3    3    0    0 -0.54555162526E+02  0.92960043440E+01  0.98301449287E+03  0.10190612360E+04  0.26287949350E+03 0.  0.
         25    1    4    4    0    0  0.13096207028E+02  0.19919520198E+01  0.43165339639E+03  0.44960831980E+03  0.12509000000E+03 0.  0.
         25    1    4    4    0    0 -0.67651369554E+02  0.73040523243E+01  0.55136109647E+03  0.56945291621E+03  0.12509000000E+03 0.  0.
         25    1    3    3    0    0  0.54555162526E+02 -0.92960043440E+01  0.15376584919E+03  0.20580118059E+03  0.12509000000E+03 0.  0.
<mgrwt>
<rscale>  2 0.45609033E+03</rscale>
<asrwt>0</asrwt>
<pdfrwt beam="1">  1       21 0.17365018E+00 0.45609033E+03</pdfrwt>
<pdfrwt beam="2">  1       21 0.64766239E-02 0.45609033E+03</pdfrwt>
<totfact> 0.31112308E+04</totfact>
</mgrwt>
</event>
<event>
 7    0  0.4705418E-002  0.4545049E+03  0.7546771E-02  0.1026387E+00
         21   -1    0    0  502  501  0.00000000000E+00  0.00000000000E+00  0.18249835984E+04  0.18249835984E+04  0.00000000000E+00 0.  1.
         21   -1    0    0  501  502 -0.00000000000E+00 -0.00000000000E+00 -0.28298154905E+02  0.28298154905E+02  0.00000000000E+00 0.  1.
      99926    2    1    2    0    0 -0.71054273576E-14  0.00000000000E+00  0.17966854435E+04  0.18532817533E+04  0.45450486715E+03 0.  0.
      99925    2    3    3    0    0  0.59709441969E+02 -0.94159982863E+02  0.11955047576E+04  0.12291847696E+04  0.26312022466E+03 0.  0.
         25    1    4    4    0    0  0.47020846204E+01 -0.39581304340E+02  0.70356642331E+03  0.71571084201E+03  0.12509000000E+03 0.  0.
         25    1    4    4    0    0  0.55007357349E+02 -0.54578678523E+02  0.49193833427E+03  0.51347392761E+03  0.12509000000E+03 0.  0.
         25    1    3    3    0    0 -0.59709441969E+02  0.94159982863E+02  0.60118068589E+03  0.62409698366E+03  0.12509000000E+03 0.  0.
<mgrwt>
<rscale>  2 0.45450487E+03</rscale>
<asrwt>0</asrwt>
<pdfrwt beam="1">  1       21 0.26837986E+00 0.45450487E+03</pdfrwt>
<pdfrwt beam="2">  1       21 0.41614946E-02 0.45450487E+03</pdfrwt>
<totfact> 0.16319418E+04</totfact>
</mgrwt>
</event>
<event>
 7    0  0.4705418E-002  0.4518277E+03  0.7546771E-02  0.1027178E+00
         21   -1    0    0  502  501  0.00000000000E+00  0.00000000000E+00  0.16008202012E+03  0.16008202012E+03  0.00000000000E+00 0.  1.
         21   -1    0    0  501  502 -0.00000000000E+00 -0.00000000000E+00 -0.31881818944E+03  0.31881818944E+03  0.00000000000E+00 0.  1.
      99926    2    1    2    0    0  0.00000000000E+00  0.00000000000E+00 -0.15873616931E+03  0.47890020956E+03  0.45182766545E+03 0.  0.
      99925    2    3    3    0    0 -0.46867530207E+02  0.38348802125E+02 -0.27041784909E+01  0.26994881265E+03  0.26305484762E+03 0.  0.
         25    1    4    4    0    0 -0.11373685965E+02  0.28793488030E+02 -0.38956686343E+02  0.13462376163E+03  0.12509000000E+03 0.  0.
         25    1    4    4    0    0 -0.35493844242E+02  0.95553140952E+01  0.36252507852E+02  0.13532505101E+03  0.12509000000E+03 0.  0.
         25    1    3    3    0    0  0.46867530207E+02 -0.38348802125E+02 -0.15603199082E+03  0.20895139691E+03  0.12509000000E+03 0.  0.
<mgrwt>
<rscale>  2 0.45182767E+03</rscale>
<asrwt>0</asrwt>
<pdfrwt beam="1">  1       21 0.23541474E-01 0.45182767E+03</pdfrwt>
<pdfrwt beam="2">  1       21 0.46885027E-01 0.45182767E+03</pdfrwt>
<totfact> 0.68488659E+04</totfact>
</mgrwt>
</event>
<event>
 7    0  0.4705418E-002  0.4537366E+03  0.7546771E-02  0.1026614E+00
         21   -1    0    0  502  501  0.00000000000E+00  0.00000000000E+00  0.20887751112E+04  0.20887751112E+04  0.00000000000E+00 0.  1.
         21   -1    0    0  501  502 -0.00000000000E+00 -0.00000000000E+00 -0.24640862478E+02  0.24640862478E+02  0.00000000000E+00 0.  1.
      99926    2    1    2    0    0  0.00000000000E+00  0.00000000000E+00  0.20641342487E+04  0.21134159736E+04  0.45373657672E+03 0.  0.
      99925    2    3    3    0    0  0.10158082627E+02 -0.86168322982E+02  0.16302107516E+04  0.16535624361E+04  0.26297047184E+03 0.  0.
         25    1    3    3    0    0 -0.10158082627E+02  0.86168322982E+02  0.43392349710E+03  0.45985353751E+03  0.12509000000E+03 0.  0.
         25    1    4    4    0    0  0.23687741920E+02 -0.77192426673E+02  0.78554244016E+03  0.79952749374E+03  0.12509000000E+03 0.  0.
         25    1    4    4    0    0 -0.13529659293E+02 -0.89758963091E+01  0.84466831141E+03  0.85403494238E+03  0.12509000000E+03 0.  0.
<mgrwt>
<rscale>  2 0.45373658E+03</rscale>
<asrwt>0</asrwt>
<pdfrwt beam="1">  1       21 0.30717269E+00 0.45373658E+03</pdfrwt>
<pdfrwt beam="2">  1       21 0.36236577E-02 0.45373658E+03</pdfrwt>
<totfact> 0.12062904E+04</totfact>
</mgrwt>
</event>
<event>
 7    0  0.4705418E-002  0.4440716E+03  0.7546771E-02  0.1029505E+00
         21   -1    0    0  502  501  0.00000000000E+00  0.00000000000E+00  0.14390188413E+04  0.14390188413E+04  0.00000000000E+00 0. -1.
         21   -1    0    0  501  502 -0.00000000000E+00 -0.00000000000E+00 -0.34259384198E+02  0.34259384198E+02  0.00000000000E+00 0. -1.
      99926    2    1    2    0    0 -0.14210854715E-13  0.00000000000E+00  0.14047594571E+04  0.14732782255E+04  0.44407161293E+03 0.  0.
      99925    2    3    3    0    0  0.86238361816E+02 -0.53739806334E+02  0.85064183287E+03  0.89620035257E+03  0.26317013944E+03 0.  0.
         25    1    3    3    0    0 -0.86238361816E+02  0.53739806334E+02  0.55411762424E+03  0.57707787293E+03  0.12509000000E+03 0.  0.
         25    1    4    4    0    0  0.71019985995E+02  0.18293830211E+01  0.40715316983E+03  0.43181986621E+03  0.12509000000E+03 0.  0.
         25    1    4    4    0    0  0.15218375820E+02 -0.55569189355E+02  0.44348866304E+03  0.46438048636E+03  0.12509000000E+03 0.  0.
<mgrwt>
<rscale>  2 0.44407161E+03</rscale>
<asrwt>0</asrwt>
<pdfrwt beam="1">  1       21 0.21162038E+00 0.44407161E+03</pdfrwt>
<pdfrwt beam="2">  1       21 0.50381457E-02 0.44407161E+03</pdfrwt>
<totfact> 0.26631842E+04</totfact>
</mgrwt>
</event>
<event>
 7    0  0.4705418E-002  0.4510626E+03  0.7546771E-02  0.1027406E+00
         21   -1    0    0  502  501  0.00000000000E+00  0.00000000000E+00  0.15939834090E+03  0.15939834090E+03  0.00000000000E+00 0. -1.
         21   -1    0    0  501  502 -0.00000000000E+00 -0.00000000000E+00 -0.31910217765E+03  0.31910217765E+03  0.00000000000E+00 0. -1.
      99926    2    1    2    0    0 -0.14210854715E-13  0.00000000000E+00 -0.15970383675E+03  0.47850051855E+03  0.45106255750E+03 0.  0.
      99925    2    3    3    0    0 -0.92653010634E+02  0.58214261193E+02 -0.96749872173E+02  0.30078110390E+03  0.26293583649E+03 0.  0.
         25    1    3    3    0    0  0.92653010634E+02 -0.58214261193E+02 -0.62953964581E+02  0.17771941465E+03  0.12509000000E+03 0.  0.
         25    1    4    4    0    0 -0.49184068372E+01  0.27894546744E+02 -0.54711280461E+02  0.13943862009E+03  0.12509000000E+03 0.  0.
         25    1    4    4    0    0 -0.87734603797E+02  0.30319714449E+02 -0.42038591713E+02  0.16134248381E+03  0.12509000000E+03 0.  0.
<mgrwt>
<rscale>  2 0.45106256E+03</rscale>
<asrwt>0</asrwt>
<pdfrwt beam="1">  1       21 0.23440932E-01 0.45106256E+03</pdfrwt>
<pdfrwt beam="2">  1       21 0.46926791E-01 0.45106256E+03</pdfrwt>
<totfact> 0.68938960E+04</totfact>
</mgrwt>
</event>
<event>
 7    0  0.4705418E-002  0.4535246E+03  0.7546771E-02  0.1026676E+00
         21   -1    0    0  502  501  0.00000000000E+00  0.00000000000E+00  0.93418137322E+02  0.93418137322E+02  0.00000000000E+00 0. -1.
         21   -1    0    0  501  502 -0.00000000000E+00 -0.00000000000E+00 -0.55044066520E+03  0.55044066520E+03  0.00000000000E+00 0. -1.
      99926    2    1    2    0    0  0.00000000000E+00 -0.13322676296E-14 -0.45702252788E+03  0.64385880252E+03  0.45352460418E+03 0.  0.
      99925    2    3    3    0    0 -0.26542666585E+02 -0.38681733253E+01 -0.44205922593E+03  0.51505319543E+03  0.26295238918E+03 0.  0.
         25    1    4    4    0    0 -0.26005343913E+02 -0.37436596508E+02 -0.19519156540E+03  0.23627321468E+03  0.12509000000E+03 0.  0.
         25    1    3    3    0    0  0.26542666585E+02  0.38681733253E+01 -0.14963301948E+02  0.12880560710E+03  0.12509000000E+03 0.  0.
         25    1    4    4    0    0 -0.53732267207E+00  0.33568423183E+02 -0.24686766053E+03  0.27877998075E+03  0.12509000000E+03 0.  0.
<mgrwt>
<rscale>  2 0.45352460E+03</rscale>
<asrwt>0</asrwt>
<pdfrwt beam="1">  1       21 0.13737961E-01 0.45352460E+03</pdfrwt>
<pdfrwt beam="2">  1       21 0.80947157E-01 0.45352460E+03</pdfrwt>
<totfact> 0.56714035E+04</totfact>
</mgrwt>
</event>
<event>
 7    0  0.4705418E-002  0.4521516E+03  0.7546771E-02  0.1027082E+00
         21   -1    0    0  502  501  0.00000000000E+00  0.00000000000E+00  0.24425452238E+03  0.24425452238E+03  0.00000000000E+00 0.  1.
         21   -1    0    0  501  502 -0.00000000000E+00 -0.00000000000E+00 -0.20925000192E+03  0.20925000192E+03  0.00000000000E+00 0.  1.
      99926    2    1    2    0    0 -0.17763568394E-14  0.00000000000E+00  0.35004520461E+02  0.45350452431E+03  0.45215156432E+03 0.  0.
      99925    2    3    3    0    0 -0.12030985562E+02 -0.87897881810E+02 -0.43925427425E+02  0.28102778091E+03  0.26301404568E+03 0.  0.
         25    1    4    4    0    0  0.16305827898E+02 -0.27244176564E+02 -0.51488112864E+02  0.13894840426E+03  0.12509000000E+03 0.  0.
         25    1    4    4    0    0 -0.28336813460E+02 -0.60653705246E+02  0.75626854392E+01  0.14207937665E+03  0.12509000000E+03 0.  0.
         25    1    3    3    0    0  0.12030985562E+02  0.87897881810E+02  0.78929947886E+02  0.17247674340E+03  0.12509000000E+03 0.  0.
<mgrwt>
<rscale>  2 0.45215156E+03</rscale>
<asrwt>0</asrwt>
<pdfrwt beam="1">  1       21 0.35919783E-01 0.45215156E+03</pdfrwt>
<pdfrwt beam="2">  1       21 0.30772059E-01 0.45215156E+03</pdfrwt>
<totfact> 0.70238297E+04</totfact>
</mgrwt>
</event>
<event>
 7    0  0.4705418E-002  0.4581200E+03  0.7546771E-02  0.1025328E+00
         21   -1    0    0  502  501  0.00000000000E+00  0.00000000000E+00  0.66953846001E+02  0.66953846001E+02  0.00000000000E+00 0. -1.
         21   -1    0    0  501  502 -0.00000000000E+00 -0.00000000000E+00 -0.78365148956E+03  0.78365148956E+03  0.00000000000E+00 0. -1.
      99926    2    1    2    0    0  0.14210854715E-13  0.00000000000E+00 -0.71669764356E+03  0.85060533557E+03  0.45811998931E+03 0.  0.
      99925    2    3    3    0    0  0.11331735358E+03  0.21046421380E+02 -0.47551913691E+03  0.55548103185E+03  0.26297709538E+03 0.  0.
         25    1    3    3    0    0 -0.11331735358E+03 -0.21046421380E+02 -0.24117850665E+03  0.29512430372E+03  0.12509000000E+03 0.  0.
         25    1    4    4    0    0  0.89111393025E+02  0.56375144951E+00 -0.20900196026E+03  0.25936554450E+03  0.12509000000E+03 0.  0.
         25    1    4    4    0    0  0.24205960558E+02  0.20482669931E+02 -0.26651717665E+03  0.29611548734E+03  0.12509000000E+03 0.  0.
<mgrwt>
<rscale>  2 0.45811999E+03</rscale>
<asrwt>0</asrwt>
<pdfrwt beam="1">  1       21 0.98461549E-02 0.45811999E+03</pdfrwt>
<pdfrwt beam="2">  1       21 0.11524285E+00 0.45811999E+03</pdfrwt>
<totfact> 0.44317644E+04</totfact>
</mgrwt>
</event>
<event>
 7    0  0.4705418E-002  0.4724159E+03  0.7546771E-02  0.1021241E+00
         21   -1    0    0  502  501  0.00000000000E+00  0.00000000000E+00  0.37897158933E+03  0.37897158933E+03  0.00000000000E+00 0. -1.
         21   -1    0    0  501  502 -0.00000000000E+00 -0.00000000000E+00 -0.14722525005E+03  0.14722525005E+03  0.00000000000E+00 0. -1.
      99926    2    1    2    0    0  0.00000000000E+00  0.00000000000E+00  0.23174633928E+03  0.52619683938E+03  0.47241586341E+03 0.  0.
      99925    2    3    3    0    0 -0.12201671422E+03 -0.37753461325E+02  0.12748466816E+03  0.31923933999E+03  0.26334010934E+03 0.  0.
         25    1    4    4    0    0 -0.29251356810E+02 -0.24544639577E+02  0.27340690845E+02  0.13361550315E+03  0.12509000000E+03 0.  0.
         25    1    3    3    0    0  0.12201671422E+03  0.37753461325E+02  0.10426167111E+03  0.20695749939E+03  0.12509000000E+03 0.  0.
         25    1    4    4    0    0 -0.92765357411E+02 -0.13208821748E+02  0.10014397732E+03  0.18562383683E+03  0.12509000000E+03 0.  0.
<mgrwt>
<rscale>  2 0.47241586E+03</rscale>
<asrwt>0</asrwt>
<pdfrwt beam="1">  1       21 0.55731116E-01 0.47241586E+03</pdfrwt>
<pdfrwt beam="2">  1       21 0.21650772E-01 0.47241586E+03</pdfrwt>
<totfact> 0.55405336E+04</totfact>
</mgrwt>
</event>
<event>
 7    0  0.4705418E-002  0.4490107E+03  0.7546771E-02  0.1028017E+00
         21   -1    0    0  502  501  0.00000000000E+00  0.00000000000E+00  0.10071346475E+04  0.10071346475E+04  0.00000000000E+00 0. -1.
         21   -1    0    0  501  502 -0.00000000000E+00 -0.00000000000E+00 -0.50045602503E+02  0.50045602503E+02  0.00000000000E+00 0. -1.
      99926    2    1    2    0    0  0.00000000000E+00 -0.14210854715E-13  0.95708904497E+03  0.10571802500E+04  0.44901073588E+03 0.  0.
      99925    2    3    3    0    0  0.79631774090E+02 -0.69521249174E+02  0.56089494896E+03  0.62847091564E+03  0.26305536396E+03 0.  0.
         25    1    4    4    0    0  0.58525967931E+02 -0.13852415442E+01  0.30573700772E+03  0.33548447625E+03  0.12509000000E+03 0.  0.
         25    1    4    4    0    0  0.21105806159E+02 -0.68136007630E+02  0.25515794124E+03  0.29298643939E+03  0.12509000000E+03 0.  0.
         25    1    3    3    0    0 -0.79631774090E+02  0.69521249174E+02  0.39619409601E+03  0.42870933434E+03  0.12509000000E+03 0.  0.
<mgrwt>
<rscale>  2 0.44901074E+03</rscale>
<asrwt>0</asrwt>
<pdfrwt beam="1">  1       21 0.14810802E+00 0.44901074E+03</pdfrwt>
<pdfrwt beam="2">  1       21 0.73596481E-02 0.44901074E+03</pdfrwt>
<totfact> 0.38797067E+04</totfact>
</mgrwt>
</event>
<event>
 7    0  0.4705418E-002  0.4582777E+03  0.7546771E-02  0.1025282E+00
         21   -1    0    0  502  501  0.00000000000E+00  0.00000000000E+00  0.10077854951E+03  0.10077854951E+03  0.00000000000E+00 0.  1.
         21   -1    0    0  501  502 -0.00000000000E+00 -0.00000000000E+00 -0.52099000004E+03  0.52099000004E+03  0.00000000000E+00 0.  1.
      99926    2    1    2    0    0  0.00000000000E+00  0.14210854715E-13 -0.42021145052E+03  0.62176854955E+03  0.45827771718E+03 0.  0.
      99925    2    3    3    0    0  0.41863952260E+02  0.85426597137E+02 -0.17272447234E+03  0.32860032742E+03  0.26285763797E+03 0.  0.
         25    1    3    3    0    0 -0.41863952260E+02 -0.85426597137E+02 -0.24748697818E+03  0.29316822213E+03  0.12509000000E+03 0.  0.
         25    1    4    4    0    0  0.27134665536E+02  0.84003754982E+02 -0.85170478724E+02  0.17519828615E+03  0.12509000000E+03 0.  0.
         25    1    4    4    0    0  0.14729286724E+02  0.14228421552E+01 -0.87553993616E+02  0.15340204127E+03  0.12509000000E+03 0.  0.
<mgrwt>
<rscale>  2 0.45827772E+03</rscale>
<asrwt>0</asrwt>
<pdfrwt beam="1">  1       21 0.14820375E-01 0.45827772E+03</pdfrwt>
<pdfrwt beam="2">  1       21 0.76616177E-01 0.45827772E+03</pdfrwt>
<totfact> 0.55897149E+04</totfact>
</mgrwt>
</event>
<event>
 7    0  0.4705418E-002  0.4504980E+03  0.7546771E-02  0.1027574E+00
         21   -1    0    0  502  501  0.00000000000E+00  0.00000000000E+00  0.13551431796E+03  0.13551431796E+03  0.00000000000E+00 0.  1.
         21   -1    0    0  501  502 -0.00000000000E+00 -0.00000000000E+00 -0.37440404544E+03  0.37440404544E+03  0.00000000000E+00 0.  1.
      99926    2    1    2    0    0  0.00000000000E+00  0.14210854715E-13 -0.23888972748E+03  0.50991836340E+03  0.45049798605E+03 0.  0.
      99925    2    3    3    0    0 -0.37828846644E+02  0.77720384768E+02 -0.22553822457E+03  0.35728399447E+03  0.26327339805E+03 0.  0.
         25    1    4    4    0    0  0.13688240646E+02  0.56376844962E+02 -0.90401231901E+02  0.16488058530E+03  0.12509000000E+03 0.  0.
         25    1    3    3    0    0  0.37828846644E+02 -0.77720384768E+02 -0.13351502915E+02  0.15263436892E+03  0.12509000000E+03 0.  0.
         25    1    4    4    0    0 -0.51517087290E+02  0.21343539805E+02 -0.13513699267E+03  0.19240340917E+03  0.12509000000E+03 0.  0.
<mgrwt>
<rscale>  2 0.45049799E+03</rscale>
<asrwt>0</asrwt>
<pdfrwt beam="1">  1       21 0.19928577E-01 0.45049799E+03</pdfrwt>
<pdfrwt beam="2">  1       21 0.55059417E-01 0.45049799E+03</pdfrwt>
<totfact> 0.66939062E+04</totfact>
</mgrwt>
</event>
<event>
 7    0  0.4705418E-002  0.4516926E+03  0.7546771E-02  0.1027218E+00
         21   -1    0    0  502  501  0.00000000000E+00  0.00000000000E+00  0.10046360789E+04  0.10046360789E+04  0.00000000000E+00 0.  1.
         21   -1    0    0  501  502 -0.00000000000E+00 -0.00000000000E+00 -0.50771170029E+02  0.50771170029E+02  0.00000000000E+00 0.  1.
      99926    2    1    2    0    0  0.00000000000E+00  0.17763568394E-14  0.95386490888E+03  0.10554072489E+04  0.45169259095E+03 0.  0.
      99925    2    3    3    0    0  0.46888606376E+02  0.15465733807E+02  0.37233691225E+03  0.45853201130E+03  0.26301919862E+03 0.  0.
         25    1    3    3    0    0 -0.46888606376E+02 -0.15465733807E+02  0.58152799664E+03  0.59687523763E+03  0.12509000000E+03 0.  0.
         25    1    4    4    0    0  0.43612686246E+02  0.27668846153E+02  0.24308146036E+03  0.27821526902E+03  0.12509000000E+03 0.  0.
         25    1    4    4    0    0  0.32759201307E+01 -0.12203112346E+02  0.12925545189E+03  0.18031674228E+03  0.12509000000E+03 0.  0.
<mgrwt>
<rscale>  2 0.45169259E+03</rscale>
<asrwt>0</asrwt>
<pdfrwt beam="1">  1       21 0.14774059E+00 0.45169259E+03</pdfrwt>
<pdfrwt beam="2">  1       21 0.74663492E-02 0.45169259E+03</pdfrwt>
<totfact> 0.38052424E+04</totfact>
</mgrwt>
</event>
<event>
 7    0  0.4705418E-002  0.4504475E+03  0.7546771E-02  0.1027589E+00
         21   -1    0    0  502  501  0.00000000000E+00  0.00000000000E+00  0.60902794418E+02  0.60902794418E+02  0.00000000000E+00 0. -1.
         21   -1    0    0  501  502 -0.00000000000E+00 -0.00000000000E+00 -0.83289689634E+03  0.83289689634E+03  0.00000000000E+00 0. -1.
      99926    2    1    2    0    0  0.00000000000E+00  0.00000000000E+00 -0.77199410193E+03  0.89379969076E+03  0.45044754833E+03 0.  0.
      99925    2    3    3    0    0  0.76084888099E+02 -0.45965063896E+02 -0.61247073313E+03  0.67244723293E+03  0.26298894433E+03 0.  0.
         25    1    3    3    0    0 -0.76084888099E+02  0.45965063896E+02 -0.15952336879E+03  0.22135245783E+03  0.12509000000E+03 0.  0.
         25    1    4    4    0    0  0.29537843180E+02  0.16329846577E+02 -0.26207116978E+03  0.29234902805E+03  0.12509000000E+03 0.  0.
         25    1    4    4    0    0  0.46547044919E+02 -0.62294910473E+02 -0.35039956335E+03  0.38009820489E+03  0.12509000000E+03 0.  0.
<mgrwt>
<rscale>  2 0.45044755E+03</rscale>
<asrwt>0</asrwt>
<pdfrwt beam="1">  1       21 0.89562940E-02 0.45044755E+03</pdfrwt>
<pdfrwt beam="2">  1       21 0.12248483E+00 0.45044755E+03</pdfrwt>
<totfact> 0.45088742E+04</totfact>
</mgrwt>
</event>
<event>
 7    0  0.4705418E-002  0.4561984E+03  0.7546771E-02  0.1025890E+00
         21   -1    0    0  502  501  0.00000000000E+00  0.00000000000E+00  0.12348651904E+03  0.12348651904E+03  0.00000000000E+00 0. -1.
         21   -1    0    0  501  502 -0.00000000000E+00 -0.00000000000E+00 -0.42133535126E+03  0.42133535126E+03  0.00000000000E+00 0. -1.
      99926    2    1    2    0    0  0.00000000000E+00  0.00000000000E+00 -0.29784883221E+03  0.54482187030E+03  0.45619835983E+03 0.  0.
      99925    2    3    3    0    0  0.60081424833E+02  0.87368593449E+02 -0.23810788967E+03  0.37029526188E+03  0.26302122560E+03 0.  0.
         25    1    3    3    0    0 -0.60081424833E+02 -0.87368593449E+02 -0.59740942538E+02  0.17452660842E+03  0.12509000000E+03 0.  0.
         25    1    4    4    0    0 -0.10470009259E+02  0.43780870919E+02 -0.10022627826E+03  0.16649084271E+03  0.12509000000E+03 0.  0.
         25    1    4    4    0    0  0.70551434092E+02  0.43587722530E+02 -0.13788161141E+03  0.20380441917E+03  0.12509000000E+03 0.  0.
<mgrwt>
<rscale>  2 0.45619836E+03</rscale>
<asrwt>0</asrwt>
<pdfrwt beam="1">  1       21 0.18159782E-01 0.45619836E+03</pdfrwt>
<pdfrwt beam="2">  1       21 0.61961081E-01 0.45619836E+03</pdfrwt>
<totfact> 0.61623557E+04</totfact>
</mgrwt>
</event>
<event>
 7    0  0.4705418E-002  0.4514799E+03  0.7546771E-02  0.1027282E+00
         21   -1    0    0  502  501  0.00000000000E+00  0.00000000000E+00  0.65234387238E+03  0.65234387238E+03  0.00000000000E+00 0.  1.
         21   -1    0    0  501  502 -0.00000000000E+00 -0.00000000000E+00 -0.78116047521E+02  0.78116047521E+02  0.00000000000E+00 0.  1.
      99926    2    1    2    0    0 -0.14210854715E-13  0.00000000000E+00  0.57422782486E+03  0.73045991990E+03  0.45147989959E+03 0.  0.
      99925    2    3    3    0    0  0.97369792719E+02 -0.50285570008E+02  0.35070716189E+03  0.45185893289E+03  0.26300468960E+03 0.  0.
         25    1    3    3    0    0 -0.97369792719E+02  0.50285570008E+02  0.22352066297E+03  0.27860098700E+03  0.12509000000E+03 0.  0.
         25    1    4    4    0    0  0.29616460087E+02 -0.15107714967E+02  0.10908851510E+03  0.16927253170E+03  0.12509000000E+03 0.  0.
         25    1    4    4    0    0  0.67753332632E+02 -0.35177855041E+02  0.24161864678E+03  0.28258640120E+03  0.12509000000E+03 0.  0.
<mgrwt>
<rscale>  2 0.45147990E+03</rscale>
<asrwt>0</asrwt>
<pdfrwt beam="1">  1       21 0.95932919E-01 0.45147990E+03</pdfrwt>
<pdfrwt beam="2">  1       21 0.11487654E-01 0.45147990E+03</pdfrwt>
<totfact> 0.52724547E+04</totfact>
</mgrwt>
</event>
<event>
 7    0  0.4705418E-002  0.4566519E+03  0.7546771E-02  0.1025757E+00
         21   -1    0    0  502  501  0.00000000000E+00  0.00000000000E+00  0.75053329139E+02  0.75053329139E+02  0.00000000000E+00 0.  1.
         21   -1    0    0  501  502 -0.00000000000E+00 -0.00000000000E+00 -0.69460925588E+03  0.69460925588E+03  0.00000000000E+00 0.  1.
      99926    2    1    2    0    0  0.00000000000E+00  0.14210854715E-13 -0.61955592675E+03  0.76966258502E+03  0.45665188976E+03 0.  0.
      99925    2    3    3    0    0 -0.89648876887E+02  0.70961948605E+02 -0.40752749509E+03  0.49822919871E+03  0.26283294298E+03 0.  0.
         25    1    4    4    0    0 -0.49082447022E+02  0.30088958128E+02 -0.13476144481E+03  0.19267222715E+03  0.12509000000E+03 0.  0.
         25    1    3    3    0    0  0.89648876887E+02 -0.70961948605E+02 -0.21202843165E+03  0.27143338631E+03  0.12509000000E+03 0.  0.
         25    1    4    4    0    0 -0.40566429865E+02  0.40872990477E+02 -0.27276605029E+03  0.30555697156E+03  0.12509000000E+03 0.  0.
<mgrwt>
<rscale>  2 0.45665189E+03</rscale>
<asrwt>0</asrwt>
<pdfrwt beam="1">  1       21 0.11037253E-01 0.45665189E+03</pdfrwt>
<pdfrwt beam="2">  1       21 0.10214843E+00 0.45665189E+03</pdfrwt>
<totfact> 0.48633404E+04</totfact>
</mgrwt>
</event>
<event>
 7    0  0.4705418E-002  0.4581346E+03  0.7546771E-02  0.1025324E+00
         21   -1    0    0  502  501  0.00000000000E+00  0.00000000000E+00  0.20922388231E+03  0.20922388231E+03  0.00000000000E+00 0. -1.
         21   -1    0    0  501  502 -0.00000000000E+00 -0.00000000000E+00 -0.25079273635E+03  0.25079273635E+03  0.00000000000E+00 0. -1.
      99926    2    1    2    0    0  0.00000000000E+00  0.00000000000E+00 -0.41568854039E+02  0.46001661866E+03  0.45813460884E+03 0.  0.
      99925    2    3    3    0    0 -0.37828889104E+02  0.48362231124E+02 -0.12464577995E+03  0.29778464287E+03  0.26338031973E+03 0.  0.
         25    1    4    4    0    0 -0.24482448395E+02  0.47434525455E+02 -0.10189702838E+03  0.16994098086E+03  0.12509000000E+03 0.  0.
         25    1    3    3    0    0  0.37828889104E+02 -0.48362231124E+02  0.83076925907E+02  0.16223197579E+03  0.12509000000E+03 0.  0.
         25    1    4    4    0    0 -0.13346440709E+02  0.92770566892E+00 -0.22748751569E+02  0.12784366201E+03  0.12509000000E+03 0.  0.
<mgrwt>
<rscale>  2 0.45813461E+03</rscale>
<asrwt>0</asrwt>
<pdfrwt beam="1">  1       21 0.30768218E-01 0.45813461E+03</pdfrwt>
<pdfrwt beam="2">  1       21 0.36881284E-01 0.45813461E+03</pdfrwt>
<totfact> 0.66501036E+04</totfact>
</mgrwt>
</event>
<event>
 7    0  0.4705418E-002  0.4521991E+03  0.7546771E-02  0.1027068E+00
         21   -1    0    0  502  501  0.00000000000E+00  0.00000000000E+00  0.22325730890E+03  0.22325730890E+03  0.00000000000E+00 0.  1.
         21   -1    0    0  501  502 -0.00000000000E+00 -0.00000000000E+00 -0.22897801518E+03  0.22897801518E+03  0.00000000000E+00 0.  1.
      99926    2    1    2    0    0  0.00000000000E+00  0.00000000000E+00 -0.57207062785E+01  0.45223532407E+03  0.45219913960E+03 0.  0.
      99925    2    3    3    0    0  0.10814733587E+03  0.22776647674E+02 -0.54212615862E+00  0.28523548058E+03  0.26295315846E+03 0.  0.
         25    1    4    4    0    0  0.52787055334E+02  0.32245055220E+02 -0.34962137297E+02  0.14386130801E+03  0.12509000000E+03 0.  0.
         25    1    3    3    0    0 -0.10814733587E+03 -0.22776647674E+02 -0.51785801198E+01  0.16699984350E+03  0.12509000000E+03 0.  0.
         25    1    4    4    0    0  0.55360280539E+02 -0.94684075463E+01  0.34420011138E+02  0.14137417257E+03  0.12509000000E+03 0.  0.
<mgrwt>
<rscale>  2 0.45219914E+03</rscale>
<asrwt>0</asrwt>
<pdfrwt beam="1">  1       21 0.32831957E-01 0.45219914E+03</pdfrwt>
<pdfrwt beam="2">  1       21 0.33673237E-01 0.45219914E+03</pdfrwt>
<totfact> 0.70306933E+04</totfact>
</mgrwt>
</event>
<event>
 7    0  0.4705418E-002  0.4494066E+03  0.7546771E-02  0.1027899E+00
         21   -1    0    0  502  501  0.00000000000E+00  0.00000000000E+00  0.47388915005E+03  0.47388915005E+03  0.00000000000E+00 0. -1.
         21   -1    0    0  501  502 -0.00000000000E+00 -0.00000000000E+00 -0.10654724397E+03  0.10654724397E+03  0.00000000000E+00 0. -1.
      99926    2    1    2    0    0 -0.44408920985E-15 -0.14210854715E-13  0.36734190608E+03  0.58043639403E+03  0.44940664386E+03 0.  0.
      99925    2    3    3    0    0  0.16618608665E+01  0.10288664231E+03  0.19060701208E+03  0.34070497388E+03  0.26298369384E+03 0.  0.
         25    1    4    4    0    0  0.13053004105E+02  0.51626324976E+02  0.14201744314E+03  0.19660142574E+03  0.12509000000E+03 0.  0.
         25    1    4    4    0    0 -0.11391143239E+02  0.51260317331E+02  0.48589568940E+02  0.14410354814E+03  0.12509000000E+03 0.  0.
         25    1    3    3    0    0 -0.16618608665E+01 -0.10288664231E+03  0.17673489400E+03  0.23973142014E+03  0.12509000000E+03 0.  0.
<mgrwt>
<rscale>  2 0.44940664E+03</rscale>
<asrwt>0</asrwt>
<pdfrwt beam="1">  1       21 0.69689580E-01 0.44940664E+03</pdfrwt>
<pdfrwt beam="2">  1       21 0.15668713E-01 0.44940664E+03</pdfrwt>
<totfact> 0.62622355E+04</totfact>
</mgrwt>
</event>
<event>
 7    0  0.4705418E-002  0.4456114E+03  0.7546771E-02  0.1029039E+00
         21   -1    0    0  502  501  0.00000000000E+00  0.00000000000E+00  0.28653827077E+02  0.28653827077E+02  0.00000000000E+00 0.  1.
         21   -1    0    0  501  502 -0.00000000000E+00 -0.00000000000E+00 -0.17324870614E+04  0.17324870614E+04  0.00000000000E+00 0.  1.
      99926    2    1    2    0    0  0.00000000000E+00  0.00000000000E+00 -0.17038332343E+04  0.17611408884E+04  0.44561142117E+03 0.  0.
      99925    2    3    3    0    0  0.74496828997E+01 -0.66438369755E+02 -0.75851210947E+03  0.80523864873E+03  0.26191431128E+03 0.  0.
         25    1    4    4    0    0 -0.26114138394E+02 -0.58336801454E+02 -0.40352269968E+03  0.42727416009E+03  0.12509000000E+03 0.  0.
         25    1    3    3    0    0 -0.74496828997E+01  0.66438369755E+02 -0.94532112481E+03  0.95590223970E+03  0.12509000000E+03 0.  0.
         25    1    4    4    0    0  0.33563821293E+02 -0.81015683012E+01 -0.35498940979E+03  0.37796448864E+03  0.12509000000E+03 0.  0.
<mgrwt>
<rscale>  2 0.44561142E+03</rscale>
<asrwt>0</asrwt>
<pdfrwt beam="1">  1       21 0.42137992E-02 0.44561142E+03</pdfrwt>
<pdfrwt beam="2">  1       21 0.25477744E+00 0.44561142E+03</pdfrwt>
<totfact> 0.19393714E+04</totfact>
</mgrwt>
</event>
<event>
 7    0  0.4705418E-002  0.4261436E+03  0.7546771E-02  0.1035085E+00
         21   -1    0    0  502  501  0.00000000000E+00  0.00000000000E+00  0.11350767021E+03  0.11350767021E+03  0.00000000000E+00 0.  1.
         21   -1    0    0  501  502 -0.00000000000E+00 -0.00000000000E+00 -0.39996930260E+03  0.39996930260E+03  0.00000000000E+00 0.  1.
      99926    2    1    2    0    0  0.00000000000E+00  0.71054273576E-14 -0.28646163240E+03  0.51347697281E+03  0.42614356122E+03 0.  0.
      99925    2    3    3    0    0 -0.61621398691E+02 -0.46146068109E+02 -0.22363188025E+03  0.35372171551E+03  0.26302315066E+03 0.  0.
         25    1    3    3    0    0  0.61621398691E+02  0.46146068109E+02 -0.62829752145E+02  0.15975525729E+03  0.12509000000E+03 0.  0.
         25    1    4    4    0    0 -0.74780476237E+01  0.11774269845E+02 -0.98173129632E+02  0.15962464129E+03  0.12509000000E+03 0.  0.
         25    1    4    4    0    0 -0.54143351067E+02 -0.57920337954E+02 -0.12545875062E+03  0.19409707422E+03  0.12509000000E+03 0.  0.
<mgrwt>
<rscale>  2 0.42614356E+03</rscale>
<asrwt>0</asrwt>
<pdfrwt beam="1">  1       21 0.16692305E-01 0.42614356E+03</pdfrwt>
<pdfrwt beam="2">  1       21 0.58819015E-01 0.42614356E+03</pdfrwt>
<totfact> 0.81416973E+04</totfact>
</mgrwt>
</event>
<event>
 7    0  0.4705418E-002  0.4691780E+03  0.7546771E-02  0.1022152E+00
         21   -1    0    0  502  501  0.00000000000E+00  0.00000000000E+00  0.92597157170E+02  0.92597157170E+02  0.00000000000E+00 0. -1.
         21   -1    0    0  501  502 -0.00000000000E+00 -0.00000000000E+00 -0.59431632002E+03  0.59431632002E+03  0.00000000000E+00 0. -1.
      99926    2    1    2    0    0 -0.71054273576E-14  0.00000000000E+00 -0.50171916285E+03  0.68691347719E+03  0.46917801182E+03 0.  0.
      99925    2    3    3    0    0 -0.63725302142E+02  0.97912320127E+02 -0.38120620973E+03  0.47758450992E+03  0.26290883062E+03 0.  0.
         25    1    3    3    0    0  0.63725302142E+02 -0.97912320127E+02 -0.12051295312E+03  0.20932896726E+03  0.12509000000E+03 0.  0.
         25    1    4    4    0    0 -0.30856622773E+02  0.18607224370E+02 -0.12902723232E+03  0.18328637360E+03  0.12509000000E+03 0.  0.
         25    1    4    4    0    0 -0.32868679368E+02  0.79305095758E+02 -0.25217897741E+03  0.29429813632E+03  0.12509000000E+03 0.  0.
<mgrwt>
<rscale>  2 0.46917801E+03</rscale>
<asrwt>0</asrwt>
<pdfrwt beam="1">  1       21 0.13617229E-01 0.46917801E+03</pdfrwt>
<pdfrwt beam="2">  1       21 0.87399459E-01 0.46917801E+03</pdfrwt>
<totfact> 0.48026045E+04</totfact>
</mgrwt>
</event>
<event>
 7    0  0.4705418E-002  0.4513298E+03  0.7546771E-02  0.1027326E+00
         21   -1    0    0  502  501  0.00000000000E+00  0.00000000000E+00  0.37796282916E+02  0.37796282916E+02  0.00000000000E+00 0.  1.
         21   -1    0    0  501  502 -0.00000000000E+00 -0.00000000000E+00 -0.13473451475E+04  0.13473451475E+04  0.00000000000E+00 0.  1.
      99926    2    1    2    0    0  0.00000000000E+00  0.00000000000E+00 -0.13095488646E+04  0.13851414304E+04  0.45132976140E+03 0.  0.
      99925    2    3    3    0    0 -0.89687707139E+02  0.48470013197E+02 -0.70206882741E+03  0.75659331718E+03  0.26294406665E+03 0.  0.
         25    1    4    4    0    0 -0.12869466935E+02  0.49046807830E+02 -0.32063296804E+03  0.34788535587E+03  0.12509000000E+03 0.  0.
         25    1    3    3    0    0  0.89687707139E+02 -0.48470013197E+02 -0.60748003719E+03  0.62854811325E+03  0.12509000000E+03 0.  0.
         25    1    4    4    0    0 -0.76818240203E+02 -0.57679463392E+00 -0.38143585938E+03  0.40870796131E+03  0.12509000000E+03 0.  0.
<mgrwt>
<rscale>  2 0.45132976E+03</rscale>
<asrwt>0</asrwt>
<pdfrwt beam="1">  1       21 0.55582774E-02 0.45132976E+03</pdfrwt>
<pdfrwt beam="2">  1       21 0.19813897E+00 0.45132976E+03</pdfrwt>
<totfact> 0.27506954E+04</totfact>
</mgrwt>
</event>
<event>
 7    0  0.4705418E-002  0.4595506E+03  0.7546771E-02  0.1024912E+00
         21   -1    0    0  502  501  0.00000000000E+00  0.00000000000E+00  0.31597442733E+03  0.31597442733E+03  0.00000000000E+00 0.  1.
         21   -1    0    0  501  502 -0.00000000000E+00 -0.00000000000E+00 -0.16709163029E+03  0.16709163029E+03  0.00000000000E+00 0.  1.
      99926    2    1    2    0    0  0.00000000000E+00  0.00000000000E+00  0.14888279705E+03  0.48306605762E+03  0.45955057259E+03 0.  0.
      99925    2    3    3    0    0 -0.90650388911E+02 -0.44529174551E+02  0.15630907937E+03  0.32212197365E+03  0.26292526926E+03 0.  0.
         25    1    4    4    0    0 -0.16572261367E+02 -0.58878677500E+01  0.41753194106E+02  0.13304188871E+03  0.12509000000E+03 0.  0.
         25    1    4    4    0    0 -0.74078127543E+02 -0.38641306801E+02  0.11455588527E+03  0.18908008494E+03  0.12509000000E+03 0.  0.
         25    1    3    3    0    0  0.90650388911E+02  0.44529174551E+02 -0.74262823269E+01  0.16094408397E+03  0.12509000000E+03 0.  0.
<mgrwt>
<rscale>  2 0.45955057E+03</rscale>
<asrwt>0</asrwt>
<pdfrwt beam="1">  1       21 0.46466827E-01 0.45955057E+03</pdfrwt>
<pdfrwt beam="2">  1       21 0.24572299E-01 0.45955057E+03</pdfrwt>
<totfact> 0.64129704E+04</totfact>
</mgrwt>
</event>
<event>
 7    0  0.4705418E-002  0.4535149E+03  0.7546771E-02  0.1026679E+00
         21   -1    0    0  502  501  0.00000000000E+00  0.00000000000E+00  0.47294348065E+03  0.47294348065E+03  0.00000000000E+00 0.  1.
         21   -1    0    0  501  502 -0.00000000000E+00 -0.00000000000E+00 -0.10872110071E+03  0.10872110071E+03  0.00000000000E+00 0.  1.
      99926    2    1    2    0    0  0.14210854715E-13  0.00000000000E+00  0.36422237994E+03  0.58166458136E+03  0.45351487645E+03 0.  0.
      99925    2    3    3    0    0 -0.11006741042E+03 -0.18507063301E+02  0.23635742992E+03  0.37082269802E+03  0.26303477424E+03 0.  0.
         25    1    3    3    0    0  0.11006741042E+03  0.18507063301E+02  0.12786495002E+03  0.21084188334E+03  0.12509000000E+03 0.  0.
         25    1    4    4    0    0 -0.18804049960E+02  0.21627797906E+01  0.13269377580E+03  0.18333961969E+03  0.12509000000E+03 0.  0.
         25    1    4    4    0    0 -0.91263360456E+02 -0.20669843091E+02  0.10366365412E+03  0.18748307833E+03  0.12509000000E+03 0.  0.
<mgrwt>
<rscale>  2 0.45351488E+03</rscale>
<asrwt>0</asrwt>
<pdfrwt beam="1">  1       21 0.69550512E-01 0.45351488E+03</pdfrwt>
<pdfrwt beam="2">  1       21 0.15988397E-01 0.45351488E+03</pdfrwt>
<totfact> 0.60528801E+04</totfact>
</mgrwt>
</event>
<event>
 7    0  0.4705418E-002  0.4455087E+03  0.7546771E-02  0.1029070E+00
         21   -1    0    0  502  501  0.00000000000E+00  0.00000000000E+00  0.29011367427E+02  0.29011367427E+02  0.00000000000E+00 0. -1.
         21   -1    0    0  501  502 -0.00000000000E+00 -0.00000000000E+00 -0.17103470095E+04  0.17103470095E+04  0.00000000000E+00 0. -1.
      99926    2    1    2    0    0  0.00000000000E+00  0.14210854715E-13 -0.16813356420E+04  0.17393583769E+04  0.44550872279E+03 0.  0.
      99925    2    3    3    0    0  0.95394176400E+01  0.10322940324E+03 -0.11011672513E+04  0.11368717132E+04  0.26298415698E+03 0.  0.
         25    1    4    4    0    0  0.10561660445E+02  0.30782801158E+02 -0.38065736912E+03  0.40200332123E+03  0.12509000000E+03 0.  0.
         25    1    4    4    0    0 -0.10222428052E+01  0.72446602079E+02 -0.72050988217E+03  0.73486839199E+03  0.12509000000E+03 0.  0.
         25    1    3    3    0    0 -0.95394176400E+01 -0.10322940324E+03 -0.58016839076E+03  0.60248666368E+03  0.12509000000E+03 0.  0.
<mgrwt>
<rscale>  2 0.44550872E+03</rscale>
<asrwt>0</asrwt>
<pdfrwt beam="1">  1       21 0.42663762E-02 0.44550872E+03</pdfrwt>
<pdfrwt beam="2">  1       21 0.25152170E+00 0.44550872E+03</pdfrwt>
<totfact> 0.19879298E+04</totfact>
</mgrwt>
</event>
<event>
 7    0  0.4705418E-002  0.4441569E+03  0.7546771E-02  0.1029479E+00
         21   -1    0    0  502  501  0.00000000000E+00  0.00000000000E+00  0.82198163846E+03  0.82198163846E+03  0.00000000000E+00 0.  1.
         21   -1    0    0  501  502 -0.00000000000E+00 -0.00000000000E+00 -0.59999916842E+02  0.59999916842E+02  0.00000000000E+00 0.  1.
      99926    2    1    2    0    0  0.00000000000E+00  0.00000000000E+00  0.76198172162E+03  0.88198155531E+03  0.44415686397E+03 0.  0.
      99925    2    3    3    0    0 -0.30912187999E+02 -0.45640173658E+02  0.31238626600E+03  0.41206435979E+03  0.26300811510E+03 0.  0.
         25    1    4    4    0    0 -0.52135220443E+02 -0.41546447205E+02  0.16805973099E+03  0.21985397374E+03  0.12509000000E+03 0.  0.
         25    1    3    3    0    0  0.30912187999E+02  0.45640173658E+02  0.44959545562E+03  0.46991719551E+03  0.12509000000E+03 0.  0.
         25    1    4    4    0    0  0.21223032444E+02 -0.40937264535E+01  0.14432653500E+03  0.19221038606E+03  0.12509000000E+03 0.  0.
<mgrwt>
<rscale>  2 0.44415686E+03</rscale>
<asrwt>0</asrwt>
<pdfrwt beam="1">  1       21 0.12087965E+00 0.44415686E+03</pdfrwt>
<pdfrwt beam="2">  1       21 0.88235177E-02 0.44415686E+03</pdfrwt>
<totfact> 0.47966935E+04</totfact>
</mgrwt>
</event>
<event>
 7    0  0.4705418E-002  0.4555586E+03  0.7546771E-02  0.1026077E+00
         21   -1    0    0  502  501  0.00000000000E+00  0.00000000000E+00  0.35139464504E+03  0.35139464504E+03  0.00000000000E+00 0.  1.
         21   -1    0    0  501  502 -0.00000000000E+00 -0.00000000000E+00 -0.14764999684E+03  0.14764999684E+03  0.00000000000E+00 0.  1.
      99926    2    1    2    0    0  0.00000000000E+00  0.00000000000E+00  0.20374464820E+03  0.49904464188E+03  0.45555863829E+03 0.  0.
      99925    2    3    3    0    0 -0.85528255261E+01  0.10758936886E+03  0.16723574004E+03  0.32984348470E+03  0.26302149825E+03 0.  0.
         25    1    4    4    0    0 -0.94942104475E+00  0.17122321794E+02  0.49792111557E+02  0.13572338699E+03  0.12509000000E+03 0.  0.
         25    1    3    3    0    0  0.85528255261E+01 -0.10758936886E+03  0.36508908158E+02  0.16920115718E+03  0.12509000000E+03 0.  0.
         25    1    4    4    0    0 -0.76034044814E+01  0.90467047062E+02  0.11744362848E+03  0.19412009771E+03  0.12509000000E+03 0.  0.
<mgrwt>
<rscale>  2 0.45555864E+03</rscale>
<asrwt>0</asrwt>
<pdfrwt beam="1">  1       21 0.51675683E-01 0.45555864E+03</pdfrwt>
<pdfrwt beam="2">  1       21 0.21713235E-01 0.45555864E+03</pdfrwt>
<totfact> 0.65048885E+04</totfact>
</mgrwt>
</event>
<event>
 7    0  0.4705418E-002  0.4531939E+03  0.7546771E-02  0.1026774E+00
         21   -1    0    0  502  501  0.00000000000E+00  0.00000000000E+00  0.52116237207E+03  0.52116237207E+03  0.00000000000E+00 0. -1.
         21   -1    0    0  501  502 -0.00000000000E+00 -0.00000000000E+00 -0.98522412041E+02  0.98522412041E+02  0.00000000000E+00 0. -1.
      99926    2    1    2    0    0  0.00000000000E+00  0.00000000000E+00  0.42263996003E+03  0.61968478412E+03  0.45319388329E+03 0.  0.
      99925    2    3    3    0    0 -0.62903238031E+02 -0.79073792413E+02  0.33071908539E+03  0.43446481409E+03  0.26301155724E+03 0.  0.
         25    1    3    3    0    0  0.62903238031E+02  0.79073792413E+02  0.91920874645E+02  0.18521997003E+03  0.12509000000E+03 0.  0.
         25    1    4    4    0    0  0.20293226632E+00 -0.12944983719E+02  0.16707909233E+03  0.20911849507E+03  0.12509000000E+03 0.  0.
         25    1    4    4    0    0 -0.63106170298E+02 -0.66128808693E+02  0.16363999306E+03  0.22534631902E+03  0.12509000000E+03 0.  0.
<mgrwt>
<rscale>  2 0.45319388E+03</rscale>
<asrwt>0</asrwt>
<pdfrwt beam="1">  1       21 0.76641524E-01 0.45319388E+03</pdfrwt>
<pdfrwt beam="2">  1       21 0.14488590E-01 0.45319388E+03</pdfrwt>
<totfact> 0.58309867E+04</totfact>
</mgrwt>
</event>
<event>
 7    0  0.4705418E-002  0.4556658E+03  0.7546771E-02  0.1026046E+00
         21   -1    0    0  502  501  0.00000000000E+00  0.00000000000E+00  0.18029788519E+04  0.18029788519E+04  0.00000000000E+00 0.  1.
         21   -1    0    0  501  502 -0.00000000000E+00 -0.00000000000E+00 -0.28790033171E+02  0.28790033171E+02  0.00000000000E+00 0.  1.
      99926    2    1    2    0    0  0.17763568394E-14  0.00000000000E+00  0.17741888187E+04  0.18317688850E+04  0.45566575887E+03 0.  0.
      99925    2    3    3    0    0  0.12269532629E+02  0.11307002105E+03  0.11235306793E+04  0.11595048792E+04  0.26304943728E+03 0.  0.
         25    1    4    4    0    0  0.28443354005E+02  0.85134880945E+02  0.52060684145E+03  0.54289590512E+03  0.12509000000E+03 0.  0.
         25    1    4    4    0    0 -0.16173821376E+02  0.27935140106E+02  0.60292383785E+03  0.61660897407E+03  0.12509000000E+03 0.  0.
         25    1    3    3    0    0 -0.12269532629E+02 -0.11307002105E+03  0.65065813940E+03  0.67226400585E+03  0.12509000000E+03 0.  0.
<mgrwt>
<rscale>  2 0.45566576E+03</rscale>
<asrwt>0</asrwt>
<pdfrwt beam="1">  1       21 0.26514387E+00 0.45566576E+03</pdfrwt>
<pdfrwt beam="2">  1       21 0.42338296E-02 0.45566576E+03</pdfrwt>
<totfact> 0.16571187E+04</totfact>
</mgrwt>
</event>
<event>
 7    0  0.4705418E-002  0.4556417E+03  0.7546771E-02  0.1026053E+00
         21   -1    0    0  502  501  0.00000000000E+00  0.00000000000E+00  0.79806463133E+03  0.79806463133E+03  0.00000000000E+00 0. -1.
         21   -1    0    0  501  502 -0.00000000000E+00 -0.00000000000E+00 -0.65035259730E+02  0.65035259730E+02  0.00000000000E+00 0. -1.
      99926    2    1    2    0    0  0.00000000000E+00  0.00000000000E+00  0.73302937160E+03  0.86309989106E+03  0.45564170388E+03 0.  0.
      99925    2    3    3    0    0  0.88690695871E+02  0.64433625821E+01  0.59476960858E+03  0.65653070985E+03  0.26338969081E+03 0.  0.
         25    1    3    3    0    0 -0.88690695871E+02 -0.64433625821E+01  0.13825976302E+03  0.20656918121E+03  0.12509000000E+03 0.  0.
         25    1    4    4    0    0  0.82206186739E+02  0.80397587006E+00  0.37041681095E+03  0.39951799140E+03  0.12509000000E+03 0.  0.
         25    1    4    4    0    0  0.64845091319E+01  0.56393867121E+01  0.22435279763E+03  0.25701271845E+03  0.12509000000E+03 0.  0.
<mgrwt>
<rscale>  2 0.45564170E+03</rscale>
<asrwt>0</asrwt>
<pdfrwt beam="1">  1       21 0.11736244E+00 0.45564170E+03</pdfrwt>
<pdfrwt beam="2">  1       21 0.95640093E-02 0.45564170E+03</pdfrwt>
<totfact> 0.44633816E+04</totfact>
</mgrwt>
</event>
<event>
 7    0  0.4705418E-002  0.4539372E+03  0.7546771E-02  0.1026554E+00
         21   -1    0    0  502  501  0.00000000000E+00  0.00000000000E+00  0.14443683441E+04  0.14443683441E+04  0.00000000000E+00 0.  1.
         21   -1    0    0  501  502 -0.00000000000E+00 -0.00000000000E+00 -0.35665931652E+02  0.35665931652E+02  0.00000000000E+00 0.  1.
      99926    2    1    2    0    0  0.17763568394E-14  0.00000000000E+00  0.14087024124E+04  0.14800342757E+04  0.45393718791E+03 0.  0.
      99925    2    3    3    0    0  0.12934268280E+02  0.40439782066E+02  0.12258313803E+04  0.12544417365E+04  0.26298065723E+03 0.  0.
         25    1    4    4    0    0  0.46806199551E+02  0.17345636653E+02  0.60578235463E+03  0.62057349340E+03  0.12509000000E+03 0.  0.
         25    1    3    3    0    0 -0.12934268280E+02 -0.40439782066E+02  0.18287103218E+03  0.22559253928E+03  0.12509000000E+03 0.  0.
         25    1    4    4    0    0 -0.33871931271E+02  0.23094145413E+02  0.62004902562E+03  0.63386824306E+03  0.12509000000E+03 0.  0.
<mgrwt>
<rscale>  2 0.45393719E+03</rscale>
<asrwt>0</asrwt>
<pdfrwt beam="1">  1       21 0.21240707E+00 0.45393719E+03</pdfrwt>
<pdfrwt beam="2">  1       21 0.52449909E-02 0.45393719E+03</pdfrwt>
<totfact> 0.24474156E+04</totfact>
</mgrwt>
</event>
<event>
 7    0  0.4705418E-002  0.4308759E+03  0.7546771E-02  0.1033584E+00
         21   -1    0    0  502  501  0.00000000000E+00  0.00000000000E+00  0.55857238248E+02  0.55857238248E+02  0.00000000000E+00 0. -1.
         21   -1    0    0  501  502 -0.00000000000E+00 -0.00000000000E+00 -0.83093117479E+03  0.83093117479E+03  0.00000000000E+00 0. -1.
      99926    2    1    2    0    0  0.00000000000E+00  0.00000000000E+00 -0.77507393655E+03  0.88678841304E+03  0.43087594780E+03 0.  0.
      99925    2    3    3    0    0 -0.65721354950E+02  0.12668267162E+02 -0.37968947594E+03  0.46672155970E+03  0.26303067247E+03 0.  0.
         25    1    3    3    0    0  0.65721354950E+02 -0.12668267162E+02 -0.39538446060E+03  0.42006685334E+03  0.12509000000E+03 0.  0.
         25    1    4    4    0    0 -0.74366082249E+02  0.51251251517E+01 -0.19531513530E+03  0.24362284637E+03  0.12509000000E+03 0.  0.
         25    1    4    4    0    0  0.86447272987E+01  0.75431420102E+01 -0.18437434065E+03  0.22309871333E+03  0.12509000000E+03 0.  0.
<mgrwt>
<rscale>  2 0.43087595E+03</rscale>
<asrwt>0</asrwt>
<pdfrwt beam="1">  1       21 0.82143004E-02 0.43087595E+03</pdfrwt>
<pdfrwt beam="2">  1       21 0.12219575E+00 0.43087595E+03</pdfrwt>
<totfact> 0.53159870E+04</totfact>
</mgrwt>
</event>
<event>
 7    0  0.4705418E-002  0.4517666E+03  0.7546771E-02  0.1027197E+00
         21   -1    0    0  502  501  0.00000000000E+00  0.00000000000E+00  0.25439702712E+04  0.25439702712E+04  0.00000000000E+00 0.  1.
         21   -1    0    0  501  502 -0.00000000000E+00 -0.00000000000E+00 -0.20056547840E+02  0.20056547840E+02  0.00000000000E+00 0.  1.
      99926    2    1    2    0    0  0.53290705182E-14  0.00000000000E+00  0.25239137234E+04  0.25640268191E+04  0.45176658331E+03 0.  0.
      99925    2    3    3    0    0 -0.90705467360E+01  0.90249448266E+02  0.19470269557E+04  0.19668056803E+04  0.26302733736E+03 0.  0.
         25    1    4    4    0    0 -0.41308365521E+02  0.59243044002E+02  0.10945938287E+04  0.11040830029E+04  0.12509000000E+03 0.  0.
         25    1    4    4    0    0  0.32237818785E+02  0.31006404264E+02  0.85243312700E+03  0.86272267744E+03  0.12509000000E+03 0.  0.
         25    1    3    3    0    0  0.90705467360E+01 -0.90249448266E+02  0.57688676773E+03  0.59722113879E+03  0.12509000000E+03 0.  0.
<mgrwt>
<rscale>  2 0.45176658E+03</rscale>
<asrwt>0</asrwt>
<pdfrwt beam="1">  1       21 0.37411305E+00 0.45176658E+03</pdfrwt>
<pdfrwt beam="2">  1       21 0.29494941E-02 0.45176658E+03</pdfrwt>
<totfact> 0.66647383E+03</totfact>
</mgrwt>
</event>
<event>
 7    0  0.4705418E-002  0.4487956E+03  0.7546771E-02  0.1028082E+00
         21   -1    0    0  502  501  0.00000000000E+00  0.00000000000E+00  0.59559915052E+03  0.59559915052E+03  0.00000000000E+00 0. -1.
         21   -1    0    0  501  502 -0.00000000000E+00 -0.00000000000E+00 -0.84544058727E+02  0.84544058727E+02  0.00000000000E+00 0. -1.
      99926    2    1    2    0    0  0.71054273576E-14  0.00000000000E+00  0.51105509179E+03  0.68014320924E+03  0.44879558625E+03 0.  0.
      99925    2    3    3    0    0  0.37660741164E+02  0.68414639310E+02  0.21198908057E+03  0.34669623975E+03  0.26298292355E+03 0.  0.
         25    1    4    4    0    0 -0.11409629505E+02  0.11555753497E+02  0.76134770971E+02  0.14733542186E+03  0.12509000000E+03 0.  0.
         25    1    3    3    0    0 -0.37660741164E+02 -0.68414639310E+02  0.29906601122E+03  0.33344696949E+03  0.12509000000E+03 0.  0.
         25    1    4    4    0    0  0.49070370669E+02  0.56858885813E+02  0.13585430960E+03  0.19936081789E+03  0.12509000000E+03 0.  0.
<mgrwt>
<rscale>  2 0.44879559E+03</rscale>
<asrwt>0</asrwt>
<pdfrwt beam="1">  1       21 0.87588108E-01 0.44879559E+03</pdfrwt>
<pdfrwt beam="2">  1       21 0.12432950E-01 0.44879559E+03</pdfrwt>
<totfact> 0.56715145E+04</totfact>
</mgrwt>
</event>
<event>
 7    0  0.4705418E-002  0.4508324E+03  0.7546771E-02  0.1027474E+00
         21   -1    0    0  502  501  0.00000000000E+00  0.00000000000E+00  0.38263179988E+03  0.38263179988E+03  0.00000000000E+00 0.  1.
         21   -1    0    0  501  502 -0.00000000000E+00 -0.00000000000E+00 -0.13279725814E+03  0.13279725814E+03  0.00000000000E+00 0.  1.
      99926    2    1    2    0    0  0.00000000000E+00  0.00000000000E+00  0.24983454174E+03  0.51542905803E+03  0.45083235866E+03 0.  0.
      99925    2    3    3    0    0  0.93140338268E+02  0.29859414503E+02  0.10229697681E+03  0.29867678373E+03  0.26301414872E+03 0.  0.
         25    1    4    4    0    0  0.31310978491E+02  0.48927131974E+02  0.67784419430E+02  0.15367653443E+03  0.12509000000E+03 0.  0.
         25    1    4    4    0    0  0.61829359777E+02 -0.19067717470E+02  0.34512557375E+02  0.14500024930E+03  0.12509000000E+03 0.  0.
         25    1    3    3    0    0 -0.93140338268E+02 -0.29859414503E+02  0.14753756493E+03  0.21675227430E+03  0.12509000000E+03 0.  0.
<mgrwt>
<rscale>  2 0.45083236E+03</rscale>
<asrwt>0</asrwt>
<pdfrwt beam="1">  1       21 0.56269382E-01 0.45083236E+03</pdfrwt>
<pdfrwt beam="2">  1       21 0.19529009E-01 0.45083236E+03</pdfrwt>
<totfact> 0.66367357E+04</totfact>
</mgrwt>
</event>
<event>
 7    0  0.4705418E-002  0.4539649E+03  0.7546771E-02  0.1026546E+00
         21   -1    0    0  502  501  0.00000000000E+00  0.00000000000E+00  0.88050943378E+02  0.88050943378E+02  0.00000000000E+00 0.  1.
         21   -1    0    0  501  502 -0.00000000000E+00 -0.00000000000E+00 -0.58512747817E+03  0.58512747817E+03  0.00000000000E+00 0.  1.
      99926    2    1    2    0    0  0.14210854715E-13  0.14210854715E-13 -0.49707653479E+03  0.67317842155E+03  0.45396487287E+03 0.  0.
      99925    2    3    3    0    0  0.44940640641E+02  0.10263815593E+03 -0.30870402120E+03  0.42081763971E+03  0.26312556119E+03 0.  0.
         25    1    4    4    0    0  0.54660542304E+00  0.30913793012E+02 -0.18638331205E+03  0.22658819141E+03  0.12509000000E+03 0.  0.
         25    1    4    4    0    0  0.44394035218E+02  0.71724362919E+02 -0.12232070916E+03  0.19422944830E+03  0.12509000000E+03 0.  0.
         25    1    3    3    0    0 -0.44940640641E+02 -0.10263815593E+03 -0.18837251359E+03  0.25236078184E+03  0.12509000000E+03 0.  0.
<mgrwt>
<rscale>  2 0.45396487E+03</rscale>
<asrwt>0</asrwt>
<pdfrwt beam="1">  1       21 0.12948669E-01 0.45396487E+03</pdfrwt>
<pdfrwt beam="2">  1       21 0.86048156E-01 0.45396487E+03</pdfrwt>
<totfact> 0.54829794E+04</totfact>
</mgrwt>
</event>
<event>
 6    0  0.4705418E-002  0.4536259E+03  0.7546771E-02  0.1026646E+00
         21   -1    0    0  502  501  0.00000000000E+00  0.00000000000E+00  0.26750431587E+03  0.26750431587E+03  0.00000000000E+00 0. -1.
         21   -1    0    0  501  502 -0.00000000000E+00 -0.00000000000E+00 -0.19231137109E+03  0.19231137109E+03  0.00000000000E+00 0. -1.
      99926    2    1    2    0    0  0.00000000000E+00  0.00000000000E+00  0.75192944787E+02  0.45981568696E+03  0.45362593293E+03 0.  0.
         25    1    3    3    0    0 -0.42395655897E+02  0.65088966882E+01 -0.71105160245E+01  0.13243045312E+03  0.12509000000E+03 0.  0.
         25    1    3    3    0    0  0.10229868902E+03  0.21430358374E+02 -0.13703957791E+01  0.16301431875E+03  0.12509000000E+03 0.  0.
         25    1    3    3    0    0 -0.59903033119E+02 -0.27939255062E+02  0.83673856590E+02  0.16437091509E+03  0.12509000000E+03 0.  0.
<mgrwt>
<rscale>  2 0.45362593E+03</rscale>
<asrwt>0</asrwt>
<pdfrwt beam="1">  1       21 0.39338870E-01 0.45362593E+03</pdfrwt>
<pdfrwt beam="2">  1       21 0.28281084E-01 0.45362593E+03</pdfrwt>
<totfact> 0.68946312E+04</totfact>
</mgrwt>
</event>
<event>
 7    0  0.4705418E-002  0.4461086E+03  0.7546771E-02  0.1028889E+00
         21   -1    0    0  502  501  0.00000000000E+00  0.00000000000E+00  0.27175439557E+02  0.27175439557E+02  0.00000000000E+00 0.  1.
         21   -1    0    0  501  502 -0.00000000000E+00 -0.00000000000E+00 -0.18308154958E+04  0.18308154958E+04  0.00000000000E+00 0.  1.
      99926    2    1    2    0    0 -0.35527136788E-14  0.00000000000E+00 -0.18036400563E+04  0.18579909354E+04  0.44610857803E+03 0.  0.
      99925    2    3    3    0    0 -0.21280953544E+02 -0.79297951973E+02 -0.14130091514E+04  0.14396835650E+04  0.26334931412E+03 0.  0.
         25    1    3    3    0    0  0.21280953544E+02  0.79297951973E+02 -0.39063090487E+03  0.41830737037E+03  0.12509000000E+03 0.  0.
         25    1    4    4    0    0  0.17269088130E+02 -0.65937455121E+02 -0.65168441505E+03  0.66707275039E+03  0.12509000000E+03 0.  0.
         25    1    4    4    0    0 -0.38550041675E+02 -0.13360496853E+02 -0.76132473634E+03  0.77261081461E+03  0.12509000000E+03 0.  0.
<mgrwt>
<rscale>  2 0.44610858E+03</rscale>
<asrwt>0</asrwt>
<pdfrwt beam="1">  1       21 0.39963879E-02 0.44610858E+03</pdfrwt>
<pdfrwt beam="2">  1       21 0.26923759E+00 0.44610858E+03</pdfrwt>
<totfact> 0.17335796E+04</totfact>
</mgrwt>
</event>
<event>
 7    0  0.4705418E-002  0.4459856E+03  0.7546771E-02  0.1028926E+00
         21   -1    0    0  502  501  0.00000000000E+00  0.00000000000E+00  0.13226699632E+03  0.13226699632E+03  0.00000000000E+00 0.  1.
         21   -1    0    0  501  502 -0.00000000000E+00 -0.00000000000E+00 -0.37595012042E+03  0.37595012042E+03  0.00000000000E+00 0.  1.
      99926    2    1    2    0    0 -0.17763568394E-14  0.00000000000E+00 -0.24368312409E+03  0.50821711674E+03  0.44598561948E+03 0.  0.
      99925    2    3    3    0    0 -0.11150142426E+02  0.73370875186E+02 -0.70815727948E+02  0.28230063715E+03  0.26300412812E+03 0.  0.
         25    1    4    4    0    0  0.48300695319E+01 -0.40368298596E+00 -0.49666994173E+02  0.13467669042E+03  0.12509000000E+03 0.  0.
         25    1    4    4    0    0 -0.15980211958E+02  0.73774558172E+02 -0.21148733775E+02  0.14762394673E+03  0.12509000000E+03 0.  0.
         25    1    3    3    0    0  0.11150142426E+02 -0.73370875186E+02 -0.17286739614E+03  0.22591647959E+03  0.12509000000E+03 0.  0.
<mgrwt>
<rscale>  2 0.44598562E+03</rscale>
<asrwt>0</asrwt>
<pdfrwt beam="1">  1       21 0.19451029E-01 0.44598562E+03</pdfrwt>
<pdfrwt beam="2">  1       21 0.55286781E-01 0.44598562E+03</pdfrwt>
<totfact> 0.69540016E+04</totfact>
</mgrwt>
</event>
<event>
 7    0  0.4705418E-002  0.4575953E+03  0.7546771E-02  0.1025481E+00
         21   -1    0    0  502  501  0.00000000000E+00  0.00000000000E+00  0.16117634293E+04  0.16117634293E+04  0.00000000000E+00 0.  1.
         21   -1    0    0  501  502 -0.00000000000E+00 -0.00000000000E+00 -0.32478931673E+02  0.32478931673E+02  0.00000000000E+00 0.  1.
      99926    2    1    2    0    0 -0.88817841970E-15  0.00000000000E+00  0.15792844976E+04  0.16442423610E+04  0.45759525475E+03 0.  0.
      99925    2    3    3    0    0  0.65727000656E+01  0.11531040527E+03  0.98913981567E+03  0.10300290888E+04  0.26310199337E+03 0.  0.
         25    1    4    4    0    0  0.31187446721E+02  0.48720508875E+02  0.38249196550E+03  0.40656359476E+03  0.12509000000E+03 0.  0.
         25    1    3    3    0    0 -0.65727000656E+01 -0.11531040527E+03  0.59014468194E+03  0.61421327214E+03  0.12509000000E+03 0.  0.
         25    1    4    4    0    0 -0.24614746655E+02  0.66589896393E+02  0.60664785018E+03  0.62346549406E+03  0.12509000000E+03 0.  0.
<mgrwt>
<rscale>  2 0.45759525E+03</rscale>
<asrwt>0</asrwt>
<pdfrwt beam="1">  1       21 0.23702398E+00 0.45759525E+03</pdfrwt>
<pdfrwt beam="2">  1       21 0.47763146E-02 0.45759525E+03</pdfrwt>
<totfact> 0.20041329E+04</totfact>
</mgrwt>
</event>
<event>
 7    0  0.4705418E-002  0.4524907E+03  0.7546771E-02  0.1026982E+00
         21   -1    0    0  502  501  0.00000000000E+00  0.00000000000E+00  0.59738297367E+03  0.59738297367E+03  0.00000000000E+00 0.  1.
         21   -1    0    0  501  502 -0.00000000000E+00 -0.00000000000E+00 -0.85685324197E+02  0.85685324197E+02  0.00000000000E+00 0.  1.
      99926    2    1    2    0    0  0.00000000000E+00  0.00000000000E+00  0.51169764948E+03  0.68306829787E+03  0.45249067954E+03 0.  0.
      99925    2    3    3    0    0  0.34415994875E+02  0.98243031866E+02  0.26539808800E+03  0.38786136012E+03  0.26299075182E+03 0.  0.
         25    1    4    4    0    0  0.16541253155E+02  0.89964959759E+02  0.16401579077E+03  0.22564572844E+03  0.12509000000E+03 0.  0.
         25    1    3    3    0    0 -0.34415994875E+02 -0.98243031866E+02  0.24629956148E+03  0.29520693775E+03  0.12509000000E+03 0.  0.
         25    1    4    4    0    0  0.17874741720E+02  0.82780721073E+01  0.10138229722E+03  0.16221563168E+03  0.12509000000E+03 0.  0.
<mgrwt>
<rscale>  2 0.45249068E+03</rscale>
<asrwt>0</asrwt>
<pdfrwt beam="1">  1       21 0.87850435E-01 0.45249068E+03</pdfrwt>
<pdfrwt beam="2">  1       21 0.12600783E-01 0.45249068E+03</pdfrwt>
<totfact> 0.54909033E+04</totfact>
</mgrwt>
</event>
<event>
 7    0  0.4705418E-002  0.4558479E+03  0.7546771E-02  0.1025992E+00
         21   -1    0    0  502  501  0.00000000000E+00  0.00000000000E+00  0.27891337596E+03  0.27891337596E+03  0.00000000000E+00 0.  1.
         21   -1    0    0  501  502 -0.00000000000E+00 -0.00000000000E+00 -0.18625609382E+03  0.18625609382E+03  0.00000000000E+00 0.  1.
      99926    2    1    2    0    0 -0.35527136788E-14  0.00000000000E+00  0.92657282133E+02  0.46516946978E+03  0.45584785146E+03 0.  0.
      99925    2    3    3    0    0  0.20386692799E+02  0.26009910852E+02  0.16958825081E+03  0.31464367549E+03  0.26296071001E+03 0.  0.
         25    1    3    3    0    0 -0.20386692799E+02 -0.26009910852E+02 -0.76930968674E+02  0.15052579429E+03  0.12509000000E+03 0.  0.
         25    1    4    4    0    0  0.47242544562E+02  0.26623073089E+02  0.99285784955E+02  0.16865889016E+03  0.12509000000E+03 0.  0.
         25    1    4    4    0    0 -0.26855851763E+02 -0.61316223666E+00  0.70302465852E+02  0.14598478533E+03  0.12509000000E+03 0.  0.
<mgrwt>
<rscale>  2 0.45584785E+03</rscale>
<asrwt>0</asrwt>
<pdfrwt beam="1">  1       21 0.41016673E-01 0.45584785E+03</pdfrwt>
<pdfrwt beam="2">  1       21 0.27390602E-01 0.45584785E+03</pdfrwt>
<totfact> 0.67342664E+04</totfact>
</mgrwt>
</event>
<event>
 7    0  0.4705418E-002  0.4569555E+03  0.7546771E-02  0.1025668E+00
         21   -1    0    0  502  501  0.00000000000E+00  0.00000000000E+00  0.39615204760E+03  0.39615204760E+03  0.00000000000E+00 0.  1.
         21   -1    0    0  501  502 -0.00000000000E+00 -0.00000000000E+00 -0.13177286565E+03  0.13177286565E+03  0.00000000000E+00 0.  1.
      99926    2    1    2    0    0  0.00000000000E+00  0.00000000000E+00  0.26437918195E+03  0.52792491326E+03  0.45695553634E+03 0.  0.
      99925    2    3    3    0    0  0.10773230689E+03  0.25349807587E+02  0.20218235048E+03  0.34969804481E+03  0.26298699019E+03 0.  0.
         25    1    4    4    0    0  0.70600268085E+02  0.50789106144E+02  0.10537131980E+03  0.18524188050E+03  0.12509000000E+03 0.  0.
         25    1    4    4    0    0  0.37132038802E+02 -0.25439298557E+02  0.96811030682E+02  0.16445616431E+03  0.12509000000E+03 0.  0.
         25    1    3    3    0    0 -0.10773230689E+03 -0.25349807587E+02  0.62196831472E+02  0.17822686845E+03  0.12509000000E+03 0.  0.
<mgrwt>
<rscale>  2 0.45695554E+03</rscale>
<asrwt>0</asrwt>
<pdfrwt beam="1">  1       21 0.58257654E-01 0.45695554E+03</pdfrwt>
<pdfrwt beam="2">  1       21 0.19378363E-01 0.45695554E+03</pdfrwt>
<totfact> 0.62374724E+04</totfact>
</mgrwt>
</event>
<event>
 7    0  0.4705418E-002  0.4550555E+03  0.7546771E-02  0.1026225E+00
         21   -1    0    0  502  501  0.00000000000E+00  0.00000000000E+00  0.93926077275E+02  0.93926077275E+02  0.00000000000E+00 0. -1.
         21   -1    0    0  501  502 -0.00000000000E+00 -0.00000000000E+00 -0.55116621070E+03  0.55116621070E+03  0.00000000000E+00 0. -1.
      99926    2    1    2    0    0  0.00000000000E+00 -0.31086244690E-14 -0.45724013342E+03  0.64509228797E+03  0.45505551353E+03 0.  0.
      99925    2    3    3    0    0  0.11317514228E+03  0.23954466462E+01 -0.29629531167E+03  0.41192905172E+03  0.26283127845E+03 0.  0.
         25    1    4    4    0    0  0.65007326403E+02  0.32488359037E+02 -0.18669585222E+03  0.23618699222E+03  0.12509000000E+03 0.  0.
         25    1    3    3    0    0 -0.11317514228E+03 -0.23954466462E+01 -0.16094482175E+03  0.23316323626E+03  0.12509000000E+03 0.  0.
         25    1    4    4    0    0  0.48167815875E+02 -0.30092912391E+02 -0.10959945945E+03  0.17574205949E+03  0.12509000000E+03 0.  0.
<mgrwt>
<rscale>  2 0.45505551E+03</rscale>
<asrwt>0</asrwt>
<pdfrwt beam="1">  1       21 0.13812658E-01 0.45505551E+03</pdfrwt>
<pdfrwt beam="2">  1       21 0.81053855E-01 0.45505551E+03</pdfrwt>
<totfact> 0.55960594E+04</totfact>
</mgrwt>
</event>
<event>
 7    0  0.4705418E-002  0.4526867E+03  0.7546771E-02  0.1026924E+00
         21   -1    0    0  502  501  0.00000000000E+00  0.00000000000E+00  0.59987134601E+03  0.59987134601E+03  0.00000000000E+00 0.  1.
         21   -1    0    0  501  502 -0.00000000000E+00 -0.00000000000E+00 -0.85403822819E+02  0.85403822819E+02  0.00000000000E+00 0.  1.
      99926    2    1    2    0    0  0.00000000000E+00  0.00000000000E+00  0.51446752319E+03  0.68527516882E+03  0.45268667375E+03 0.  0.
      99925    2    3    3    0    0 -0.33504172330E+02  0.50895769402E+02  0.18398698604E+03  0.32669769820E+03  0.26299670354E+03 0.  0.
         25    1    3    3    0    0  0.33504172330E+02 -0.50895769402E+02  0.33048053714E+03  0.35857747062E+03  0.12509000000E+03 0.  0.
         25    1    4    4    0    0 -0.20590957840E+02 -0.86138197490E+01  0.60754453632E+02  0.14084316516E+03  0.12509000000E+03 0.  0.
         25    1    4    4    0    0 -0.12913214491E+02  0.59509589151E+02  0.12323253241E+03  0.18585453305E+03  0.12509000000E+03 0.  0.
<mgrwt>
<rscale>  2 0.45268667E+03</rscale>
<asrwt>0</asrwt>
<pdfrwt beam="1">  1       21 0.88216372E-01 0.45268667E+03</pdfrwt>
<pdfrwt beam="2">  1       21 0.12559386E-01 0.45268667E+03</pdfrwt>
<totfact> 0.54699394E+04</totfact>
</mgrwt>
</event>
<event>
 7    0  0.4705418E-002  0.4480565E+03  0.7546771E-02  0.1028303E+00
         21   -1    0    0  502  501  0.00000000000E+00  0.00000000000E+00  0.20718857262E+03  0.20718857262E+03  0.00000000000E+00 0. -1.
         21   -1    0    0  501  502 -0.00000000000E+00 -0.00000000000E+00 -0.24223659964E+03  0.24223659964E+03  0.00000000000E+00 0. -1.
      99926    2    1    2    0    0 -0.14210854715E-13 -0.71054273576E-14 -0.35048027020E+02  0.44942517226E+03  0.44805649338E+03 0.  0.
      99925    2    3    3    0    0 -0.82660610017E+02 -0.61636101558E+02 -0.49040482234E+02  0.28671351820E+03  0.26299788432E+03 0.  0.
         25    1    4    4    0    0 -0.16008925671E+02 -0.22202681427E+02 -0.55248872850E+02  0.13946035571E+03  0.12509000000E+03 0.  0.
         25    1    4    4    0    0 -0.66651684346E+02 -0.39433420131E+02  0.62083906159E+01  0.14725316249E+03  0.12509000000E+03 0.  0.
         25    1    3    3    0    0  0.82660610017E+02  0.61636101558E+02  0.13992455213E+02  0.16271165406E+03  0.12509000000E+03 0.  0.
<mgrwt>
<rscale>  2 0.44805649E+03</rscale>
<asrwt>0</asrwt>
<pdfrwt beam="1">  1       21 0.30468908E-01 0.44805649E+03</pdfrwt>
<pdfrwt beam="2">  1       21 0.35623029E-01 0.44805649E+03</pdfrwt>
<totfact> 0.72912598E+04</totfact>
</mgrwt>
</event>
<event>
 7    0  0.4705418E-002  0.4341150E+03  0.7546771E-02  0.1032568E+00
         21   -1    0    0  502  501  0.00000000000E+00  0.00000000000E+00  0.72020130863E+03  0.72020130863E+03  0.00000000000E+00 0. -1.
         21   -1    0    0  501  502 -0.00000000000E+00 -0.00000000000E+00 -0.65417762228E+02  0.65417762228E+02  0.00000000000E+00 0. -1.
      99926    2    1    2    0    0 -0.71054273576E-14  0.00000000000E+00  0.65478354640E+03  0.78561907085E+03  0.43411499842E+03 0.  0.
      99925    2    3    3    0    0  0.46825854774E+02  0.30058775222E+02  0.55296940959E+03  0.61500307747E+03  0.26335798206E+03 0.  0.
         25    1    4    4    0    0 -0.40256260132E+01 -0.15124629841E+02  0.23737725564E+03  0.26877579818E+03  0.12509000000E+03 0.  0.
         25    1    3    3    0    0 -0.46825854774E+02 -0.30058775222E+02  0.10181413681E+03  0.17061599338E+03  0.12509000000E+03 0.  0.
         25    1    4    4    0    0  0.50851480787E+02  0.45183405062E+02  0.31559215395E+03  0.34622727929E+03  0.12509000000E+03 0.  0.
<mgrwt>
<rscale>  2 0.43411500E+03</rscale>
<asrwt>0</asrwt>
<pdfrwt beam="1">  1       21 0.10591195E+00 0.43411500E+03</pdfrwt>
<pdfrwt beam="2">  1       21 0.96202596E-02 0.43411500E+03</pdfrwt>
<totfact> 0.57299568E+04</totfact>
</mgrwt>
</event>
<event>
 7    0  0.4705418E-002  0.4551072E+03  0.7546771E-02  0.1026210E+00
         21   -1    0    0  502  501  0.00000000000E+00  0.00000000000E+00  0.47621639022E+02  0.47621639022E+02  0.00000000000E+00 0. -1.
         21   -1    0    0  501  502 -0.00000000000E+00 -0.00000000000E+00 -0.10873342263E+04  0.10873342263E+04  0.00000000000E+00 0. -1.
      99926    2    1    2    0    0 -0.17763568394E-14  0.00000000000E+00 -0.10397125873E+04  0.11349558653E+04  0.45510718746E+03 0.  0.
      99925    2    3    3    0    0 -0.91603928913E+01  0.94352700813E+02 -0.80925000511E+03  0.85612463531E+03  0.26282594139E+03 0.  0.
         25    1    4    4    0    0  0.24678263506E+02  0.19625832179E+02 -0.34245628999E+03  0.36594809554E+03  0.12509000000E+03 0.  0.
         25    1    3    3    0    0  0.91603928913E+01 -0.94352700813E+02 -0.23046258215E+03  0.27883123000E+03  0.12509000000E+03 0.  0.
         25    1    4    4    0    0 -0.33838656397E+02  0.74726868633E+02 -0.46679371512E+03  0.49017653977E+03  0.12509000000E+03 0.  0.
<mgrwt>
<rscale>  2 0.45510719E+03</rscale>
<asrwt>0</asrwt>
<pdfrwt beam="1">  1       21 0.70031819E-02 0.45510719E+03</pdfrwt>
<pdfrwt beam="2">  1       21 0.15990210E+00 0.45510719E+03</pdfrwt>
<totfact> 0.34260014E+04</totfact>
</mgrwt>
</event>
<event>
 7    0  0.4705418E-002  0.4380246E+03  0.7546771E-02  0.1031355E+00
         21   -1    0    0  502  501  0.00000000000E+00  0.00000000000E+00  0.12816569251E+04  0.12816569251E+04  0.00000000000E+00 0. -1.
         21   -1    0    0  501  502 -0.00000000000E+00 -0.00000000000E+00 -0.37425302154E+02  0.37425302154E+02  0.00000000000E+00 0. -1.
      99926    2    1    2    0    0  0.14210854715E-13  0.00000000000E+00  0.12442316229E+04  0.13190822273E+04  0.43802464624E+03 0.  0.
      99925    2    3    3    0    0  0.66939366842E+02  0.17256533862E+02  0.59391278597E+03  0.65324383499E+03  0.26309018190E+03 0.  0.
         25    1    4    4    0    0  0.67261498941E+02  0.60310792280E+00  0.25970151404E+03  0.29600144843E+03  0.12509000000E+03 0.  0.
         25    1    3    3    0    0 -0.66939366842E+02 -0.17256533862E+02  0.65031883697E+03  0.66583839227E+03  0.12509000000E+03 0.  0.
         25    1    4    4    0    0 -0.32213209904E+00  0.16653425939E+02  0.33421127193E+03  0.35724238655E+03  0.12509000000E+03 0.  0.
<mgrwt>
<rscale>  2 0.43802465E+03</rscale>
<asrwt>0</asrwt>
<pdfrwt beam="1">  1       21 0.18847893E+00 0.43802465E+03</pdfrwt>
<pdfrwt beam="2">  1       21 0.55037218E-02 0.43802465E+03</pdfrwt>
<totfact> 0.32669856E+04</totfact>
</mgrwt>
</event>
<event>
 7    0  0.4705418E-002  0.4632282E+03  0.7546771E-02  0.1023849E+00
         21   -1    0    0  502  501  0.00000000000E+00  0.00000000000E+00  0.92273611046E+02  0.92273611046E+02  0.00000000000E+00 0.  1.
         21   -1    0    0  501  502 -0.00000000000E+00 -0.00000000000E+00 -0.58136982385E+03  0.58136982385E+03  0.00000000000E+00 0.  1.
      99926    2    1    2    0    0  0.00000000000E+00  0.00000000000E+00 -0.48909621280E+03  0.67364343489E+03  0.46322820726E+03 0.  0.
      99925    2    3    3    0    0 -0.80487756638E+02 -0.89524556190E+02 -0.31961643611E+03  0.43102474654E+03  0.26293486032E+03 0.  0.
         25    1    4    4    0    0 -0.36616582152E+01 -0.46205436007E+02 -0.17850629811E+03  0.22284603793E+03  0.12509000000E+03 0.  0.
         25    1    3    3    0    0  0.80487756638E+02  0.89524556190E+02 -0.16947977670E+03  0.24261868835E+03  0.12509000000E+03 0.  0.
         25    1    4    4    0    0 -0.76826098422E+02 -0.43319120183E+02 -0.14111013799E+03  0.20817870861E+03  0.12509000000E+03 0.  0.
<mgrwt>
<rscale>  2 0.46322821E+03</rscale>
<asrwt>0</asrwt>
<pdfrwt beam="1">  1       21 0.13569649E-01 0.46322821E+03</pdfrwt>
<pdfrwt beam="2">  1       21 0.85495561E-01 0.46322821E+03</pdfrwt>
<totfact> 0.50970459E+04</totfact>
</mgrwt>
</event>
<event>
 7    0  0.4705418E-002  0.4621265E+03  0.7546771E-02  0.1024166E+00
         21   -1    0    0  502  501  0.00000000000E+00  0.00000000000E+00  0.21851138036E+04  0.21851138036E+04  0.00000000000E+00 0.  1.
         21   -1    0    0  501  502 -0.00000000000E+00 -0.00000000000E+00 -0.24433609903E+02  0.24433609903E+02  0.00000000000E+00 0.  1.
      99926    2    1    2    0    0  0.14210854715E-13  0.00000000000E+00  0.21606801937E+04  0.22095474135E+04  0.46212646871E+03 0.  0.
      99925    2    3    3    0    0  0.72387224988E+02  0.19240905150E+02  0.90411534068E+03  0.94455221165E+03  0.26295286366E+03 0.  0.
         25    1    4    4    0    0  0.48169260228E+02  0.44470724144E+02  0.53169411714E+03  0.55013095280E+03  0.12509000000E+03 0.  0.
         25    1    4    4    0    0  0.24217964761E+02 -0.25229818994E+02  0.37242122355E+03  0.39442125885E+03  0.12509000000E+03 0.  0.
         25    1    3    3    0    0 -0.72387224988E+02 -0.19240905150E+02  0.12565648530E+04  0.12649952019E+04  0.12509000000E+03 0.  0.
<mgrwt>
<rscale>  2 0.46212647E+03</rscale>
<asrwt>0</asrwt>
<pdfrwt beam="1">  1       21 0.32134013E+00 0.46212647E+03</pdfrwt>
<pdfrwt beam="2">  1       21 0.35931794E-02 0.46212647E+03</pdfrwt>
<totfact> 0.10014689E+04</totfact>
</mgrwt>
</event>
<event>
 7    0  0.4705418E-002  0.4826124E+03  0.7546771E-02  0.1018420E+00
         21   -1    0    0  502  501  0.00000000000E+00  0.00000000000E+00  0.38933942400E+03  0.38933942400E+03  0.00000000000E+00 0.  1.
         21   -1    0    0  501  502 -0.00000000000E+00 -0.00000000000E+00 -0.14955761796E+03  0.14955761796E+03  0.00000000000E+00 0.  1.
      99926    2    1    2    0    0  0.00000000000E+00 -0.48849813084E-14  0.23978180604E+03  0.53889704197E+03  0.48261237793E+03 0.  0.
      99925    2    3    3    0    0  0.13601189108E+03  0.24190294725E+01  0.12543441388E+03  0.32157718459E+03  0.26300761822E+03 0.  0.
         25    1    4    4    0    0  0.56004295645E+02  0.40208338616E+02  0.57488521555E+02  0.15396632695E+03  0.12509000000E+03 0.  0.
         25    1    3    3    0    0 -0.13601189108E+03 -0.24190294725E+01  0.11434739216E+03  0.21731985738E+03  0.12509000000E+03 0.  0.
         25    1    4    4    0    0  0.80007595433E+02 -0.37789309143E+02  0.67945892326E+02  0.16761085763E+03  0.12509000000E+03 0.  0.
<mgrwt>
<rscale>  2 0.48261238E+03</rscale>
<asrwt>0</asrwt>
<pdfrwt beam="1">  1       21 0.57255798E-01 0.48261238E+03</pdfrwt>
<pdfrwt beam="2">  1       21 0.21993767E-01 0.48261238E+03</pdfrwt>
<totfact> 0.50592743E+04</totfact>
</mgrwt>
</event>
<event>
 7    0  0.4705418E-002  0.4485931E+03  0.7546771E-02  0.1028142E+00
         21   -1    0    0  502  501  0.00000000000E+00  0.00000000000E+00  0.50329027926E+02  0.50329027926E+02  0.00000000000E+00 0. -1.
         21   -1    0    0  501  502 -0.00000000000E+00 -0.00000000000E+00 -0.99960105301E+03  0.99960105301E+03  0.00000000000E+00 0. -1.
      99926    2    1    2    0    0  0.00000000000E+00  0.71054273576E-14 -0.94927202508E+03  0.10499300809E+04  0.44859313107E+03 0.  0.
      99925    2    3    3    0    0  0.81329858309E+02 -0.41202281640E+02 -0.46946154982E+03  0.54576961626E+03  0.26297937830E+03 0.  0.
         25    1    4    4    0    0  0.30007488031E+02 -0.59749452150E+02 -0.24267561770E+03  0.28108612540E+03  0.12509000000E+03 0.  0.
         25    1    4    4    0    0  0.51322370278E+02  0.18547170510E+02 -0.22678593212E+03  0.26468349086E+03  0.12509000000E+03 0.  0.
         25    1    3    3    0    0 -0.81329858309E+02  0.41202281640E+02 -0.47981047526E+03  0.50416046467E+03  0.12509000000E+03 0.  0.
<mgrwt>
<rscale>  2 0.44859313E+03</rscale>
<asrwt>0</asrwt>
<pdfrwt beam="1">  1       21 0.74013270E-02 0.44859313E+03</pdfrwt>
<pdfrwt beam="2">  1       21 0.14700017E+00 0.44859313E+03</pdfrwt>
<totfact> 0.39204033E+04</totfact>
</mgrwt>
</event>
<event>
 7    0  0.4705418E-002  0.4550388E+03  0.7546771E-02  0.1026230E+00
         21   -1    0    0  502  501  0.00000000000E+00  0.00000000000E+00  0.13098246815E+03  0.13098246815E+03  0.00000000000E+00 0.  1.
         21   -1    0    0  501  502 -0.00000000000E+00 -0.00000000000E+00 -0.39520613206E+03  0.39520613206E+03  0.00000000000E+00 0.  1.
      99926    2    1    2    0    0  0.14210854715E-13  0.00000000000E+00 -0.26422366391E+03  0.52618860021E+03  0.45503878783E+03 0.  0.
      99925    2    3    3    0    0  0.10152298937E+03 -0.50220888177E+02 -0.16522243336E+03  0.33054145168E+03  0.26292611855E+03 0.  0.
         25    1    4    4    0    0  0.70498453799E+02 -0.24007184679E+02 -0.12801707262E+03  0.19386143476E+03  0.12509000000E+03 0.  0.
         25    1    4    4    0    0  0.31024535570E+02 -0.26213703498E+02 -0.37205360739E+02  0.13668001692E+03  0.12509000000E+03 0.  0.
         25    1    3    3    0    0 -0.10152298937E+03  0.50220888177E+02 -0.99001230550E+02  0.19564714854E+03  0.12509000000E+03 0.  0.
<mgrwt>
<rscale>  2 0.45503879E+03</rscale>
<asrwt>0</asrwt>
<pdfrwt beam="1">  1       21 0.19262128E-01 0.45503879E+03</pdfrwt>
<pdfrwt beam="2">  1       21 0.58118548E-01 0.45503879E+03</pdfrwt>
<totfact> 0.63445768E+04</totfact>
</mgrwt>
</event>
<event>
 7    0  0.4705418E-002  0.4268559E+03  0.7546771E-02  0.1034858E+00
         21   -1    0    0  502  501  0.00000000000E+00  0.00000000000E+00  0.69246916503E+03  0.69246916503E+03  0.00000000000E+00 0. -1.
         21   -1    0    0  501  502 -0.00000000000E+00 -0.00000000000E+00 -0.65781243952E+02  0.65781243952E+02  0.00000000000E+00 0. -1.
      99926    2    1    2    0    0  0.00000000000E+00  0.71054273576E-14  0.62668792107E+03  0.75825040898E+03  0.42685586829E+03 0.  0.
      99925    2    3    3    0    0  0.16263235408E+02  0.32387736535E+02  0.54014251308E+03  0.60188201688E+03  0.26304860672E+03 0.  0.
         25    1    3    3    0    0 -0.16263235408E+02 -0.32387736535E+02  0.86545407990E+02  0.15636839210E+03  0.12509000000E+03 0.  0.
         25    1    4    4    0    0  0.10277905377E+02  0.56153396205E+02  0.29985943261E+03  0.32988183744E+03  0.12509000000E+03 0.  0.
         25    1    4    4    0    0  0.59853300304E+01 -0.23765659671E+02  0.24028308047E+03  0.27200017944E+03  0.12509000000E+03 0.  0.
<mgrwt>
<rscale>  2 0.42685587E+03</rscale>
<asrwt>0</asrwt>
<pdfrwt beam="1">  1       21 0.10183370E+00 0.42685587E+03</pdfrwt>
<pdfrwt beam="2">  1       21 0.96737128E-02 0.42685587E+03</pdfrwt>
<totfact> 0.62574009E+04</totfact>
</mgrwt>
</event>
<event>
 7    0  0.4705418E-002  0.4668305E+03  0.7546771E-02  0.1022819E+00
         21   -1    0    0  502  501  0.00000000000E+00  0.00000000000E+00  0.27266773162E+03  0.27266773162E+03  0.00000000000E+00 0. -1.
         21   -1    0    0  501  502 -0.00000000000E+00 -0.00000000000E+00 -0.19981345084E+03  0.19981345084E+03  0.00000000000E+00 0. -1.
      99926    2    1    2    0    0  0.00000000000E+00  0.00000000000E+00  0.72854280774E+02  0.47248118246E+03  0.46683050624E+03 0.  0.
      99925    2    3    3    0    0 -0.90241792101E+02  0.84970170977E+02  0.46719220394E+02  0.29445292494E+03  0.26297590850E+03 0.  0.
         25    1    4    4    0    0 -0.38065529929E+02  0.52842913129E+02 -0.15538737038E+02  0.14188135355E+03  0.12509000000E+03 0.  0.
         25    1    3    3    0    0  0.90241792101E+02 -0.84970170977E+02  0.26135060380E+02  0.17802825753E+03  0.12509000000E+03 0.  0.
         25    1    4    4    0    0 -0.52176262171E+02  0.32127257848E+02  0.62257957432E+02  0.15257157138E+03  0.12509000000E+03 0.  0.
<mgrwt>
<rscale>  2 0.46683051E+03</rscale>
<asrwt>0</asrwt>
<pdfrwt beam="1">  1       21 0.40098196E-01 0.46683051E+03</pdfrwt>
<pdfrwt beam="2">  1       21 0.29384331E-01 0.46683051E+03</pdfrwt>
<totfact> 0.61288489E+04</totfact>
</mgrwt>
</event>
<event>
 7    0  0.4705418E-002  0.4575435E+03  0.7546771E-02  0.1025496E+00
         21   -1    0    0  502  501  0.00000000000E+00  0.00000000000E+00  0.45431016544E+03  0.45431016544E+03  0.00000000000E+00 0.  1.
         21   -1    0    0  501  502 -0.00000000000E+00 -0.00000000000E+00 -0.11519996524E+03  0.11519996524E+03  0.00000000000E+00 0.  1.
      99926    2    1    2    0    0  0.00000000000E+00  0.00000000000E+00  0.33911020020E+03  0.56951013068E+03  0.45754350729E+03 0.  0.
      99925    2    3    3    0    0  0.89366744123E+02  0.51819688584E+02  0.14851902027E+03  0.31922189474E+03  0.26300764936E+03 0.  0.
         25    1    4    4    0    0  0.13129547258E+02  0.14621765733E+02  0.38730672915E+02  0.13241508286E+03  0.12509000000E+03 0.  0.
         25    1    4    4    0    0  0.76237196865E+02  0.37197922851E+02  0.10978834735E+03  0.18680681188E+03  0.12509000000E+03 0.  0.
         25    1    3    3    0    0 -0.89366744123E+02 -0.51819688584E+02  0.19059117993E+03  0.25028823594E+03  0.12509000000E+03 0.  0.
<mgrwt>
<rscale>  2 0.45754351E+03</rscale>
<asrwt>0</asrwt>
<pdfrwt beam="1">  1       21 0.66810318E-01 0.45754351E+03</pdfrwt>
<pdfrwt beam="2">  1       21 0.16941171E-01 0.45754351E+03</pdfrwt>
<totfact> 0.59391729E+04</totfact>
</mgrwt>
</event>
<event>
 7    0  0.4705418E-002  0.4687197E+03  0.7546771E-02  0.1022282E+00
         21   -1    0    0  502  501  0.00000000000E+00  0.00000000000E+00  0.79619398943E+03  0.79619398943E+03  0.00000000000E+00 0.  1.
         21   -1    0    0  501  502 -0.00000000000E+00 -0.00000000000E+00 -0.68983851683E+02  0.68983851683E+02  0.00000000000E+00 0.  1.
      99926    2    1    2    0    0  0.00000000000E+00  0.00000000000E+00  0.72721013775E+03  0.86517784111E+03  0.46871965215E+03 0.  0.
      99925    2    3    3    0    0 -0.74895428523E+02 -0.98171532319E+02  0.41160381988E+03  0.50392746956E+03  0.26320755130E+03 0.  0.
         25    1    4    4    0    0 -0.22207048154E+02 -0.88140481782E+02  0.21981720125E+03  0.26875454895E+03  0.12509000000E+03 0.  0.
         25    1    4    4    0    0 -0.52688380369E+02 -0.10031050536E+02  0.19178661862E+03  0.23517292060E+03  0.12509000000E+03 0.  0.
         25    1    3    3    0    0  0.74895428523E+02  0.98171532319E+02  0.31560631787E+03  0.36125037156E+03  0.12509000000E+03 0.  0.
<mgrwt>
<rscale>  2 0.46871965E+03</rscale>
<asrwt>0</asrwt>
<pdfrwt beam="1">  1       21 0.11708735E+00 0.46871965E+03</pdfrwt>
<pdfrwt beam="2">  1       21 0.10144685E-01 0.46871965E+03</pdfrwt>
<totfact> 0.40257695E+04</totfact>
</mgrwt>
</event>
<event>
 7    0  0.4705418E-002  0.4494104E+03  0.7546771E-02  0.1027898E+00
         21   -1    0    0  502  501  0.00000000000E+00  0.00000000000E+00  0.49265299034E+03  0.49265299034E+03  0.00000000000E+00 0.  1.
         21   -1    0    0  501  502 -0.00000000000E+00 -0.00000000000E+00 -0.10249087740E+03  0.10249087740E+03  0.00000000000E+00 0.  1.
      99926    2    1    2    0    0  0.71054273576E-14  0.00000000000E+00  0.39016211294E+03  0.59514386774E+03  0.44941044595E+03 0.  0.
      99925    2    3    3    0    0  0.41699368800E+02  0.68124260916E+02  0.15085832273E+03  0.31355273791E+03  0.26301584293E+03 0.  0.
         25    1    3    3    0    0 -0.41699368800E+02 -0.68124260916E+02  0.23930379022E+03  0.28159112982E+03  0.12509000000E+03 0.  0.
         25    1    4    4    0    0  0.51365551201E+01  0.62310514950E+02  0.49485088527E+02  0.14834172224E+03  0.12509000000E+03 0.  0.
         25    1    4    4    0    0  0.36562813680E+02  0.58137459657E+01  0.10137323420E+03  0.16521101567E+03  0.12509000000E+03 0.  0.
<mgrwt>
<rscale>  2 0.44941045E+03</rscale>
<asrwt>0</asrwt>
<pdfrwt beam="1">  1       21 0.72448968E-01 0.44941045E+03</pdfrwt>
<pdfrwt beam="2">  1       21 0.15072188E-01 0.44941045E+03</pdfrwt>
<totfact> 0.61656730E+04</totfact>
</mgrwt>
</event>
<event>
 7    0  0.4705418E-002  0.4814502E+03  0.7546771E-02  0.1018737E+00
         21   -1    0    0  502  501  0.00000000000E+00  0.00000000000E+00  0.18887103952E+03  0.18887103952E+03  0.00000000000E+00 0. -1.
         21   -1    0    0  501  502 -0.00000000000E+00 -0.00000000000E+00 -0.30681561219E+03  0.30681561219E+03  0.00000000000E+00 0. -1.
      99926    2    1    2    0    0  0.00000000000E+00 -0.14210854715E-13 -0.11794457267E+03  0.49568665170E+03  0.48145024089E+03 0.  0.
      99925    2    3    3    0    0 -0.20457396112E+02 -0.81621561258E+02  0.38116935254E+02  0.27869981645E+03  0.26294505627E+03 0.  0.
         25    1    4    4    0    0 -0.38745592948E+02 -0.13397717960E+02  0.77052130335E+01  0.13186204241E+03  0.12509000000E+03 0.  0.
         25    1    4    4    0    0  0.18288196836E+02 -0.68223843298E+02  0.30411722220E+02  0.14683777404E+03  0.12509000000E+03 0.  0.
         25    1    3    3    0    0  0.20457396112E+02  0.81621561258E+02 -0.15606150792E+03  0.21698683525E+03  0.12509000000E+03 0.  0.
<mgrwt>
<rscale>  2 0.48145024E+03</rscale>
<asrwt>0</asrwt>
<pdfrwt beam="1">  1       21 0.27775153E-01 0.48145024E+03</pdfrwt>
<pdfrwt beam="2">  1       21 0.45119942E-01 0.48145024E+03</pdfrwt>
<totfact> 0.53440673E+04</totfact>
</mgrwt>
</event>
<event>
 7    0  0.4705418E-002  0.4523839E+03  0.7546771E-02  0.1027014E+00
         21   -1    0    0  502  501  0.00000000000E+00  0.00000000000E+00  0.72722029550E+02  0.72722029550E+02  0.00000000000E+00 0.  1.
         21   -1    0    0  501  502 -0.00000000000E+00 -0.00000000000E+00 -0.70353924028E+03  0.70353924028E+03  0.00000000000E+00 0.  1.
      99926    2    1    2    0    0  0.14210854715E-13  0.71054273576E-14 -0.63081721073E+03  0.77626126983E+03  0.45238391404E+03 0.  0.
      99925    2    3    3    0    0  0.90110777680E+02  0.32666799992E+02 -0.49273589628E+03  0.56673554450E+03  0.26308447662E+03 0.  0.
         25    1    3    3    0    0 -0.90110777680E+02 -0.32666799992E+02 -0.13808131445E+03  0.20952572533E+03  0.12509000000E+03 0.  0.
         25    1    4    4    0    0  0.19117144998E+02 -0.10642108360E+02 -0.18629610157E+03  0.22546056255E+03  0.12509000000E+03 0.  0.
         25    1    4    4    0    0  0.70993632681E+02  0.43308908352E+02 -0.30643979471E+03  0.34127498195E+03  0.12509000000E+03 0.  0.
<mgrwt>
<rscale>  2 0.45238391E+03</rscale>
<asrwt>0</asrwt>
<pdfrwt beam="1">  1       21 0.10694416E-01 0.45238391E+03</pdfrwt>
<pdfrwt beam="2">  1       21 0.10346165E+00 0.45238391E+03</pdfrwt>
<totfact> 0.49952388E+04</totfact>
</mgrwt>
</event>
<event>
 7    0  0.4705418E-002  0.4576562E+03  0.7546771E-02  0.1025463E+00
         21   -1    0    0  502  501  0.00000000000E+00  0.00000000000E+00  0.70083956607E+02  0.70083956607E+02  0.00000000000E+00 0.  1.
         21   -1    0    0  501  502 -0.00000000000E+00 -0.00000000000E+00 -0.74713664937E+03  0.74713664937E+03  0.00000000000E+00 0.  1.
      99926    2    1    2    0    0  0.14210854715E-13  0.00000000000E+00 -0.67705269276E+03  0.81722060598E+03  0.45765617013E+03 0.  0.
      99925    2    3    3    0    0  0.78627220991E+02 -0.74978740951E+02 -0.49678006187E+03  0.57237416221E+03  0.26271220036E+03 0.  0.
         25    1    3    3    0    0 -0.78627220991E+02  0.74978740951E+02 -0.18027263089E+03  0.24484644377E+03  0.12509000000E+03 0.  0.
         25    1    4    4    0    0  0.51948729095E+02  0.95947216734E+00 -0.22948257734E+03  0.26647580086E+03  0.12509000000E+03 0.  0.
         25    1    4    4    0    0  0.26678491897E+02 -0.75938213119E+02 -0.26729748452E+03  0.30589836135E+03  0.12509000000E+03 0.  0.
<mgrwt>
<rscale>  2 0.45765617E+03</rscale>
<asrwt>0</asrwt>
<pdfrwt beam="1">  1       21 0.10306465E-01 0.45765617E+03</pdfrwt>
<pdfrwt beam="2">  1       21 0.10987303E+00 0.45765617E+03</pdfrwt>
<totfact> 0.45977330E+04</totfact>
</mgrwt>
</event>
<event>
 7    0  0.4705418E-002  0.4560207E+03  0.7546771E-02  0.1025942E+00
         21   -1    0    0  502  501  0.00000000000E+00  0.00000000000E+00  0.43003870747E+03  0.43003870747E+03  0.00000000000E+00 0.  1.
         21   -1    0    0  501  502 -0.00000000000E+00 -0.00000000000E+00 -0.12089312217E+03  0.12089312217E+03  0.00000000000E+00 0.  1.
      99926    2    1    2    0    0  0.00000000000E+00 -0.35527136788E-14  0.30914558529E+03  0.55093182964E+03  0.45602071006E+03 0.  0.
      99925    2    3    3    0    0 -0.85310023330E+02 -0.20859536770E+02  0.10636947830E+03  0.29700550564E+03  0.26303019620E+03 0.  0.
         25    1    3    3    0    0  0.85310023330E+02  0.20859536770E+02  0.20277610699E+03  0.25392632400E+03  0.12509000000E+03 0.  0.
         25    1    4    4    0    0 -0.69532821058E+02 -0.40177568971E+02  0.44021002304E+02  0.15503034218E+03  0.12509000000E+03 0.  0.
         25    1    4    4    0    0 -0.15777202273E+02  0.19318032201E+02  0.62348475998E+02  0.14197516346E+03  0.12509000000E+03 0.  0.
<mgrwt>
<rscale>  2 0.45602071E+03</rscale>
<asrwt>0</asrwt>
<pdfrwt beam="1">  1       21 0.63240986E-01 0.45602071E+03</pdfrwt>
<pdfrwt beam="2">  1       21 0.17778400E-01 0.45602071E+03</pdfrwt>
<totfact> 0.61308375E+04</totfact>
</mgrwt>
</event>
<event>
 7    0  0.4705418E-002  0.4503840E+03  0.7546771E-02  0.1027608E+00
         21   -1    0    0  502  501  0.00000000000E+00  0.00000000000E+00  0.63853395090E+03  0.63853395090E+03  0.00000000000E+00 0.  1.
         21   -1    0    0  501  502 -0.00000000000E+00 -0.00000000000E+00 -0.79418549769E+02  0.79418549769E+02  0.00000000000E+00 0.  1.
      99926    2    1    2    0    0  0.00000000000E+00  0.00000000000E+00  0.55911540113E+03  0.71795250067E+03  0.45038401552E+03 0.  0.
      99925    2    3    3    0    0 -0.43951887845E+02  0.44984744393E+02  0.49526725138E+03  0.56407108529E+03  0.26254741152E+03 0.  0.
         25    1    4    4    0    0  0.64541868126E+01 -0.97071697216E+00  0.26812223615E+03  0.29593857544E+03  0.12509000000E+03 0.  0.
         25    1    4    4    0    0 -0.50406074658E+02  0.45955461365E+02  0.22714501523E+03  0.26813250984E+03  0.12509000000E+03 0.  0.
         25    1    3    3    0    0  0.43951887845E+02 -0.44984744393E+02  0.63848149756E+02  0.15388141538E+03  0.12509000000E+03 0.  0.
<mgrwt>
<rscale>  2 0.45038402E+03</rscale>
<asrwt>0</asrwt>
<pdfrwt beam="1">  1       21 0.93902049E-01 0.45038402E+03</pdfrwt>
<pdfrwt beam="2">  1       21 0.11679199E-01 0.45038402E+03</pdfrwt>
<totfact> 0.53868537E+04</totfact>
</mgrwt>
</event>
<event>
 7    0  0.4705418E-002  0.4513241E+03  0.7546771E-02  0.1027328E+00
         21   -1    0    0  502  501  0.00000000000E+00  0.00000000000E+00  0.10734124281E+04  0.10734124281E+04  0.00000000000E+00 0. -1.
         21   -1    0    0  501  502 -0.00000000000E+00 -0.00000000000E+00 -0.47440636877E+02  0.47440636877E+02  0.00000000000E+00 0. -1.
      99926    2    1    2    0    0  0.00000000000E+00  0.14210854715E-13  0.10259717912E+04  0.11208530650E+04  0.45132413727E+03 0.  0.
      99925    2    3    3    0    0 -0.20616347038E+02  0.10314173455E+03  0.72540826674E+03  0.77872853863E+03  0.26294054891E+03 0.  0.
         25    1    3    3    0    0  0.20616347038E+02 -0.10314173455E+03  0.30056352447E+03  0.34212452632E+03  0.12509000000E+03 0.  0.
         25    1    4    4    0    0 -0.69197777916E+01  0.24401359042E+02  0.25020102402E+03  0.28087607618E+03  0.12509000000E+03 0.  0.
         25    1    4    4    0    0 -0.13696569247E+02  0.78740375513E+02  0.47520724271E+03  0.49785246245E+03  0.12509000000E+03 0.  0.
<mgrwt>
<rscale>  2 0.45132414E+03</rscale>
<asrwt>0</asrwt>
<pdfrwt beam="1">  1       21 0.15785475E+00 0.45132414E+03</pdfrwt>
<pdfrwt beam="2">  1       21 0.69765649E-02 0.45132414E+03</pdfrwt>
<totfact> 0.35785105E+04</totfact>
</mgrwt>
</event>
<event>
 7    0  0.4705418E-002  0.4227929E+03  0.7546771E-02  0.1036161E+00
         21   -1    0    0  502  501  0.00000000000E+00  0.00000000000E+00  0.19200545587E+04  0.19200545587E+04  0.00000000000E+00 0.  1.
         21   -1    0    0  501  502 -0.00000000000E+00 -0.00000000000E+00 -0.23274581073E+02  0.23274581073E+02  0.00000000000E+00 0.  1.
      99926    2    1    2    0    0  0.88817841970E-15  0.71054273576E-14  0.18967799776E+04  0.19433291398E+04  0.42279293037E+03 0.  0.
      99925    2    3    3    0    0  0.38289429171E+01  0.57577960688E+02  0.14822370241E+04  0.15064959327E+04  0.26300858798E+03 0.  0.
         25    1    4    4    0    0  0.25533342952E+02  0.35529329605E+02  0.56997505585E+03  0.58517805603E+03  0.12509000000E+03 0.  0.
         25    1    4    4    0    0 -0.21704400035E+02  0.22048631082E+02  0.91226196820E+03  0.92131787665E+03  0.12509000000E+03 0.  0.
         25    1    3    3    0    0 -0.38289429171E+01 -0.57577960688E+02  0.41454295358E+03  0.43683320710E+03  0.12509000000E+03 0.  0.
<mgrwt>
<rscale>  2 0.42279293E+03</rscale>
<asrwt>0</asrwt>
<pdfrwt beam="1">  1       21 0.28236086E+00 0.42279293E+03</pdfrwt>
<pdfrwt beam="2">  1       21 0.34227338E-02 0.42279293E+03</pdfrwt>
<totfact> 0.18976511E+04</totfact>
</mgrwt>
</event>
<event>
 7    0  0.4705418E-002  0.4531350E+03  0.7546771E-02  0.1026791E+00
         21   -1    0    0  502  501  0.00000000000E+00  0.00000000000E+00  0.31994771743E+03  0.31994771743E+03  0.00000000000E+00 0. -1.
         21   -1    0    0  501  502 -0.00000000000E+00 -0.00000000000E+00 -0.16044134418E+03  0.16044134418E+03  0.00000000000E+00 0. -1.
      99926    2    1    2    0    0 -0.35527136788E-14 -0.14210854715E-13  0.15950637325E+03  0.48038906162E+03  0.45313504324E+03 0.  0.
      99925    2    3    3    0    0 -0.20954253829E+02 -0.98082677483E+02  0.48933811567E+02  0.28562486606E+03  0.26292157351E+03 0.  0.
         25    1    4    4    0    0 -0.23449196486E+02 -0.69524361350E+02  0.59727980688E+02  0.15683890274E+03  0.12509000000E+03 0.  0.
         25    1    3    3    0    0  0.20954253829E+02  0.98082677483E+02  0.11057256168E+03  0.19476419556E+03  0.12509000000E+03 0.  0.
         25    1    4    4    0    0  0.24949426578E+01 -0.28558316133E+02 -0.10794169121E+02  0.12878596331E+03  0.12509000000E+03 0.  0.
<mgrwt>
<rscale>  2 0.45313504E+03</rscale>
<asrwt>0</asrwt>
<pdfrwt beam="1">  1       21 0.47051135E-01 0.45313504E+03</pdfrwt>
<pdfrwt beam="2">  1       21 0.23594315E-01 0.45313504E+03</pdfrwt>
<totfact> 0.67667986E+04</totfact>
</mgrwt>
</event>
<event>
 7    0  0.4705418E-002  0.4575114E+03  0.7546771E-02  0.1025505E+00
         21   -1    0    0  502  501  0.00000000000E+00  0.00000000000E+00  0.31126584312E+03  0.31126584312E+03  0.00000000000E+00 0. -1.
         21   -1    0    0  501  502 -0.00000000000E+00 -0.00000000000E+00 -0.16811729421E+03  0.16811729421E+03  0.00000000000E+00 0. -1.
      99926    2    1    2    0    0  0.00000000000E+00  0.00000000000E+00  0.14314854891E+03  0.47938313732E+03  0.45751140455E+03 0.  0.
      99925    2    3    3    0    0 -0.85071942781E+02  0.22709207724E+02  0.16838196667E+03  0.32434386154E+03  0.26285644419E+03 0.  0.
         25    1    3    3    0    0  0.85071942781E+02 -0.22709207724E+02 -0.25233417760E+02  0.15503927578E+03  0.12509000000E+03 0.  0.
         25    1    4    4    0    0 -0.73632482030E+01 -0.10737027004E+02  0.85565150103E+02  0.15211312956E+03  0.12509000000E+03 0.  0.
         25    1    4    4    0    0 -0.77708694578E+02  0.33446234729E+02  0.82816816567E+02  0.17223073198E+03  0.12509000000E+03 0.  0.
<mgrwt>
<rscale>  2 0.45751140E+03</rscale>
<asrwt>0</asrwt>
<pdfrwt beam="1">  1       21 0.45774389E-01 0.45751140E+03</pdfrwt>
<pdfrwt beam="2">  1       21 0.24723132E-01 0.45751140E+03</pdfrwt>
<totfact> 0.65431052E+04</totfact>
</mgrwt>
</event>
<event>
 7    0  0.4705418E-002  0.4145977E+03  0.7546771E-02  0.1038839E+00
         21   -1    0    0  502  501  0.00000000000E+00  0.00000000000E+00  0.55302338835E+02  0.55302338835E+02  0.00000000000E+00 0. -1.
         21   -1    0    0  501  502 -0.00000000000E+00 -0.00000000000E+00 -0.77705240683E+03  0.77705240683E+03  0.00000000000E+00 0. -1.
      99926    2    1    2    0    0  0.00000000000E+00  0.00000000000E+00 -0.72175006800E+03  0.83235474567E+03  0.41459771102E+03 0.  0.
      99925    2    3    3    0    0 -0.41265665574E+02 -0.54868103975E+02 -0.46998550273E+03  0.54296527037E+03  0.26308087741E+03 0.  0.
         25    1    4    4    0    0 -0.27483599530E+02 -0.55083877920E+02 -0.30593587101E+03  0.33620506706E+03  0.12509000000E+03 0.  0.
         25    1    4    4    0    0 -0.13782066044E+02  0.21577394530E+00 -0.16404963173E+03  0.20676020331E+03  0.12509000000E+03 0.  0.
         25    1    3    3    0    0  0.41265665574E+02  0.54868103975E+02 -0.25176456527E+03  0.28938947530E+03  0.12509000000E+03 0.  0.
<mgrwt>
<rscale>  2 0.41459771E+03</rscale>
<asrwt>0</asrwt>
<pdfrwt beam="1">  1       21 0.81326977E-02 0.41459771E+03</pdfrwt>
<pdfrwt beam="2">  1       21 0.11427240E+00 0.41459771E+03</pdfrwt>
<totfact> 0.64328600E+04</totfact>
</mgrwt>
</event>
<event>
 7    0  0.4705418E-002  0.4537240E+03  0.7546771E-02  0.1026617E+00
         21   -1    0    0  502  501  0.00000000000E+00  0.00000000000E+00  0.17338188384E+03  0.17338188384E+03  0.00000000000E+00 0.  1.
         21   -1    0    0  501  502 -0.00000000000E+00 -0.00000000000E+00 -0.29683824647E+03  0.29683824647E+03  0.00000000000E+00 0.  1.
      99926    2    1    2    0    0  0.00000000000E+00  0.00000000000E+00 -0.12345636263E+03  0.47022013031E+03  0.45372403229E+03 0.  0.
      99925    2    3    3    0    0  0.74066699244E+02  0.84077269188E+02 -0.73825463793E+02  0.29510417630E+03  0.26283343135E+03 0.  0.
         25    1    3    3    0    0 -0.74066699244E+02 -0.84077269188E+02 -0.49630898832E+02  0.17511595401E+03  0.12509000000E+03 0.  0.
         25    1    4    4    0    0  0.68204698395E+02  0.16609053543E+02 -0.39350003809E+02  0.14874028520E+03  0.12509000000E+03 0.  0.
         25    1    4    4    0    0  0.58620008491E+01  0.67468215645E+02 -0.34475459985E+02  0.14636389110E+03  0.12509000000E+03 0.  0.
<mgrwt>
<rscale>  2 0.45372403E+03</rscale>
<asrwt>0</asrwt>
<pdfrwt beam="1">  1       21 0.25497336E-01 0.45372403E+03</pdfrwt>
<pdfrwt beam="2">  1       21 0.43652683E-01 0.45372403E+03</pdfrwt>
<totfact> 0.68106163E+04</totfact>
</mgrwt>
</event>
<event>
 7    0  0.4705418E-002  0.4527951E+03  0.7546771E-02  0.1026892E+00
         21   -1    0    0  502  501  0.00000000000E+00  0.00000000000E+00  0.35194165856E+03  0.35194165856E+03  0.00000000000E+00 0.  1.
         21   -1    0    0  501  502 -0.00000000000E+00 -0.00000000000E+00 -0.14563734952E+03  0.14563734952E+03  0.00000000000E+00 0.  1.
      99926    2    1    2    0    0  0.00000000000E+00  0.00000000000E+00  0.20630430903E+03  0.49757900808E+03  0.45279509865E+03 0.  0.
      99925    2    3    3    0    0 -0.34473093774E+02  0.10529222518E+03  0.12230664289E+03  0.31055504466E+03  0.26307921619E+03 0.  0.
         25    1    4    4    0    0 -0.41456132048E+02  0.22587057514E+02  0.74214345695E+02  0.15291848567E+03  0.12509000000E+03 0.  0.
         25    1    3    3    0    0  0.34473093774E+02 -0.10529222518E+03  0.83997666145E+02  0.18702396342E+03  0.12509000000E+03 0.  0.
         25    1    4    4    0    0  0.69830382745E+01  0.82705167661E+02  0.48092297191E+02  0.15763655899E+03  0.12509000000E+03 0.  0.
<mgrwt>
<rscale>  2 0.45279510E+03</rscale>
<asrwt>0</asrwt>
<pdfrwt beam="1">  1       21 0.51756126E-01 0.45279510E+03</pdfrwt>
<pdfrwt beam="2">  1       21 0.21417257E-01 0.45279510E+03</pdfrwt>
<totfact> 0.66599147E+04</totfact>
</mgrwt>
</event>
<event>
 7    0  0.4705418E-002  0.4604555E+03  0.7546771E-02  0.1024649E+00
         21   -1    0    0  502  501  0.00000000000E+00  0.00000000000E+00  0.13013479085E+04  0.13013479085E+04  0.00000000000E+00 0.  1.
         21   -1    0    0  501  502 -0.00000000000E+00 -0.00000000000E+00 -0.40730696438E+02  0.40730696438E+02  0.00000000000E+00 0.  1.
      99926    2    1    2    0    0 -0.14210854715E-13 -0.14210854715E-13  0.12606172120E+04  0.13420786049E+04  0.46045545548E+03 0.  0.
      99925    2    3    3    0    0  0.58378202249E+02  0.99710106236E+02  0.71652410232E+03  0.77196024884E+03  0.26299375811E+03 0.  0.
         25    1    4    4    0    0  0.44871762567E+02  0.11142261746E+02  0.32707616719E+03  0.35321941102E+03  0.12509000000E+03 0.  0.
         25    1    3    3    0    0 -0.58378202249E+02 -0.99710106236E+02  0.54409310971E+03  0.57011835606E+03  0.12509000000E+03 0.  0.
         25    1    4    4    0    0  0.13506439682E+02  0.88567844490E+02  0.38944793512E+03  0.41874083782E+03  0.12509000000E+03 0.  0.
<mgrwt>
<rscale>  2 0.46045546E+03</rscale>
<asrwt>0</asrwt>
<pdfrwt beam="1">  1       21 0.19137467E+00 0.46045546E+03</pdfrwt>
<pdfrwt beam="2">  1       21 0.59898092E-02 0.46045546E+03</pdfrwt>
<totfact> 0.26763451E+04</totfact>
</mgrwt>
</event>
<event>
 7    0  0.4705418E-002  0.4524162E+03  0.7546771E-02  0.1027004E+00
         21   -1    0    0  502  501  0.00000000000E+00  0.00000000000E+00  0.27290778873E+03  0.27290778873E+03  0.00000000000E+00 0. -1.
         21   -1    0    0  501  502 -0.00000000000E+00 -0.00000000000E+00 -0.18749957632E+03  0.18749957632E+03  0.00000000000E+00 0. -1.
      99926    2    1    2    0    0  0.00000000000E+00  0.00000000000E+00  0.85408212417E+02  0.46040736505E+03  0.45241615692E+03 0.  0.
      99925    2    3    3    0    0  0.73002496588E+02 -0.80828026679E+02  0.74437394985E+02  0.29418341569E+03  0.26294566338E+03 0.  0.
         25    1    4    4    0    0  0.19188260850E+02 -0.53857238716E+02  0.72222583085E+02  0.15534606890E+03  0.12509000000E+03 0.  0.
         25    1    4    4    0    0  0.53814235738E+02 -0.26970787963E+02  0.22148118994E+01  0.13883734679E+03  0.12509000000E+03 0.  0.
         25    1    3    3    0    0 -0.73002496588E+02  0.80828026679E+02  0.10970817432E+02  0.16622394936E+03  0.12509000000E+03 0.  0.
<mgrwt>
<rscale>  2 0.45241616E+03</rscale>
<asrwt>0</asrwt>
<pdfrwt beam="1">  1       21 0.40133499E-01 0.45241616E+03</pdfrwt>
<pdfrwt beam="2">  1       21 0.27573467E-01 0.45241616E+03</pdfrwt>
<totfact> 0.69570464E+04</totfact>
</mgrwt>
</event>
<event>
 7    0  0.4705418E-002  0.4488612E+03  0.7546771E-02  0.1028062E+00
         21   -1    0    0  502  501  0.00000000000E+00  0.00000000000E+00  0.93393548688E+02  0.93393548688E+02  0.00000000000E+00 0.  1.
         21   -1    0    0  501  502 -0.00000000000E+00 -0.00000000000E+00 -0.53932096761E+03  0.53932096761E+03  0.00000000000E+00 0.  1.
      99926    2    1    2    0    0 -0.14210854715E-13 -0.17763568394E-14 -0.44592741892E+03  0.63271451630E+03  0.44886122152E+03 0.  0.
      99925    2    3    3    0    0  0.10669788953E+03 -0.53825594406E+01 -0.30335449417E+03  0.41502676159E+03  0.26231632075E+03 0.  0.
         25    1    4    4    0    0  0.41675043443E+02  0.13820193584E+02 -0.96547897501E+02  0.16400247440E+03  0.12509000000E+03 0.  0.
         25    1    3    3    0    0 -0.10669788953E+03  0.53825594406E+01 -0.14257292476E+03  0.21768775471E+03  0.12509000000E+03 0.  0.
         25    1    4    4    0    0  0.65022846086E+02 -0.19202753025E+02 -0.20680659667E+03  0.25102428719E+03  0.12509000000E+03 0.  0.
<mgrwt>
<rscale>  2 0.44886122E+03</rscale>
<asrwt>0</asrwt>
<pdfrwt beam="1">  1       21 0.13734345E-01 0.44886122E+03</pdfrwt>
<pdfrwt beam="2">  1       21 0.79311907E-01 0.44886122E+03</pdfrwt>
<totfact> 0.59541430E+04</totfact>
</mgrwt>
</event>
<event>
 7    0  0.4705418E-002  0.4526366E+03  0.7546771E-02  0.1026939E+00
         21   -1    0    0  502  501  0.00000000000E+00  0.00000000000E+00  0.19036407640E+03  0.19036407640E+03  0.00000000000E+00 0.  1.
         21   -1    0    0  501  502 -0.00000000000E+00 -0.00000000000E+00 -0.26906328313E+03  0.26906328313E+03  0.00000000000E+00 0.  1.
      99926    2    1    2    0    0  0.00000000000E+00  0.00000000000E+00 -0.78699206732E+02  0.45942735953E+03  0.45263664627E+03 0.  0.
      99925    2    3    3    0    0 -0.63883286039E+02  0.63379836805E+02 -0.11525940816E+03  0.30105364209E+03  0.26315487131E+03 0.  0.
         25    1    4    4    0    0 -0.62791257622E+02  0.44570713933E+02 -0.89336782667E+02  0.17192399312E+03  0.12509000000E+03 0.  0.
         25    1    4    4    0    0 -0.10920284174E+01  0.18809122872E+02 -0.25922625493E+02  0.12912964896E+03  0.12509000000E+03 0.  0.
         25    1    3    3    0    0  0.63883286039E+02 -0.63379836805E+02  0.36560201429E+02  0.15837371744E+03  0.12509000000E+03 0.  0.
<mgrwt>
<rscale>  2 0.45263665E+03</rscale>
<asrwt>0</asrwt>
<pdfrwt beam="1">  1       21 0.27994717E-01 0.45263665E+03</pdfrwt>
<pdfrwt beam="2">  1       21 0.39568130E-01 0.45263665E+03</pdfrwt>
<totfact> 0.69522755E+04</totfact>
</mgrwt>
</event>
<event>
 7    0  0.4705418E-002  0.4598483E+03  0.7546771E-02  0.1024825E+00
         21   -1    0    0  502  501  0.00000000000E+00  0.00000000000E+00  0.23722094514E+03  0.23722094514E+03  0.00000000000E+00 0. -1.
         21   -1    0    0  501  502 -0.00000000000E+00 -0.00000000000E+00 -0.22285184180E+03  0.22285184180E+03  0.00000000000E+00 0. -1.
      99926    2    1    2    0    0  0.71054273576E-14  0.14210854715E-13  0.14369103339E+02  0.46007278694E+03  0.45984834256E+03 0.  0.
      99925    2    3    3    0    0  0.43233603515E+02  0.89778090562E+02  0.71662796247E+02  0.29019246035E+03  0.26295790093E+03 0.  0.
         25    1    4    4    0    0  0.74685967408E+01  0.18623477267E+02  0.28649528830E+01  0.12672146581E+03  0.12509000000E+03 0.  0.
         25    1    3    3    0    0 -0.43233603515E+02 -0.89778090562E+02 -0.57293692907E+02  0.16988032660E+03  0.12509000000E+03 0.  0.
         25    1    4    4    0    0  0.35765006774E+02  0.71154613295E+02  0.68797843364E+02  0.16347099453E+03  0.12509000000E+03 0.  0.
<mgrwt>
<rscale>  2 0.45984834E+03</rscale>
<asrwt>0</asrwt>
<pdfrwt beam="1">  1       21 0.34885433E-01 0.45984834E+03</pdfrwt>
<pdfrwt beam="2">  1       21 0.32772329E-01 0.45984834E+03</pdfrwt>
<totfact> 0.65601049E+04</totfact>
</mgrwt>
</event>
<event>
 7    0  0.4705418E-002  0.4530800E+03  0.7546771E-02  0.1026808E+00
         21   -1    0    0  502  501  0.00000000000E+00  0.00000000000E+00  0.18022429804E+04  0.18022429804E+04  0.00000000000E+00 0.  1.
         21   -1    0    0  501  502 -0.00000000000E+00 -0.00000000000E+00 -0.28475838262E+02  0.28475838262E+02  0.00000000000E+00 0.  1.
      99926    2    1    2    0    0  0.00000000000E+00  0.00000000000E+00  0.17737671421E+04  0.18307188187E+04  0.45308003539E+03 0.  0.
      99925    2    3    3    0    0  0.17412385706E+02 -0.86578222970E+02  0.13920800182E+04  0.14194627567E+04  0.26303756489E+03 0.  0.
         25    1    3    3    0    0 -0.17412385706E+02  0.86578222970E+02  0.38168712390E+03  0.41125606199E+03  0.12509000000E+03 0.  0.
         25    1    4    4    0    0  0.12120938725E+02 -0.27989705592E+02  0.48006459141E+03  0.49703104611E+03  0.12509000000E+03 0.  0.
         25    1    4    4    0    0  0.52914469811E+01 -0.58588517377E+02  0.91201542682E+03  0.92243171056E+03  0.12509000000E+03 0.  0.
<mgrwt>
<rscale>  2 0.45308004E+03</rscale>
<asrwt>0</asrwt>
<pdfrwt beam="1">  1       21 0.26503566E+00 0.45308004E+03</pdfrwt>
<pdfrwt beam="2">  1       21 0.41876245E-02 0.45308004E+03</pdfrwt>
<totfact> 0.16927453E+04</totfact>
</mgrwt>
</event>
<event>
 7    0  0.4705418E-002  0.4569785E+03  0.7546771E-02  0.1025661E+00
         21   -1    0    0  502  501  0.00000000000E+00  0.00000000000E+00  0.77640018072E+03  0.77640018072E+03  0.00000000000E+00 0.  1.
         21   -1    0    0  501  502 -0.00000000000E+00 -0.00000000000E+00 -0.67242833176E+02  0.67242833176E+02  0.00000000000E+00 0.  1.
      99926    2    1    2    0    0  0.35527136788E-14  0.00000000000E+00  0.70915734754E+03  0.84364301389E+03  0.45697854580E+03 0.  0.
      99925    2    3    3    0    0  0.23974867840E+02  0.11005429430E+03  0.48849612221E+03  0.56610810357E+03  0.26298893805E+03 0.  0.
         25    1    4    4    0    0 -0.36293404272E+01  0.24096328774E+02  0.27085303817E+03  0.29933707014E+03  0.12509000000E+03 0.  0.
         25    1    4    4    0    0  0.27604208267E+02  0.85957965524E+02  0.21764308404E+03  0.26677103343E+03  0.12509000000E+03 0.  0.
         25    1    3    3    0    0 -0.23974867840E+02 -0.11005429430E+03  0.22066122533E+03  0.27753491032E+03  0.12509000000E+03 0.  0.
<mgrwt>
<rscale>  2 0.45697855E+03</rscale>
<asrwt>0</asrwt>
<pdfrwt beam="1">  1       21 0.11417649E+00 0.45697855E+03</pdfrwt>
<pdfrwt beam="2">  1       21 0.98886524E-02 0.45697855E+03</pdfrwt>
<totfact> 0.45022191E+04</totfact>
</mgrwt>
</event>
<event>
 7    0  0.4705418E-002  0.4508127E+03  0.7546771E-02  0.1027480E+00
         21   -1    0    0  502  501  0.00000000000E+00  0.00000000000E+00  0.16929612349E+03  0.16929612349E+03  0.00000000000E+00 0.  1.
         21   -1    0    0  501  502 -0.00000000000E+00 -0.00000000000E+00 -0.30011334371E+03  0.30011334371E+03  0.00000000000E+00 0.  1.
      99926    2    1    2    0    0  0.00000000000E+00 -0.11102230246E-14 -0.13081722021E+03  0.46940946720E+03  0.45081271366E+03 0.  0.
      99925    2    3    3    0    0 -0.70689916017E+02 -0.19903122503E+01 -0.16926003735E+03  0.32066006768E+03  0.26300740139E+03 0.  0.
         25    1    4    4    0    0 -0.46873909637E+02  0.20796586256E+02 -0.48312812375E+02  0.14356635171E+03  0.12509000000E+03 0.  0.
         25    1    3    3    0    0  0.70689916017E+02  0.19903122503E+01  0.38442817141E+02  0.14874939952E+03  0.12509000000E+03 0.  0.
         25    1    4    4    0    0 -0.23816006380E+02 -0.22786898506E+02 -0.12094722498E+03  0.17709371596E+03  0.12509000000E+03 0.  0.
<mgrwt>
<rscale>  2 0.45081271E+03</rscale>
<asrwt>0</asrwt>
<pdfrwt beam="1">  1       21 0.24896489E-01 0.45081271E+03</pdfrwt>
<pdfrwt beam="2">  1       21 0.44134315E-01 0.45081271E+03</pdfrwt>
<totfact> 0.69768869E+04</totfact>
</mgrwt>
</event>
<event>
 7    0  0.4705418E-002  0.4524918E+03  0.7546771E-02  0.1026982E+00
         21   -1    0    0  502  501  0.00000000000E+00  0.00000000000E+00  0.20752323123E+03  0.20752323123E+03  0.00000000000E+00 0.  1.
         21   -1    0    0  501  502 -0.00000000000E+00 -0.00000000000E+00 -0.24665777419E+03  0.24665777419E+03  0.00000000000E+00 0.  1.
      99926    2    1    2    0    0  0.00000000000E+00  0.00000000000E+00 -0.39134542967E+02  0.45418100542E+03  0.45249184880E+03 0.  0.
      99925    2    3    3    0    0 -0.79982466475E+02 -0.76132854300E+02 -0.17251581908E+02  0.28589619169E+03  0.26314560399E+03 0.  0.
         25    1    4    4    0    0 -0.53885259293E+02 -0.38190185073E+02 -0.47485577923E+02  0.14921293381E+03  0.12509000000E+03 0.  0.
         25    1    3    3    0    0  0.79982466475E+02  0.76132854300E+02 -0.21882961060E+02  0.16828481373E+03  0.12509000000E+03 0.  0.
         25    1    4    4    0    0 -0.26097207182E+02 -0.37942669227E+02  0.30233996016E+02  0.13668325788E+03  0.12509000000E+03 0.  0.
<mgrwt>
<rscale>  2 0.45249185E+03</rscale>
<asrwt>0</asrwt>
<pdfrwt beam="1">  1       21 0.30518122E-01 0.45249185E+03</pdfrwt>
<pdfrwt beam="2">  1       21 0.36273202E-01 0.45249185E+03</pdfrwt>
<totfact> 0.69996145E+04</totfact>
</mgrwt>
</event>
<event>
 7    0  0.4705418E-002  0.4456102E+03  0.7546771E-02  0.1029039E+00
         21   -1    0    0  502  501  0.00000000000E+00  0.00000000000E+00  0.65435196390E+02  0.65435196390E+02  0.00000000000E+00 0.  1.
         21   -1    0    0  501  502 -0.00000000000E+00 -0.00000000000E+00 -0.75864558671E+03  0.75864558671E+03  0.00000000000E+00 0.  1.
      99926    2    1    2    0    0  0.35527136788E-14  0.00000000000E+00 -0.69321039032E+03  0.82408078310E+03  0.44561024655E+03 0.  0.
      99925    2    3    3    0    0  0.29523735307E+02 -0.67527081455E+02 -0.30428513129E+03  0.40893993605E+03  0.26307959347E+03 0.  0.
         25    1    3    3    0    0 -0.29523735307E+02  0.67527081455E+02 -0.38892525903E+03  0.41514084705E+03  0.12509000000E+03 0.  0.
         25    1    4    4    0    0  0.13122927398E+02 -0.36427328726E+02 -0.91957909274E+02  0.16000914561E+03  0.12509000000E+03 0.  0.
         25    1    4    4    0    0  0.16400807909E+02 -0.31099752728E+02 -0.21232722202E+03  0.24893079044E+03  0.12509000000E+03 0.  0.
<mgrwt>
<rscale>  2 0.44561025E+03</rscale>
<asrwt>0</asrwt>
<pdfrwt beam="1">  1       21 0.96228224E-02 0.44561025E+03</pdfrwt>
<pdfrwt beam="2">  1       21 0.11156553E+00 0.44561025E+03</pdfrwt>
<totfact> 0.50221106E+04</totfact>
</mgrwt>
</event>
<event>
 7    0  0.4705418E-002  0.4544910E+03  0.7546771E-02  0.1026391E+00
         21   -1    0    0  502  501  0.00000000000E+00  0.00000000000E+00  0.40947957622E+03  0.40947957622E+03  0.00000000000E+00 0.  1.
         21   -1    0    0  501  502 -0.00000000000E+00 -0.00000000000E+00 -0.12611257991E+03  0.12611257991E+03  0.00000000000E+00 0.  1.
      99926    2    1    2    0    0  0.00000000000E+00  0.00000000000E+00  0.28336699632E+03  0.53559215613E+03  0.45449103743E+03 0.  0.
      99925    2    3    3    0    0 -0.43119361559E+02 -0.65598163657E+02  0.83212194297E+02  0.28685162609E+03  0.26305358331E+03 0.  0.
         25    1    3    3    0    0  0.43119361559E+02  0.65598163657E+02  0.20015480202E+03  0.24874053005E+03  0.12509000000E+03 0.  0.
         25    1    4    4    0    0 -0.47546909894E+02 -0.53382877253E+01  0.56650036957E+02  0.14541643904E+03  0.12509000000E+03 0.  0.
         25    1    4    4    0    0  0.44275483350E+01 -0.60259875932E+02  0.26562157340E+02  0.14143518704E+03  0.12509000000E+03 0.  0.
<mgrwt>
<rscale>  2 0.45449104E+03</rscale>
<asrwt>0</asrwt>
<pdfrwt beam="1">  1       21 0.60217584E-01 0.45449104E+03</pdfrwt>
<pdfrwt beam="2">  1       21 0.18545968E-01 0.45449104E+03</pdfrwt>
<totfact> 0.63082486E+04</totfact>
</mgrwt>
</event>
<event>
 6    0  0.4705418E-002  0.4488988E+03  0.7546771E-02  0.1028051E+00
         21   -1    0    0  502  501  0.00000000000E+00  0.00000000000E+00  0.58298897084E+03  0.58298897084E+03  0.00000000000E+00 0. -1.
         21   -1    0    0  501  502 -0.00000000000E+00 -0.00000000000E+00 -0.86412501285E+02  0.86412501285E+02  0.00000000000E+00 0. -1.
      99926    2    1    2    0    0 -0.88817841970E-15 -0.17763568394E-14  0.49657646955E+03  0.66940147212E+03  0.44889880905E+03 0.  0.
         25    1    3    3    0    0 -0.24888400938E+02 -0.22099853272E+02  0.75499313940E+02  0.14985156162E+03  0.12509000000E+03 0.  0.
         25    1    3    3    0    0 -0.54567638383E+01  0.11660940623E+02  0.35051372004E+03  0.37238841260E+03  0.12509000000E+03 0.  0.
         25    1    3    3    0    0  0.30345164777E+02  0.10438912649E+02  0.70563435579E+02  0.14716149790E+03  0.12509000000E+03 0.  0.
<mgrwt>
<rscale>  2 0.44889881E+03</rscale>
<asrwt>0</asrwt>
<pdfrwt beam="1">  1       21 0.85733670E-01 0.44889881E+03</pdfrwt>
<pdfrwt beam="2">  1       21 0.12707721E-01 0.44889881E+03</pdfrwt>
<totfact> 0.57301448E+04</totfact>
</mgrwt>
</event>
<event>
 7    0  0.4705418E-002  0.4494338E+03  0.7546771E-02  0.1027891E+00
         21   -1    0    0  502  501  0.00000000000E+00  0.00000000000E+00  0.38759130982E+03  0.38759130982E+03  0.00000000000E+00 0. -1.
         21   -1    0    0  501  502 -0.00000000000E+00 -0.00000000000E+00 -0.13028590180E+03  0.13028590180E+03  0.00000000000E+00 0. -1.
      99926    2    1    2    0    0  0.00000000000E+00  0.00000000000E+00  0.25730540802E+03  0.51787721162E+03  0.44943379192E+03 0.  0.
      99925    2    3    3    0    0  0.92493059809E+02 -0.53457991385E+02  0.17813143671E+03  0.33531558151E+03  0.26323565014E+03 0.  0.
         25    1    3    3    0    0 -0.92493059809E+02  0.53457991385E+02  0.79173971303E+02  0.18256163011E+03  0.12509000000E+03 0.  0.
         25    1    4    4    0    0  0.65858979301E+01 -0.31326078596E+02  0.99286662284E+02  0.16288046740E+03  0.12509000000E+03 0.  0.
         25    1    4    4    0    0  0.85907161879E+02 -0.22131912789E+02  0.78844774431E+02  0.17243511412E+03  0.12509000000E+03 0.  0.
<mgrwt>
<rscale>  2 0.44943379E+03</rscale>
<asrwt>0</asrwt>
<pdfrwt beam="1">  1       21 0.56998722E-01 0.44943379E+03</pdfrwt>
<pdfrwt beam="2">  1       21 0.19159692E-01 0.44943379E+03</pdfrwt>
<totfact> 0.66939632E+04</totfact>
</mgrwt>
</event>
<event>
 7    0  0.4705418E-002  0.4627576E+03  0.7546771E-02  0.1023984E+00
         21   -1    0    0  502  501  0.00000000000E+00  0.00000000000E+00  0.74041107114E+03  0.74041107114E+03  0.00000000000E+00 0.  1.
         21   -1    0    0  501  502 -0.00000000000E+00 -0.00000000000E+00 -0.72305994313E+02  0.72305994313E+02  0.00000000000E+00 0.  1.
      99926    2    1    2    0    0  0.00000000000E+00  0.00000000000E+00  0.66810507683E+03  0.81271706546E+03  0.46275764153E+03 0.  0.
      99925    2    3    3    0    0 -0.45753263787E+02  0.10862856296E+03  0.46027999864E+03  0.54302780526E+03  0.26292203085E+03 0.  0.
         25    1    4    4    0    0 -0.82439045657E+01  0.24866518118E+02  0.15765329465E+03  0.20294919340E+03  0.12509000000E+03 0.  0.
         25    1    4    4    0    0 -0.37509359221E+02  0.83762044839E+02  0.30262670398E+03  0.34007861186E+03  0.12509000000E+03 0.  0.
         25    1    3    3    0    0  0.45753263787E+02 -0.10862856296E+03  0.20782507820E+03  0.26968926019E+03  0.12509000000E+03 0.  0.
<mgrwt>
<rscale>  2 0.46275764E+03</rscale>
<asrwt>0</asrwt>
<pdfrwt beam="1">  1       21 0.10888398E+00 0.46275764E+03</pdfrwt>
<pdfrwt beam="2">  1       21 0.10633235E-01 0.46275764E+03</pdfrwt>
<totfact> 0.44391217E+04</totfact>
</mgrwt>
</event>
<event>
 7    0  0.4705418E-002  0.4518365E+03  0.7546771E-02  0.1027176E+00
         21   -1    0    0  502  501  0.00000000000E+00  0.00000000000E+00  0.56193162315E+02  0.56193162315E+02  0.00000000000E+00 0. -1.
         21   -1    0    0  501  502 -0.00000000000E+00 -0.00000000000E+00 -0.90827893991E+03  0.90827893991E+03  0.00000000000E+00 0. -1.
      99926    2    1    2    0    0  0.14210854715E-13  0.00000000000E+00 -0.85208577759E+03  0.96447210222E+03  0.45183654521E+03 0.  0.
      99925    2    3    3    0    0  0.67425513190E+02 -0.87360302247E+02 -0.55378261860E+03  0.62269687638E+03  0.26248464517E+03 0.  0.
         25    1    4    4    0    0  0.18169178734E+01 -0.15594512755E+02 -0.23300397137E+03  0.26492423217E+03  0.12509000000E+03 0.  0.
         25    1    4    4    0    0  0.65608595317E+02 -0.71765789492E+02 -0.32077864723E+03  0.35777264420E+03  0.12509000000E+03 0.  0.
         25    1    3    3    0    0 -0.67425513190E+02  0.87360302247E+02 -0.29830315899E+03  0.34177522585E+03  0.12509000000E+03 0.  0.
<mgrwt>
<rscale>  2 0.45183655E+03</rscale>
<asrwt>0</asrwt>
<pdfrwt beam="1">  1       21 0.82637008E-02 0.45183655E+03</pdfrwt>
<pdfrwt beam="2">  1       21 0.13357042E+00 0.45183655E+03</pdfrwt>
<totfact> 0.41579213E+04</totfact>
</mgrwt>
</event>
<event>
 7    0  0.4705418E-002  0.4594395E+03  0.7546771E-02  0.1024944E+00
         21   -1    0    0  502  501  0.00000000000E+00  0.00000000000E+00  0.21288164846E+04  0.21288164846E+04  0.00000000000E+00 0.  1.
         21   -1    0    0  501  502 -0.00000000000E+00 -0.00000000000E+00 -0.24788964347E+02  0.24788964347E+02  0.00000000000E+00 0.  1.
      99926    2    1    2    0    0  0.00000000000E+00  0.00000000000E+00  0.21040275202E+04  0.21536054489E+04  0.45943946690E+03 0.  0.
      99925    2    3    3    0    0  0.51302189164E+01 -0.30630539924E+02  0.18502001083E+04  0.18689294713E+04  0.26209230928E+03 0.  0.
         25    1    4    4    0    0 -0.40423191008E+01 -0.53373909084E+02  0.90416909262E+03  0.91434915140E+03  0.12509000000E+03 0.  0.
         25    1    3    3    0    0 -0.51302189164E+01  0.30630539924E+02  0.25382741189E+03  0.28467597764E+03  0.12509000000E+03 0.  0.
         25    1    4    4    0    0  0.91725380172E+01  0.22743369160E+02  0.94603101570E+03  0.95458031986E+03  0.12509000000E+03 0.  0.
<mgrwt>
<rscale>  2 0.45943947E+03</rscale>
<asrwt>0</asrwt>
<pdfrwt beam="1">  1       21 0.31306112E+00 0.45943947E+03</pdfrwt>
<pdfrwt beam="2">  1       21 0.36454374E-02 0.45943947E+03</pdfrwt>
<totfact> 0.10976833E+04</totfact>
</mgrwt>
</event>
<event>
 7    0  0.4705418E-002  0.4574161E+03  0.7546771E-02  0.1025533E+00
         21   -1    0    0  502  501  0.00000000000E+00  0.00000000000E+00  0.64271803281E+02  0.64271803281E+02  0.00000000000E+00 0.  1.
         21   -1    0    0  501  502 -0.00000000000E+00 -0.00000000000E+00 -0.81384649961E+03  0.81384649961E+03  0.00000000000E+00 0.  1.
      99926    2    1    2    0    0  0.00000000000E+00  0.00000000000E+00 -0.74957469633E+03  0.87811830290E+03  0.45741614368E+03 0.  0.
      99925    2    3    3    0    0  0.43790522200E+02 -0.79689004792E+02 -0.33398534200E+03  0.43468852621E+03  0.26294478285E+03 0.  0.
         25    1    4    4    0    0 -0.10452785618E+02 -0.46802864623E+02 -0.12655695038E+03  0.18429307815E+03  0.12509000000E+03 0.  0.
         25    1    3    3    0    0 -0.43790522200E+02  0.79689004792E+02 -0.41558935433E+03  0.44342977669E+03  0.12509000000E+03 0.  0.
         25    1    4    4    0    0  0.54243307818E+02 -0.32886140169E+02 -0.20742839162E+03  0.25039544806E+03  0.12509000000E+03 0.  0.
<mgrwt>
<rscale>  2 0.45741614E+03</rscale>
<asrwt>0</asrwt>
<pdfrwt beam="1">  1       21 0.94517361E-02 0.45741614E+03</pdfrwt>
<pdfrwt beam="2">  1       21 0.11968330E+00 0.45741614E+03</pdfrwt>
<totfact> 0.43366832E+04</totfact>
</mgrwt>
</event>
<event>
 7    0  0.4705418E-002  0.4504455E+03  0.7546771E-02  0.1027589E+00
         21   -1    0    0  502  501  0.00000000000E+00  0.00000000000E+00  0.36402723253E+02  0.36402723253E+02  0.00000000000E+00 0. -1.
         21   -1    0    0  501  502 -0.00000000000E+00 -0.00000000000E+00 -0.13934474803E+04  0.13934474803E+04  0.00000000000E+00 0. -1.
      99926    2    1    2    0    0  0.00000000000E+00  0.00000000000E+00 -0.13570447571E+04  0.14298502036E+04  0.45044548169E+03 0.  0.
      99925    2    3    3    0    0  0.64396936643E+02  0.87692430054E+02 -0.86944640713E+03  0.91483895447E+03  0.26297591147E+03 0.  0.
         25    1    3    3    0    0 -0.64396936643E+02 -0.87692430054E+02 -0.48759834996E+03  0.51501124912E+03  0.12509000000E+03 0.  0.
         25    1    4    4    0    0  0.56468883724E+02  0.64667078513E+02 -0.55976665186E+03  0.57996273890E+03  0.12509000000E+03 0.  0.
         25    1    4    4    0    0  0.79280529189E+01  0.23025351541E+02 -0.30967975527E+03  0.33487621558E+03  0.12509000000E+03 0.  0.
<mgrwt>
<rscale>  2 0.45044548E+03</rscale>
<asrwt>0</asrwt>
<pdfrwt beam="1">  1       21 0.53533425E-02 0.45044548E+03</pdfrwt>
<pdfrwt beam="2">  1       21 0.20491871E+00 0.45044548E+03</pdfrwt>
<totfact> 0.26471829E+04</totfact>
</mgrwt>
</event>
<event>
 7    0  0.4705418E-002  0.4488810E+03  0.7546771E-02  0.1028056E+00
         21   -1    0    0  502  501  0.00000000000E+00  0.00000000000E+00  0.66720325495E+02  0.66720325495E+02  0.00000000000E+00 0. -1.
         21   -1    0    0  501  502 -0.00000000000E+00 -0.00000000000E+00 -0.75499533038E+03  0.75499533038E+03  0.00000000000E+00 0. -1.
      99926    2    1    2    0    0  0.00000000000E+00 -0.88817841970E-15 -0.68827500489E+03  0.82171565588E+03  0.44888098285E+03 0.  0.
      99925    2    3    3    0    0  0.10311907447E+03  0.64911943389E+01 -0.38410301258E+03  0.47697838182E+03  0.26324432249E+03 0.  0.
         25    1    4    4    0    0  0.65078566018E+02 -0.13567626782E+02 -0.13901957786E+03  0.19847733215E+03  0.12509000000E+03 0.  0.
         25    1    3    3    0    0 -0.10311907447E+03 -0.64911943389E+01 -0.30417199231E+03  0.34473727406E+03  0.12509000000E+03 0.  0.
         25    1    4    4    0    0  0.38040508448E+02  0.20058821121E+02 -0.24508343472E+03  0.27850104966E+03  0.12509000000E+03 0.  0.
<mgrwt>
<rscale>  2 0.44888098E+03</rscale>
<asrwt>0</asrwt>
<pdfrwt beam="1">  1       21 0.98118119E-02 0.44888098E+03</pdfrwt>
<pdfrwt beam="2">  1       21 0.11102873E+00 0.44888098E+03</pdfrwt>
<totfact> 0.49045072E+04</totfact>
</mgrwt>
</event>
<event>
 7    0  0.4705418E-002  0.4590082E+03  0.7546771E-02  0.1025069E+00
         21   -1    0    0  502  501  0.00000000000E+00  0.00000000000E+00  0.12222283808E+04  0.12222283808E+04  0.00000000000E+00 0.  1.
         21   -1    0    0  501  502 -0.00000000000E+00 -0.00000000000E+00 -0.43095172032E+02  0.43095172032E+02  0.00000000000E+00 0.  1.
      99926    2    1    2    0    0  0.14210854715E-13 -0.71054273576E-14  0.11791332088E+04  0.12653235529E+04  0.45900824539E+03 0.  0.
      99925    2    3    3    0    0 -0.10071880114E+03  0.38030123913E+02  0.61426034060E+03  0.67683444289E+03  0.26305613436E+03 0.  0.
         25    1    4    4    0    0 -0.92646802547E+02  0.20620957944E+02  0.31709485598E+03  0.35384362326E+03  0.12509000000E+03 0.  0.
         25    1    4    4    0    0 -0.80719985884E+01  0.17409165969E+02  0.29716548462E+03  0.32299081964E+03  0.12509000000E+03 0.  0.
         25    1    3    3    0    0  0.10071880114E+03 -0.38030123913E+02  0.56487286820E+03  0.58848910997E+03  0.12509000000E+03 0.  0.
<mgrwt>
<rscale>  2 0.45900825E+03</rscale>
<asrwt>0</asrwt>
<pdfrwt beam="1">  1       21 0.17973945E+00 0.45900825E+03</pdfrwt>
<pdfrwt beam="2">  1       21 0.63375261E-02 0.45900825E+03</pdfrwt>
<totfact> 0.29216460E+04</totfact>
</mgrwt>
</event>
<event>
 7    0  0.4705418E-002  0.4585493E+03  0.7546771E-02  0.1025203E+00
         21   -1    0    0  502  501  0.00000000000E+00  0.00000000000E+00  0.23837990608E+03  0.23837990608E+03  0.00000000000E+00 0. -1.
         21   -1    0    0  501  502 -0.00000000000E+00 -0.00000000000E+00 -0.22051721681E+03  0.22051721681E+03  0.00000000000E+00 0. -1.
      99926    2    1    2    0    0  0.00000000000E+00  0.35527136788E-14  0.17862689276E+02  0.45889712289E+03  0.45854933620E+03 0.  0.
      99925    2    3    3    0    0  0.51257074770E+02 -0.23651945131E+02 -0.90482357152E+02  0.28404615948E+03  0.26326500249E+03 0.  0.
         25    1    4    4    0    0  0.26499144123E+02 -0.24793378510E+02 -0.86706464336E+02  0.15646864004E+03  0.12509000000E+03 0.  0.
         25    1    4    4    0    0  0.24757930646E+02  0.11414333783E+01 -0.37758928156E+01  0.12757751944E+03  0.12509000000E+03 0.  0.
         25    1    3    3    0    0 -0.51257074770E+02  0.23651945131E+02  0.10834504643E+03  0.17485096342E+03  0.12509000000E+03 0.  0.
<mgrwt>
<rscale>  2 0.45854934E+03</rscale>
<asrwt>0</asrwt>
<pdfrwt beam="1">  1       21 0.35055869E-01 0.45854934E+03</pdfrwt>
<pdfrwt beam="2">  1       21 0.32429002E-01 0.45854934E+03</pdfrwt>
<totfact> 0.66361887E+04</totfact>
</mgrwt>
</event>
<event>
 7    0  0.4705418E-002  0.4493811E+03  0.7546771E-02  0.1027907E+00
         21   -1    0    0  502  501  0.00000000000E+00  0.00000000000E+00  0.26044906611E+03  0.26044906611E+03  0.00000000000E+00 0. -1.
         21   -1    0    0  501  502 -0.00000000000E+00 -0.00000000000E+00 -0.19384151229E+03  0.19384151229E+03  0.00000000000E+00 0. -1.
      99926    2    1    2    0    0 -0.14210854715E-13 -0.71054273576E-14  0.66607553819E+02  0.45429057839E+03  0.44938108927E+03 0.  0.
      99925    2    3    3    0    0 -0.10227202828E+03 -0.33587307980E+02  0.34362264445E+02  0.28613903420E+03  0.26288230570E+03 0.  0.
         25    1    4    4    0    0 -0.55772379539E+02 -0.23549742376E+02  0.57369100156E+02  0.15034583612E+03  0.12509000000E+03 0.  0.
         25    1    3    3    0    0  0.10227202828E+03  0.33587307980E+02  0.32245289374E+02  0.16815154419E+03  0.12509000000E+03 0.  0.
         25    1    4    4    0    0 -0.46499648745E+02 -0.10037565604E+02 -0.23006835711E+02  0.13579319808E+03  0.12509000000E+03 0.  0.
<mgrwt>
<rscale>  2 0.44938109E+03</rscale>
<asrwt>0</asrwt>
<pdfrwt beam="1">  1       21 0.38301333E-01 0.44938109E+03</pdfrwt>
<pdfrwt beam="2">  1       21 0.28506105E-01 0.44938109E+03</pdfrwt>
<totfact> 0.71760686E+04</totfact>
</mgrwt>
</event>
<event>
 7    0  0.4705418E-002  0.4558318E+03  0.7546771E-02  0.1025997E+00
         21   -1    0    0  502  501  0.00000000000E+00  0.00000000000E+00  0.18311467368E+03  0.18311467368E+03  0.00000000000E+00 0. -1.
         21   -1    0    0  501  502 -0.00000000000E+00 -0.00000000000E+00 -0.28367828363E+03  0.28367828363E+03  0.00000000000E+00 0. -1.
      99926    2    1    2    0    0  0.00000000000E+00 -0.71054273576E-14 -0.10056360995E+03  0.46679295731E+03  0.45583179502E+03 0.  0.
      99925    2    3    3    0    0  0.34927036568E+02 -0.52754811070E+02 -0.16026585046E+03  0.31442880931E+03  0.26301590318E+03 0.  0.
         25    1    3    3    0    0 -0.34927036568E+02  0.52754811070E+02  0.59702240508E+02  0.15236414800E+03  0.12509000000E+03 0.  0.
         25    1    4    4    0    0  0.95386213532E+01 -0.35756640028E+02 -0.12557734782E+03  0.18107098329E+03  0.12509000000E+03 0.  0.
         25    1    4    4    0    0  0.25388415215E+02 -0.16998171042E+02 -0.34688502637E+02  0.13335782602E+03  0.12509000000E+03 0.  0.
<mgrwt>
<rscale>  2 0.45583180E+03</rscale>
<asrwt>0</asrwt>
<pdfrwt beam="1">  1       21 0.26928629E-01 0.45583180E+03</pdfrwt>
<pdfrwt beam="2">  1       21 0.41717395E-01 0.45583180E+03</pdfrwt>
<totfact> 0.67230749E+04</totfact>
</mgrwt>
</event>
<event>
 7    0  0.4705418E-002  0.4533948E+03  0.7546771E-02  0.1026714E+00
         21   -1    0    0  502  501  0.00000000000E+00  0.00000000000E+00  0.64630829819E+03  0.64630829819E+03  0.00000000000E+00 0. -1.
         21   -1    0    0  501  502 -0.00000000000E+00 -0.00000000000E+00 -0.79515783772E+02  0.79515783772E+02  0.00000000000E+00 0. -1.
      99926    2    1    2    0    0 -0.14210854715E-13  0.00000000000E+00  0.56679251442E+03  0.72582408196E+03  0.45339479877E+03 0.  0.
      99925    2    3    3    0    0 -0.11129205804E+03 -0.10614476185E+02  0.36273072452E+03  0.46165120015E+03  0.26277302526E+03 0.  0.
         25    1    3    3    0    0  0.11129205804E+03  0.10614476185E+02  0.20406178989E+03  0.26417288181E+03  0.12509000000E+03 0.  0.
         25    1    4    4    0    0 -0.19057427281E+02  0.13132773233E+02  0.18279873909E+03  0.22270730203E+03  0.12509000000E+03 0.  0.
         25    1    4    4    0    0 -0.92234630758E+02 -0.23747249418E+02  0.17993198544E+03  0.23894389812E+03  0.12509000000E+03 0.  0.
<mgrwt>
<rscale>  2 0.45339480E+03</rscale>
<asrwt>0</asrwt>
<pdfrwt beam="1">  1       21 0.95045335E-01 0.45339480E+03</pdfrwt>
<pdfrwt beam="2">  1       21 0.11693498E-01 0.45339480E+03</pdfrwt>
<totfact> 0.52178832E+04</totfact>
</mgrwt>
</event>
<event>
 7    0  0.4705418E-002  0.4619883E+03  0.7546771E-02  0.1024206E+00
         21   -1    0    0  502  501  0.00000000000E+00  0.00000000000E+00  0.70968391421E+02  0.70968391421E+02  0.00000000000E+00 0.  1.
         21   -1    0    0  501  502 -0.00000000000E+00 -0.00000000000E+00 -0.75186015428E+03  0.75186015428E+03  0.00000000000E+00 0.  1.
      99926    2    1    2    0    0  0.00000000000E+00  0.71054273576E-14 -0.68089176286E+03  0.82282854570E+03  0.46198833631E+03 0.  0.
      99925    2    3    3    0    0  0.96796042850E+02 -0.54816818752E+02 -0.50348135959E+03  0.57890987725E+03  0.26318968254E+03 0.  0.
         25    1    3    3    0    0 -0.96796042850E+02  0.54816818752E+02 -0.17741040326E+03  0.24391866844E+03  0.12509000000E+03 0.  0.
         25    1    4    4    0    0  0.38540593665E+02 -0.48989652068E+02 -0.32057476363E+03  0.34971567101E+03  0.12509000000E+03 0.  0.
         25    1    4    4    0    0  0.58255449185E+02 -0.58271666842E+01 -0.18290659596E+03  0.22919420625E+03  0.12509000000E+03 0.  0.
<mgrwt>
<rscale>  2 0.46198834E+03</rscale>
<asrwt>0</asrwt>
<pdfrwt beam="1">  1       21 0.10436528E-01 0.46198834E+03</pdfrwt>
<pdfrwt beam="2">  1       21 0.11056768E+00 0.46198834E+03</pdfrwt>
<totfact> 0.44206052E+04</totfact>
</mgrwt>
</event>
<event>
 7    0  0.4705418E-002  0.4559613E+03  0.7546771E-02  0.1025959E+00
         21   -1    0    0  502  501  0.00000000000E+00  0.00000000000E+00  0.14732468226E+02  0.14732468226E+02  0.00000000000E+00 0. -1.
         21   -1    0    0  501  502 -0.00000000000E+00 -0.00000000000E+00 -0.35279342343E+04  0.35279342343E+04  0.00000000000E+00 0. -1.
      99926    2    1    2    0    0  0.00000000000E+00  0.00000000000E+00 -0.35132017660E+04  0.35426667025E+04  0.45596130981E+03 0.  0.
      99925    2    3    3    0    0  0.30499359258E+02 -0.55580614050E+02 -0.14712745459E+04  0.14959293730E+04  0.26293817516E+03 0.  0.
         25    1    4    4    0    0  0.12864259409E+02  0.72502643501E+01 -0.57652839629E+03  0.59012757547E+03  0.12509000000E+03 0.  0.
         25    1    4    4    0    0  0.17635099849E+02 -0.62830878400E+02 -0.89474614960E+03  0.90580179750E+03  0.12509000000E+03 0.  0.
         25    1    3    3    0    0 -0.30499359258E+02  0.55580614050E+02 -0.20419272201E+04  0.20467373295E+04  0.12509000000E+03 0.  0.
<mgrwt>
<rscale>  2 0.45596131E+03</rscale>
<asrwt>0</asrwt>
<pdfrwt beam="1">  1       21 0.21665407E-02 0.45596131E+03</pdfrwt>
<pdfrwt beam="2">  1       21 0.51881357E+00 0.45596131E+03</pdfrwt>
<totfact> 0.11746361E+03</totfact>
</mgrwt>
</event>
<event>
 7    0  0.4705418E-002  0.4604130E+03  0.7546771E-02  0.1024661E+00
         21   -1    0    0  502  501  0.00000000000E+00  0.00000000000E+00  0.12019504882E+04  0.12019504882E+04  0.00000000000E+00 0.  1.
         21   -1    0    0  501  502 -0.00000000000E+00 -0.00000000000E+00 -0.44090869481E+02  0.44090869481E+02  0.00000000000E+00 0.  1.
      99926    2    1    2    0    0  0.00000000000E+00  0.00000000000E+00  0.11578596187E+04  0.12460413577E+04  0.46041304108E+03 0.  0.
      99925    2    3    3    0    0  0.86238723221E+02  0.31765622883E+02  0.52399192062E+03  0.59344505140E+03  0.26298920886E+03 0.  0.
         25    1    4    4    0    0  0.39272761296E+02  0.50520474939E+02  0.22268599403E+03  0.26330823801E+03  0.12509000000E+03 0.  0.
         25    1    3    3    0    0 -0.86238723221E+02 -0.31765622883E+02  0.63386769811E+03  0.65259630629E+03  0.12509000000E+03 0.  0.
         25    1    4    4    0    0  0.46965961924E+02 -0.18754852057E+02  0.30130592659E+03  0.33013681338E+03  0.12509000000E+03 0.  0.
<mgrwt>
<rscale>  2 0.46041304E+03</rscale>
<asrwt>0</asrwt>
<pdfrwt beam="1">  1       21 0.17675740E+00 0.46041304E+03</pdfrwt>
<pdfrwt beam="2">  1       21 0.64839522E-02 0.46041304E+03</pdfrwt>
<totfact> 0.29461709E+04</totfact>
</mgrwt>
</event>
<event>
 7    0  0.4705418E-002  0.4545685E+03  0.7546771E-02  0.1026368E+00
         21   -1    0    0  502  501  0.00000000000E+00  0.00000000000E+00  0.57858167622E+03  0.57858167622E+03  0.00000000000E+00 0.  1.
         21   -1    0    0  501  502 -0.00000000000E+00 -0.00000000000E+00 -0.89284072985E+02  0.89284072985E+02  0.00000000000E+00 0.  1.
      99926    2    1    2    0    0  0.00000000000E+00  0.00000000000E+00  0.48929760324E+03  0.66786574921E+03  0.45456849256E+03 0.  0.
      99925    2    3    3    0    0 -0.71876315556E+02 -0.85905174364E+02  0.28588338738E+03  0.40410306225E+03  0.26272432323E+03 0.  0.
         25    1    3    3    0    0  0.71876315556E+02  0.85905174364E+02  0.20341421586E+03  0.26376268696E+03  0.12509000000E+03 0.  0.
         25    1    4    4    0    0  0.97300030278E+00 -0.36582129103E+02  0.15746938866E+03  0.20440967532E+03  0.12509000000E+03 0.  0.
         25    1    4    4    0    0 -0.72849315859E+02 -0.49323045261E+02  0.12841399872E+03  0.19969338693E+03  0.12509000000E+03 0.  0.
<mgrwt>
<rscale>  2 0.45456849E+03</rscale>
<asrwt>0</asrwt>
<pdfrwt beam="1">  1       21 0.85085539E-01 0.45456849E+03</pdfrwt>
<pdfrwt beam="2">  1       21 0.13130011E-01 0.45456849E+03</pdfrwt>
<totfact> 0.54868974E+04</totfact>
</mgrwt>
</event>
<event>
 7    0  0.4705418E-002  0.4529569E+03  0.7546771E-02  0.1026844E+00
         21   -1    0    0  502  501  0.00000000000E+00  0.00000000000E+00  0.49912153916E+03  0.49912153916E+03  0.00000000000E+00 0. -1.
         21   -1    0    0  501  502 -0.00000000000E+00 -0.00000000000E+00 -0.10276553283E+03  0.10276553283E+03  0.00000000000E+00 0. -1.
      99926    2    1    2    0    0  0.35527136788E-14  0.00000000000E+00  0.39635600633E+03  0.60188707199E+03  0.45295691151E+03 0.  0.
      99925    2    3    3    0    0 -0.18915688798E+02  0.93337436923E+02  0.32637558544E+03  0.42979858365E+03  0.26293748177E+03 0.  0.
         25    1    4    4    0    0 -0.34884961538E+02  0.14384426943E+02  0.14424267336E+03  0.19462098859E+03  0.12509000000E+03 0.  0.
         25    1    3    3    0    0  0.18915688798E+02 -0.93337436923E+02  0.69980420886E+02  0.17208848835E+03  0.12509000000E+03 0.  0.
         25    1    4    4    0    0  0.15969272739E+02  0.78953009980E+02  0.18213291208E+03  0.23517759506E+03  0.12509000000E+03 0.  0.
<mgrwt>
<rscale>  2 0.45295691E+03</rscale>
<asrwt>0</asrwt>
<pdfrwt beam="1">  1       21 0.73400225E-01 0.45295691E+03</pdfrwt>
<pdfrwt beam="2">  1       21 0.15112579E-01 0.45295691E+03</pdfrwt>
<totfact> 0.59517183E+04</totfact>
</mgrwt>
</event>
<event>
 7    0  0.4705418E-002  0.4522578E+03  0.7546771E-02  0.1027051E+00
         21   -1    0    0  502  501  0.00000000000E+00  0.00000000000E+00  0.57052645075E+03  0.57052645075E+03  0.00000000000E+00 0. -1.
         21   -1    0    0  501  502 -0.00000000000E+00 -0.00000000000E+00 -0.89626470611E+02  0.89626470611E+02  0.00000000000E+00 0. -1.
      99926    2    1    2    0    0  0.00000000000E+00  0.00000000000E+00  0.48089998014E+03  0.66015292137E+03  0.45225776797E+03 0.  0.
      99925    2    3    3    0    0 -0.47587983479E+02 -0.35097940264E+02  0.16594941245E+03  0.31615023275E+03  0.26251720057E+03 0.  0.
         25    1    3    3    0    0  0.47587983479E+02  0.35097940264E+02  0.31495056770E+03  0.34400268861E+03  0.12509000000E+03 0.  0.
         25    1    4    4    0    0 -0.16191461438E+02 -0.47699304106E+02  0.11385226864E+03  0.17648579039E+03  0.12509000000E+03 0.  0.
         25    1    4    4    0    0 -0.31396522040E+02  0.12601363842E+02  0.52097143811E+02  0.13966444236E+03  0.12509000000E+03 0.  0.
<mgrwt>
<rscale>  2 0.45225777E+03</rscale>
<asrwt>0</asrwt>
<pdfrwt beam="1">  1       21 0.83900947E-01 0.45225777E+03</pdfrwt>
<pdfrwt beam="2">  1       21 0.13180364E-01 0.45225777E+03</pdfrwt>
<totfact> 0.56328057E+04</totfact>
</mgrwt>
</event>
<event>
 7    0  0.4705418E-002  0.4194943E+03  0.7546771E-02  0.1037231E+00
         21   -1    0    0  502  501  0.00000000000E+00  0.00000000000E+00  0.16387034042E+04  0.16387034042E+04  0.00000000000E+00 0.  1.
         21   -1    0    0  501  502 -0.00000000000E+00 -0.00000000000E+00 -0.26846753361E+02  0.26846753361E+02  0.00000000000E+00 0.  1.
      99926    2    1    2    0    0 -0.17763568394E-14  0.00000000000E+00  0.16118566508E+04  0.16655501575E+04  0.41949429614E+03 0.  0.
      99925    2    3    3    0    0 -0.35784494788E+01  0.60139424263E+02  0.87193429372E+03  0.91271408090E+03  0.26296012105E+03 0.  0.
         25    1    4    4    0    0  0.33881253381E+02  0.43250915222E+02  0.49171575378E+03  0.51034348395E+03  0.12509000000E+03 0.  0.
         25    1    3    3    0    0  0.35784494788E+01 -0.60139424263E+02  0.73992235708E+03  0.75283607661E+03  0.12509000000E+03 0.  0.
         25    1    4    4    0    0 -0.37459702860E+02  0.16888509040E+02  0.38021853994E+03  0.40237059695E+03  0.12509000000E+03 0.  0.
<mgrwt>
<rscale>  2 0.41949430E+03</rscale>
<asrwt>0</asrwt>
<pdfrwt beam="1">  1       21 0.24098573E+00 0.41949430E+03</pdfrwt>
<pdfrwt beam="2">  1       21 0.39480531E-02 0.41949430E+03</pdfrwt>
<totfact> 0.26599073E+04</totfact>
</mgrwt>
</event>
<event>
 7    0  0.4705418E-002  0.4491045E+03  0.7546771E-02  0.1027989E+00
         21   -1    0    0  502  501  0.00000000000E+00  0.00000000000E+00  0.30036817140E+03  0.30036817140E+03  0.00000000000E+00 0.  1.
         21   -1    0    0  501  502 -0.00000000000E+00 -0.00000000000E+00 -0.16787299171E+03  0.16787299171E+03  0.00000000000E+00 0.  1.
      99926    2    1    2    0    0  0.00000000000E+00 -0.35527136788E-14  0.13249517969E+03  0.46824116311E+03  0.44910445799E+03 0.  0.
      99925    2    3    3    0    0  0.10454760040E+03 -0.24455614386E+02  0.87212355659E+02  0.29728409225E+03  0.26314170840E+03 0.  0.
         25    1    4    4    0    0  0.47510391798E+02 -0.51829814707E+02  0.53179842117E+02  0.15303323407E+03  0.12509000000E+03 0.  0.
         25    1    4    4    0    0  0.57037208600E+02  0.27374200320E+02  0.34032513541E+02  0.14425085818E+03  0.12509000000E+03 0.  0.
         25    1    3    3    0    0 -0.10454760040E+03  0.24455614386E+02  0.45282824029E+02  0.17095707086E+03  0.12509000000E+03 0.  0.
<mgrwt>
<rscale>  2 0.44910446E+03</rscale>
<asrwt>0</asrwt>
<pdfrwt beam="1">  1       21 0.44171790E-01 0.44910446E+03</pdfrwt>
<pdfrwt beam="2">  1       21 0.24687205E-01 0.44910446E+03</pdfrwt>
<totfact> 0.70821941E+04</totfact>
</mgrwt>
</event>
<event>
 7    0  0.4705418E-002  0.4807031E+03  0.7546771E-02  0.1018942E+00
         21   -1    0    0  502  501  0.00000000000E+00  0.00000000000E+00  0.11234861212E+03  0.11234861212E+03  0.00000000000E+00 0. -1.
         21   -1    0    0  501  502 -0.00000000000E+00 -0.00000000000E+00 -0.51419293198E+03  0.51419293198E+03  0.00000000000E+00 0. -1.
      99926    2    1    2    0    0 -0.14210854715E-13  0.00000000000E+00 -0.40184431986E+03  0.62654154410E+03  0.48070307787E+03 0.  0.
      99925    2    3    3    0    0  0.88255308937E+02  0.68640285881E+02 -0.34811658727E+03  0.45037495887E+03  0.26296759657E+03 0.  0.
         25    1    4    4    0    0  0.52545681978E+02  0.73691953634E+02 -0.20898472730E+03  0.25983394134E+03  0.12509000000E+03 0.  0.
         25    1    4    4    0    0  0.35709626959E+02 -0.50516677531E+01 -0.13913185997E+03  0.19054101754E+03  0.12509000000E+03 0.  0.
         25    1    3    3    0    0 -0.88255308937E+02 -0.68640285881E+02 -0.53727732588E+02  0.17616658523E+03  0.12509000000E+03 0.  0.
<mgrwt>
<rscale>  2 0.48070308E+03</rscale>
<asrwt>0</asrwt>
<pdfrwt beam="1">  1       21 0.16521855E-01 0.48070308E+03</pdfrwt>
<pdfrwt beam="2">  1       21 0.75616608E-01 0.48070308E+03</pdfrwt>
<totfact> 0.46822024E+04</totfact>
</mgrwt>
</event>
<event>
 7    0  0.4705418E-002  0.4579904E+03  0.7546771E-02  0.1025366E+00
         21   -1    0    0  502  501  0.00000000000E+00  0.00000000000E+00  0.12466056619E+03  0.12466056619E+03  0.00000000000E+00 0. -1.
         21   -1    0    0  501  502 -0.00000000000E+00 -0.00000000000E+00 -0.42065265361E+03  0.42065265361E+03  0.00000000000E+00 0. -1.
      99926    2    1    2    0    0 -0.14210854715E-13  0.71054273576E-14 -0.29599208743E+03  0.54531321980E+03  0.45799038404E+03 0.  0.
      99925    2    3    3    0    0 -0.10459694676E+03  0.48660345467E+02 -0.17395708720E+03  0.33591312459E+03  0.26318854192E+03 0.  0.
         25    1    3    3    0    0  0.10459694676E+03 -0.48660345467E+02 -0.12203500023E+03  0.20940009521E+03  0.12509000000E+03 0.  0.
         25    1    4    4    0    0 -0.84364333387E+02  0.17046370095E+02 -0.12416387546E+03  0.19614304869E+03  0.12509000000E+03 0.  0.
         25    1    4    4    0    0 -0.20232613370E+02  0.31613975371E+02 -0.49793211742E+02  0.13977007590E+03  0.12509000000E+03 0.  0.
<mgrwt>
<rscale>  2 0.45799038E+03</rscale>
<asrwt>0</asrwt>
<pdfrwt beam="1">  1       21 0.18332436E-01 0.45799038E+03</pdfrwt>
<pdfrwt beam="2">  1       21 0.61860684E-01 0.45799038E+03</pdfrwt>
<totfact> 0.60727505E+04</totfact>
</mgrwt>
</event>
<event>
 7    0  0.4705418E-002  0.4758068E+03  0.7546771E-02  0.1020294E+00
         21   -1    0    0  502  501  0.00000000000E+00  0.00000000000E+00  0.29033172215E+03  0.29033172215E+03  0.00000000000E+00 0.  1.
         21   -1    0    0  501  502 -0.00000000000E+00 -0.00000000000E+00 -0.19494262423E+03  0.19494262423E+03  0.00000000000E+00 0.  1.
      99926    2    1    2    0    0  0.00000000000E+00  0.00000000000E+00  0.95389097921E+02  0.48527434638E+03  0.47580680034E+03 0.  0.
      99925    2    3    3    0    0  0.13189825626E+03  0.10229038911E+01  0.65098186622E+02  0.30098315358E+03  0.26259262841E+03 0.  0.
         25    1    4    4    0    0  0.10209392936E+03 -0.20655063322E+02  0.46243689036E+02  0.16922112436E+03  0.12509000000E+03 0.  0.
         25    1    4    4    0    0  0.29804326905E+02  0.21677967213E+02  0.18854497586E+02  0.13176202922E+03  0.12509000000E+03 0.  0.
         25    1    3    3    0    0 -0.13189825626E+03 -0.10229038911E+01  0.30290911300E+02  0.18429119280E+03  0.12509000000E+03 0.  0.
<mgrwt>
<rscale>  2 0.47580680E+03</rscale>
<asrwt>0</asrwt>
<pdfrwt beam="1">  1       21 0.42695842E-01 0.47580680E+03</pdfrwt>
<pdfrwt beam="2">  1       21 0.28668033E-01 0.47580680E+03</pdfrwt>
<totfact> 0.56408072E+04</totfact>
</mgrwt>
</event>
<event>
 7    0  0.4705418E-002  0.4567047E+03  0.7546771E-02  0.1025741E+00
         21   -1    0    0  502  501  0.00000000000E+00  0.00000000000E+00  0.58742410503E+03  0.58742410503E+03  0.00000000000E+00 0.  1.
         21   -1    0    0  501  502 -0.00000000000E+00 -0.00000000000E+00 -0.88768552485E+02  0.88768552485E+02  0.00000000000E+00 0.  1.
      99926    2    1    2    0    0  0.00000000000E+00  0.00000000000E+00  0.49865555254E+03  0.67619265751E+03  0.45670466386E+03 0.  0.
      99925    2    3    3    0    0 -0.85469935925E+02  0.60579020846E+02  0.38261207087E+03  0.47597146620E+03  0.26302454666E+03 0.  0.
         25    1    3    3    0    0  0.85469935925E+02 -0.60579020846E+02  0.11604348167E+03  0.20022119132E+03  0.12509000000E+03 0.  0.
         25    1    4    4    0    0 -0.59308199507E+02 -0.46254867668E+01  0.20925854186E+03  0.25094920422E+03  0.12509000000E+03 0.  0.
         25    1    4    4    0    0 -0.26161736417E+02  0.65204507612E+02  0.17335352902E+03  0.22502226198E+03  0.12509000000E+03 0.  0.
<mgrwt>
<rscale>  2 0.45670466E+03</rscale>
<asrwt>0</asrwt>
<pdfrwt beam="1">  1       21 0.86385896E-01 0.45670466E+03</pdfrwt>
<pdfrwt beam="2">  1       21 0.13054199E-01 0.45670466E+03</pdfrwt>
<totfact> 0.53492865E+04</totfact>
</mgrwt>
</event>
<event>
 7    0  0.4705418E-002  0.4241156E+03  0.7546771E-02  0.1035735E+00
         21   -1    0    0  502  501  0.00000000000E+00  0.00000000000E+00  0.20522566154E+03  0.20522566154E+03  0.00000000000E+00 0. -1.
         21   -1    0    0  501  502 -0.00000000000E+00 -0.00000000000E+00 -0.21911743425E+03  0.21911743425E+03  0.00000000000E+00 0. -1.
      99926    2    1    2    0    0  0.17763568394E-14 -0.22204460493E-15 -0.13891772715E+02  0.42434309579E+03  0.42411564648E+03 0.  0.
      99925    2    3    3    0    0  0.10343789298E+02  0.16074719214E+01 -0.89337316626E+02  0.27788792811E+03  0.26292768303E+03 0.  0.
         25    1    3    3    0    0 -0.10343789298E+02 -0.16074719214E+01  0.75445543911E+02  0.14645516768E+03  0.12509000000E+03 0.  0.
         25    1    4    4    0    0 -0.21098230724E+02 -0.25413234234E+02 -0.61266193897E+02  0.14315034903E+03  0.12509000000E+03 0.  0.
         25    1    4    4    0    0  0.31442020021E+02  0.27020706156E+02 -0.28071122730E+02  0.13473757908E+03  0.12509000000E+03 0.  0.
<mgrwt>
<rscale>  2 0.42411565E+03</rscale>
<asrwt>0</asrwt>
<pdfrwt beam="1">  1       21 0.30180245E-01 0.42411565E+03</pdfrwt>
<pdfrwt beam="2">  1       21 0.32223152E-01 0.42411565E+03</pdfrwt>
<totfact> 0.91378527E+04</totfact>
</mgrwt>
</event>
<event>
 7    0  0.4705418E-002  0.3905459E+03  0.7546771E-02  0.1047103E+00
         21   -1    0    0  502  501  0.00000000000E+00  0.00000000000E+00  0.40502324846E+02  0.40502324846E+02  0.00000000000E+00 0. -1.
         21   -1    0    0  501  502 -0.00000000000E+00 -0.00000000000E+00 -0.94146486052E+03  0.94146486052E+03  0.00000000000E+00 0. -1.
      99926    2    1    2    0    0  0.00000000000E+00  0.00000000000E+00 -0.90096253568E+03  0.98196718537E+03  0.39054585192E+03 0.  0.
      99925    2    3    3    0    0  0.12981645605E+02  0.11233550052E+02 -0.63668819105E+03  0.68907957366E+03  0.26299066606E+03 0.  0.
         25    1    4    4    0    0  0.28160470330E+02  0.37453816280E+02 -0.29049172589E+03  0.31973231203E+03  0.12509000000E+03 0.  0.
         25    1    4    4    0    0 -0.15178824725E+02 -0.26220266228E+02 -0.34619646516E+03  0.36934726163E+03  0.12509000000E+03 0.  0.
         25    1    3    3    0    0 -0.12981645605E+02 -0.11233550052E+02 -0.26427434462E+03  0.29288761171E+03  0.12509000000E+03 0.  0.
<mgrwt>
<rscale>  2 0.39054585E+03</rscale>
<asrwt>0</asrwt>
<pdfrwt beam="1">  1       21 0.59562244E-02 0.39054585E+03</pdfrwt>
<pdfrwt beam="2">  1       21 0.13845071E+00 0.39054585E+03</pdfrwt>
<totfact> 0.68330001E+04</totfact>
</mgrwt>
</event>
<event>
 7    0  0.4705418E-002  0.4494203E+03  0.7546771E-02  0.1027895E+00
         21   -1    0    0  502  501  0.00000000000E+00  0.00000000000E+00  0.28586935672E+03  0.28586935672E+03  0.00000000000E+00 0.  1.
         21   -1    0    0  501  502 -0.00000000000E+00 -0.00000000000E+00 -0.17663537895E+03  0.17663537895E+03  0.00000000000E+00 0.  1.
      99926    2    1    2    0    0  0.00000000000E+00  0.00000000000E+00  0.10923397777E+03  0.46250473567E+03  0.44942025835E+03 0.  0.
      99925    2    3    3    0    0 -0.82100764762E+02  0.53895529048E+02  0.11515811833E+03  0.30335742288E+03  0.26290505924E+03 0.  0.
         25    1    4    4    0    0 -0.43254197851E+02  0.68087289318E+02  0.58035647427E+02  0.15975746953E+03  0.12509000000E+03 0.  0.
         25    1    4    4    0    0 -0.38846566911E+02 -0.14191760270E+02  0.57122470906E+02  0.14359995335E+03  0.12509000000E+03 0.  0.
         25    1    3    3    0    0  0.82100764762E+02 -0.53895529048E+02 -0.59241405664E+01  0.15914731279E+03  0.12509000000E+03 0.  0.
<mgrwt>
<rscale>  2 0.44942026E+03</rscale>
<asrwt>0</asrwt>
<pdfrwt beam="1">  1       21 0.42039612E-01 0.44942026E+03</pdfrwt>
<pdfrwt beam="2">  1       21 0.25975791E-01 0.44942026E+03</pdfrwt>
<totfact> 0.71092215E+04</totfact>
</mgrwt>
</event>
<event>
 7    0  0.4705418E-002  0.4525294E+03  0.7546771E-02  0.1026970E+00
         21   -1    0    0  502  501  0.00000000000E+00  0.00000000000E+00  0.34357601608E+02  0.34357601608E+02  0.00000000000E+00 0. -1.
         21   -1    0    0  501  502 -0.00000000000E+00 -0.00000000000E+00 -0.14900842623E+04  0.14900842623E+04  0.00000000000E+00 0. -1.
      99926    2    1    2    0    0  0.00000000000E+00 -0.14210854715E-13 -0.14557266607E+04  0.15244418639E+04  0.45252943085E+03 0.  0.
      99925    2    3    3    0    0  0.68797540080E+02 -0.86762073693E+02 -0.93446003491E+03  0.97705976500E+03  0.26300089084E+03 0.  0.
         25    1    4    4    0    0  0.10600940262E+02 -0.64586261547E+01 -0.41762814885E+03  0.43613630048E+03  0.12509000000E+03 0.  0.
         25    1    4    4    0    0  0.58196599818E+02 -0.80303447538E+02 -0.51683188606E+03  0.54092346452E+03  0.12509000000E+03 0.  0.
         25    1    3    3    0    0 -0.68797540080E+02  0.86762073693E+02 -0.52126662579E+03  0.54738209892E+03  0.12509000000E+03 0.  0.
<mgrwt>
<rscale>  2 0.45252943E+03</rscale>
<asrwt>0</asrwt>
<pdfrwt beam="1">  1       21 0.50525909E-02 0.45252943E+03</pdfrwt>
<pdfrwt beam="2">  1       21 0.21912993E+00 0.45252943E+03</pdfrwt>
<totfact> 0.23636724E+04</totfact>
</mgrwt>
</event>
<event>
 7    0  0.4705418E-002  0.4489982E+03  0.7546771E-02  0.1028021E+00
         21   -1    0    0  502  501  0.00000000000E+00  0.00000000000E+00  0.18017822397E+03  0.18017822397E+03  0.00000000000E+00 0. -1.
         21   -1    0    0  501  502 -0.00000000000E+00 -0.00000000000E+00 -0.27972213131E+03  0.27972213131E+03  0.00000000000E+00 0. -1.
      99926    2    1    2    0    0  0.00000000000E+00  0.00000000000E+00 -0.99543907336E+02  0.45990035528E+03  0.44899815957E+03 0.  0.
      99925    2    3    3    0    0  0.49504091991E+02  0.59576292757E+02 -0.13922807509E+03  0.30751160552E+03  0.26301889828E+03 0.  0.
         25    1    4    4    0    0 -0.14988069720E+02  0.19969076534E+02 -0.56332364920E+02  0.13944263942E+03  0.12509000000E+03 0.  0.
         25    1    4    4    0    0  0.64492161711E+02  0.39607216224E+02 -0.82895710174E+02  0.16806896610E+03  0.12509000000E+03 0.  0.
         25    1    3    3    0    0 -0.49504091991E+02 -0.59576292757E+02  0.39684167758E+02  0.15238874976E+03  0.12509000000E+03 0.  0.
<mgrwt>
<rscale>  2 0.44899816E+03</rscale>
<asrwt>0</asrwt>
<pdfrwt beam="1">  1       21 0.26496798E-01 0.44899816E+03</pdfrwt>
<pdfrwt beam="2">  1       21 0.41135607E-01 0.44899816E+03</pdfrwt>
<totfact> 0.71540320E+04</totfact>
</mgrwt>
</event>
<event>
 7    0  0.4705418E-002  0.4441150E+03  0.7546771E-02  0.1029492E+00
         21   -1    0    0  502  501  0.00000000000E+00  0.00000000000E+00  0.89405340922E+03  0.89405340922E+03  0.00000000000E+00 0.  1.
         21   -1    0    0  501  502 -0.00000000000E+00 -0.00000000000E+00 -0.55152781027E+02  0.55152781027E+02  0.00000000000E+00 0.  1.
      99926    2    1    2    0    0  0.00000000000E+00  0.35527136788E-14  0.83890062819E+03  0.94920619025E+03  0.44411499369E+03 0.  0.
      99925    2    3    3    0    0 -0.99698052913E+02 -0.22092057291E+02  0.50950871151E+03  0.58236248561E+03  0.26290526202E+03 0.  0.
         25    1    3    3    0    0  0.99698052913E+02  0.22092057291E+02  0.32939191669E+03  0.36684370463E+03  0.12509000000E+03 0.  0.
         25    1    4    4    0    0 -0.64079070598E+02 -0.37435918853E+02  0.32538078237E+03  0.35640950737E+03  0.12509000000E+03 0.  0.
         25    1    4    4    0    0 -0.35618982315E+02  0.15343861563E+02  0.18412792914E+03  0.22595297825E+03  0.12509000000E+03 0.  0.
<mgrwt>
<rscale>  2 0.44411499E+03</rscale>
<asrwt>0</asrwt>
<pdfrwt beam="1">  1       21 0.13147843E+00 0.44411499E+03</pdfrwt>
<pdfrwt beam="2">  1       21 0.81107036E-02 0.44411499E+03</pdfrwt>
<totfact> 0.44872379E+04</totfact>
</mgrwt>
</event>
<event>
 7    0  0.4705418E-002  0.4564927E+03  0.7546771E-02  0.1025803E+00
         21   -1    0    0  502  501  0.00000000000E+00  0.00000000000E+00  0.23138027409E+03  0.23138027409E+03  0.00000000000E+00 0. -1.
         21   -1    0    0  501  502 -0.00000000000E+00 -0.00000000000E+00 -0.22515484912E+03  0.22515484912E+03  0.00000000000E+00 0. -1.
      99926    2    1    2    0    0  0.44408920985E-15  0.00000000000E+00  0.62254249749E+01  0.45653512321E+03  0.45649267553E+03 0.  0.
      99925    2    3    3    0    0  0.95666561114E+00  0.68758840897E+02 -0.87550533380E+02  0.28574246565E+03  0.26316338532E+03 0.  0.
         25    1    3    3    0    0 -0.95666561114E+00 -0.68758840897E+02  0.93775958355E+02  0.17079265756E+03  0.12509000000E+03 0.  0.
         25    1    4    4    0    0  0.13056650988E+02  0.73311385581E+02 -0.56926360075E+02  0.15631108074E+03  0.12509000000E+03 0.  0.
         25    1    4    4    0    0 -0.12099985377E+02 -0.45525446846E+01 -0.30624173305E+02  0.12943138491E+03  0.12509000000E+03 0.  0.
<mgrwt>
<rscale>  2 0.45649268E+03</rscale>
<asrwt>0</asrwt>
<pdfrwt beam="1">  1       21 0.34026511E-01 0.45649268E+03</pdfrwt>
<pdfrwt beam="2">  1       21 0.33111007E-01 0.45649268E+03</pdfrwt>
<totfact> 0.67624474E+04</totfact>
</mgrwt>
</event>
<event>
 7    0  0.4705418E-002  0.4525839E+03  0.7546771E-02  0.1026954E+00
         21   -1    0    0  502  501  0.00000000000E+00  0.00000000000E+00  0.79077057462E+02  0.79077057462E+02  0.00000000000E+00 0. -1.
         21   -1    0    0  501  502 -0.00000000000E+00 -0.00000000000E+00 -0.64757147375E+03  0.64757147375E+03  0.00000000000E+00 0. -1.
      99926    2    1    2    0    0  0.14210854715E-13  0.00000000000E+00 -0.56849441629E+03  0.72664853121E+03  0.45258390002E+03 0.  0.
      99925    2    3    3    0    0 -0.64097656820E+02  0.71272761873E+02 -0.44862188225E+03  0.52864537792E+03  0.26270901426E+03 0.  0.
         25    1    4    4    0    0 -0.54414013583E+02  0.68448251148E+02 -0.21844995675E+03  0.26648440792E+03  0.12509000000E+03 0.  0.
         25    1    3    3    0    0  0.64097656820E+02 -0.71272761873E+02 -0.11987253404E+03  0.19800315329E+03  0.12509000000E+03 0.  0.
         25    1    4    4    0    0 -0.96836432370E+01  0.28245107249E+01 -0.23017192550E+03  0.26216097001E+03  0.12509000000E+03 0.  0.
<mgrwt>
<rscale>  2 0.45258390E+03</rscale>
<asrwt>0</asrwt>
<pdfrwt beam="1">  1       21 0.11628979E-01 0.45258390E+03</pdfrwt>
<pdfrwt beam="2">  1       21 0.95231099E-01 0.45258390E+03</pdfrwt>
<totfact> 0.52469799E+04</totfact>
</mgrwt>
</event>
<event>
 7    0  0.4705418E-002  0.4523818E+03  0.7546771E-02  0.1027014E+00
         21   -1    0    0  502  501  0.00000000000E+00  0.00000000000E+00  0.59921533154E+03  0.59921533154E+03  0.00000000000E+00 0. -1.
         21   -1    0    0  501  502 -0.00000000000E+00 -0.00000000000E+00 -0.85382201560E+02  0.85382201560E+02  0.00000000000E+00 0. -1.
      99926    2    1    2    0    0  0.00000000000E+00  0.00000000000E+00  0.51383312998E+03  0.68459753309E+03  0.45238180430E+03 0.  0.
      99925    2    3    3    0    0 -0.19327715273E+02 -0.10097302978E+03  0.38585981853E+03  0.47821490335E+03  0.26312084848E+03 0.  0.
         25    1    4    4    0    0 -0.32724888315E+01 -0.19433661620E+02  0.22471034343E+03  0.25793530765E+03  0.12509000000E+03 0.  0.
         25    1    3    3    0    0  0.19327715273E+02  0.10097302978E+03  0.12797331144E+03  0.20638262975E+03  0.12509000000E+03 0.  0.
         25    1    4    4    0    0 -0.16055226442E+02 -0.81539368156E+02  0.16114947510E+03  0.22027959570E+03  0.12509000000E+03 0.  0.
<mgrwt>
<rscale>  2 0.45238180E+03</rscale>
<asrwt>0</asrwt>
<pdfrwt beam="1">  1       21 0.88119900E-01 0.45238180E+03</pdfrwt>
<pdfrwt beam="2">  1       21 0.12556206E-01 0.45238180E+03</pdfrwt>
<totfact> 0.54869789E+04</totfact>
</mgrwt>
</event>
<event>
 7    0  0.4705418E-002  0.4520212E+03  0.7546771E-02  0.1027121E+00
         21   -1    0    0  502  501  0.00000000000E+00  0.00000000000E+00  0.11368036362E+03  0.11368036362E+03  0.00000000000E+00 0. -1.
         21   -1    0    0  501  502 -0.00000000000E+00 -0.00000000000E+00 -0.44933703869E+03  0.44933703869E+03  0.00000000000E+00 0. -1.
      99926    2    1    2    0    0 -0.17763568394E-14  0.00000000000E+00 -0.33565667507E+03  0.56301740232E+03  0.45202122936E+03 0.  0.
      99925    2    3    3    0    0  0.25691315643E+01  0.56159814677E+02 -0.95216028838E+02  0.28621469698E+03  0.26399286997E+03 0.  0.
         25    1    3    3    0    0 -0.25691315643E+01 -0.56159814677E+02 -0.24044064623E+03  0.27680270534E+03  0.12509000000E+03 0.  0.
         25    1    4    4    0    0  0.16788760231E+02  0.35253093560E+01 -0.78659216526E+02  0.14875843075E+03  0.12509000000E+03 0.  0.
         25    1    4    4    0    0 -0.14219628666E+02  0.52634505321E+02 -0.16556812312E+02  0.13745626622E+03  0.12509000000E+03 0.  0.
<mgrwt>
<rscale>  2 0.45202123E+03</rscale>
<asrwt>0</asrwt>
<pdfrwt beam="1">  1       21 0.16717701E-01 0.45202123E+03</pdfrwt>
<pdfrwt beam="2">  1       21 0.66078975E-01 0.45202123E+03</pdfrwt>
<totfact> 0.62473317E+04</totfact>
</mgrwt>
</event>
<event>
 7    0  0.4705418E-002  0.4615795E+03  0.7546771E-02  0.1024324E+00
         21   -1    0    0  502  501  0.00000000000E+00  0.00000000000E+00  0.18967781113E+03  0.18967781113E+03  0.00000000000E+00 0.  1.
         21   -1    0    0  501  502 -0.00000000000E+00 -0.00000000000E+00 -0.28081248617E+03  0.28081248617E+03  0.00000000000E+00 0.  1.
      99926    2    1    2    0    0 -0.71054273576E-14 -0.14210854715E-13 -0.91134675037E+02  0.47049029729E+03  0.46157945237E+03 0.  0.
      99925    2    3    3    0    0 -0.55080647219E+02 -0.10267551373E+03 -0.82295171875E+02  0.29931265934E+03  0.26313387070E+03 0.  0.
         25    1    4    4    0    0 -0.22342953086E+02 -0.23244831831E+02 -0.70348656986E+02  0.14709171084E+03  0.12509000000E+03 0.  0.
         25    1    4    4    0    0 -0.32737694133E+02 -0.79430681899E+02 -0.11946514888E+02  0.15222094850E+03  0.12509000000E+03 0.  0.
         25    1    3    3    0    0  0.55080647219E+02  0.10267551373E+03 -0.88395031624E+01  0.17117763795E+03  0.12509000000E+03 0.  0.
<mgrwt>
<rscale>  2 0.46157945E+03</rscale>
<asrwt>0</asrwt>
<pdfrwt beam="1">  1       21 0.27893796E-01 0.46157945E+03</pdfrwt>
<pdfrwt beam="2">  1       21 0.41295954E-01 0.46157945E+03</pdfrwt>
<totfact> 0.63991689E+04</totfact>
</mgrwt>
</event>
<event>
 7    0  0.4705418E-002  0.4442123E+03  0.7546771E-02  0.1029462E+00
         21   -1    0    0  502  501  0.00000000000E+00  0.00000000000E+00  0.20148344898E+03  0.20148344898E+03  0.00000000000E+00 0.  1.
         21   -1    0    0  501  502 -0.00000000000E+00 -0.00000000000E+00 -0.24483971351E+03  0.24483971351E+03  0.00000000000E+00 0.  1.
      99926    2    1    2    0    0 -0.35527136788E-14  0.00000000000E+00 -0.43356264524E+02  0.44632316249E+03  0.44421233628E+03 0.  0.
      99925    2    3    3    0    0 -0.18956309193E+02  0.97147459296E+02 -0.52578918868E+02  0.28654351435E+03  0.26371513495E+03 0.  0.
         25    1    3    3    0    0  0.18956309193E+02 -0.97147459296E+02  0.92226543439E+01  0.15977964814E+03  0.12509000000E+03 0.  0.
         25    1    4    4    0    0  0.29479411583E+02  0.31625533506E+02 -0.27130550824E+02  0.13510286809E+03  0.12509000000E+03 0.  0.
         25    1    4    4    0    0 -0.48435720776E+02  0.65521925791E+02 -0.25448368044E+02  0.15144064627E+03  0.12509000000E+03 0.  0.
<mgrwt>
<rscale>  2 0.44421234E+03</rscale>
<asrwt>0</asrwt>
<pdfrwt beam="1">  1       21 0.29629919E-01 0.44421234E+03</pdfrwt>
<pdfrwt beam="2">  1       21 0.36005840E-01 0.44421234E+03</pdfrwt>
<totfact> 0.75476220E+04</totfact>
</mgrwt>
</event>
<event>
 7    0  0.4705418E-002  0.4502355E+03  0.7546771E-02  0.1027652E+00
         21   -1    0    0  502  501  0.00000000000E+00  0.00000000000E+00  0.18677997274E+03  0.18677997274E+03  0.00000000000E+00 0. -1.
         21   -1    0    0  501  502 -0.00000000000E+00 -0.00000000000E+00 -0.27132460162E+03  0.27132460162E+03  0.00000000000E+00 0. -1.
      99926    2    1    2    0    0  0.00000000000E+00  0.00000000000E+00 -0.84544628879E+02  0.45810457435E+03  0.45023550146E+03 0.  0.
      99925    2    3    3    0    0 -0.14988603403E+02  0.10237325328E+03 -0.87340711966E+02  0.29574612092E+03  0.26293046011E+03 0.  0.
         25    1    4    4    0    0 -0.20754735788E+02  0.83647261140E+02 -0.22722606551E+02  0.15359507903E+03  0.12509000000E+03 0.  0.
         25    1    3    3    0    0  0.14988603403E+02 -0.10237325328E+03  0.27960830866E+01  0.16235845343E+03  0.12509000000E+03 0.  0.
         25    1    4    4    0    0  0.57661323846E+01  0.18725992141E+02 -0.64618105414E+02  0.14215104189E+03  0.12509000000E+03 0.  0.
<mgrwt>
<rscale>  2 0.45023550E+03</rscale>
<asrwt>0</asrwt>
<pdfrwt beam="1">  1       21 0.27467644E-01 0.45023550E+03</pdfrwt>
<pdfrwt beam="2">  1       21 0.39900676E-01 0.45023550E+03</pdfrwt>
<totfact> 0.70975412E+04</totfact>
</mgrwt>
</event>
<event>
 7    0  0.4705418E-002  0.4479786E+03  0.7546771E-02  0.1028327E+00
         21   -1    0    0  502  501  0.00000000000E+00  0.00000000000E+00  0.46112193521E+03  0.46112193521E+03  0.00000000000E+00 0.  1.
         21   -1    0    0  501  502 -0.00000000000E+00 -0.00000000000E+00 -0.10880247460E+03  0.10880247460E+03  0.00000000000E+00 0.  1.
      99926    2    1    2    0    0  0.14210854715E-13  0.00000000000E+00  0.35231946061E+03  0.56992440982E+03  0.44797860505E+03 0.  0.
      99925    2    3    3    0    0  0.92720631388E+02  0.49308616884E+02  0.24540282425E+03  0.37471393260E+03  0.26298199549E+03 0.  0.
         25    1    4    4    0    0  0.18807644975E+02  0.44808740355E+02  0.14773185716E+03  0.19958396840E+03  0.12509000000E+03 0.  0.
         25    1    3    3    0    0 -0.92720631388E+02 -0.49308616884E+02  0.10691663636E+03  0.19521047722E+03  0.12509000000E+03 0.  0.
         25    1    4    4    0    0  0.73912986413E+02  0.44998765293E+01  0.97670967090E+02  0.17512996420E+03  0.12509000000E+03 0.  0.
<mgrwt>
<rscale>  2 0.44797861E+03</rscale>
<asrwt>0</asrwt>
<pdfrwt beam="1">  1       21 0.67812048E-01 0.44797861E+03</pdfrwt>
<pdfrwt beam="2">  1       21 0.16000364E-01 0.44797861E+03</pdfrwt>
<totfact> 0.64051729E+04</totfact>
</mgrwt>
</event>
<event>
 7    0  0.4705418E-002  0.4047598E+03  0.7546771E-02  0.1042144E+00
         21   -1    0    0  502  501  0.00000000000E+00  0.00000000000E+00  0.58435299369E+03  0.58435299369E+03  0.00000000000E+00 0. -1.
         21   -1    0    0  501  502 -0.00000000000E+00 -0.00000000000E+00 -0.70090555014E+02  0.70090555014E+02  0.00000000000E+00 0. -1.
      99926    2    1    2    0    0  0.00000000000E+00 -0.35527136788E-14  0.51426243868E+03  0.65444354870E+03  0.40475980854E+03 0.  0.
      99925    2    3    3    0    0 -0.47330138207E+02  0.24210213644E+02  0.35751228446E+03  0.44697211603E+03  0.26295011418E+03 0.  0.
         25    1    3    3    0    0  0.47330138207E+02 -0.24210213644E+02  0.15675015422E+03  0.20747143267E+03  0.12509000000E+03 0.  0.
         25    1    4    4    0    0 -0.31158287671E+02 -0.20030721668E+01  0.11686023953E+03  0.17400768625E+03  0.12509000000E+03 0.  0.
         25    1    4    4    0    0 -0.16171850536E+02  0.26213285811E+02  0.24065204492E+03  0.27296442979E+03  0.12509000000E+03 0.  0.
<mgrwt>
<rscale>  2 0.40475981E+03</rscale>
<asrwt>0</asrwt>
<pdfrwt beam="1">  1       21 0.85934261E-01 0.40475981E+03</pdfrwt>
<pdfrwt beam="2">  1       21 0.10307435E-01 0.40475981E+03</pdfrwt>
<totfact> 0.84128861E+04</totfact>
</mgrwt>
</event>
<event>
 7    0  0.4705418E-002  0.4536035E+03  0.7546771E-02  0.1026653E+00
         21   -1    0    0  502  501  0.00000000000E+00  0.00000000000E+00  0.11120220164E+03  0.11120220164E+03  0.00000000000E+00 0. -1.
         21   -1    0    0  501  502 -0.00000000000E+00 -0.00000000000E+00 -0.46257209903E+03  0.46257209903E+03  0.00000000000E+00 0. -1.
      99926    2    1    2    0    0  0.14210854715E-13  0.14210854715E-13 -0.35136989739E+03  0.57377430067E+03  0.45360350894E+03 0.  0.
      99925    2    3    3    0    0 -0.58912462864E+02 -0.78299815120E+02 -0.28948556166E+03  0.40324946836E+03  0.26307167083E+03 0.  0.
         25    1    4    4    0    0 -0.50817787915E+02 -0.68166634273E+02 -0.19027885496E+03  0.24306930769E+03  0.12509000000E+03 0.  0.
         25    1    4    4    0    0 -0.80946749499E+01 -0.10133180847E+02 -0.99206706701E+02  0.16018016067E+03  0.12509000000E+03 0.  0.
         25    1    3    3    0    0  0.58912462864E+02  0.78299815120E+02 -0.61884335726E+02  0.17052483232E+03  0.12509000000E+03 0.  0.
<mgrwt>
<rscale>  2 0.45360351E+03</rscale>
<asrwt>0</asrwt>
<pdfrwt beam="1">  1       21 0.16353265E-01 0.45360351E+03</pdfrwt>
<pdfrwt beam="2">  1       21 0.68025309E-01 0.45360351E+03</pdfrwt>
<totfact> 0.60992985E+04</totfact>
</mgrwt>
</event>
<event>
 7    0  0.4705418E-002  0.4497121E+03  0.7546771E-02  0.1027808E+00
         21   -1    0    0  502  501  0.00000000000E+00  0.00000000000E+00  0.10200809585E+03  0.10200809585E+03  0.00000000000E+00 0.  1.
         21   -1    0    0  501  502 -0.00000000000E+00 -0.00000000000E+00 -0.49564929308E+03  0.49564929308E+03  0.00000000000E+00 0.  1.
      99926    2    1    2    0    0 -0.44408920985E-15 -0.14210854715E-13 -0.39364119723E+03  0.59765738894E+03  0.44971208833E+03 0.  0.
      99925    2    3    3    0    0  0.31076248646E+01  0.10636983949E+03 -0.22261809590E+03  0.36054853340E+03  0.26289204672E+03 0.  0.
         25    1    4    4    0    0  0.53759540817E+01  0.95656903036E+02 -0.11342814406E+03  0.19414581104E+03  0.12509000000E+03 0.  0.
         25    1    4    4    0    0 -0.22683292171E+01  0.10712936450E+02 -0.10918995184E+03  0.16640272235E+03  0.12509000000E+03 0.  0.
         25    1    3    3    0    0 -0.31076248646E+01 -0.10636983949E+03 -0.17102310134E+03  0.23710885554E+03  0.12509000000E+03 0.  0.
<mgrwt>
<rscale>  2 0.44971209E+03</rscale>
<asrwt>0</asrwt>
<pdfrwt beam="1">  1       21 0.15001191E-01 0.44971209E+03</pdfrwt>
<pdfrwt beam="2">  1       21 0.72889600E-01 0.44971209E+03</pdfrwt>
<totfact> 0.61346011E+04</totfact>
</mgrwt>
</event>
<event>
 7    0  0.4705418E-002  0.4544193E+03  0.7546771E-02  0.1026412E+00
         21   -1    0    0  502  501  0.00000000000E+00  0.00000000000E+00  0.10994247815E+03  0.10994247815E+03  0.00000000000E+00 0. -1.
         21   -1    0    0  501  502 -0.00000000000E+00 -0.00000000000E+00 -0.46955663772E+03  0.46955663772E+03  0.00000000000E+00 0. -1.
      99926    2    1    2    0    0  0.00000000000E+00  0.26645352591E-14 -0.35961415957E+03  0.57949911586E+03  0.45441927943E+03 0.  0.
      99925    2    3    3    0    0 -0.77622144439E+02 -0.55070211495E+01 -0.33032326839E+03  0.42929595679E+03  0.26291829964E+03 0.  0.
         25    1    4    4    0    0 -0.10215230295E+02 -0.24941017141E+02 -0.18656719246E+03  0.22623269143E+03  0.12509000000E+03 0.  0.
         25    1    3    3    0    0  0.77622144439E+02  0.55070211495E+01 -0.29290891180E+02  0.15020315907E+03  0.12509000000E+03 0.  0.
         25    1    4    4    0    0 -0.67406914144E+02  0.19433995992E+02 -0.14375607593E+03  0.20306326537E+03  0.12509000000E+03 0.  0.
<mgrwt>
<rscale>  2 0.45441928E+03</rscale>
<asrwt>0</asrwt>
<pdfrwt beam="1">  1       21 0.16168011E-01 0.45441928E+03</pdfrwt>
<pdfrwt beam="2">  1       21 0.69052448E-01 0.45441928E+03</pdfrwt>
<totfact> 0.60234296E+04</totfact>
</mgrwt>
</event>
<event>
 7    0  0.4705418E-002  0.4542573E+03  0.7546771E-02  0.1026460E+00
         21   -1    0    0  502  501  0.00000000000E+00  0.00000000000E+00  0.65719642387E+02  0.65719642387E+02  0.00000000000E+00 0.  1.
         21   -1    0    0  501  502 -0.00000000000E+00 -0.00000000000E+00 -0.78496218782E+03  0.78496218782E+03  0.00000000000E+00 0.  1.
      99926    2    1    2    0    0 -0.35527136788E-14 -0.71054273576E-14 -0.71924254544E+03  0.85068183021E+03  0.45425734676E+03 0.  0.
      99925    2    3    3    0    0  0.22237283902E+02  0.53030301570E+02 -0.63393816763E+03  0.68872178992E+03  0.26297032883E+03 0.  0.
         25    1    4    4    0    0 -0.15982590772E+02  0.27763290787E+01 -0.35125272597E+03  0.37321459887E+03  0.12509000000E+03 0.  0.
         25    1    3    3    0    0 -0.22237283902E+02 -0.53030301570E+02 -0.85304377802E+02  0.16196004029E+03  0.12509000000E+03 0.  0.
         25    1    4    4    0    0  0.38219874674E+02  0.50253972491E+02 -0.28268544166E+03  0.31550719104E+03  0.12509000000E+03 0.  0.
<mgrwt>
<rscale>  2 0.45425735E+03</rscale>
<asrwt>0</asrwt>
<pdfrwt beam="1">  1       21 0.96646537E-02 0.45425735E+03</pdfrwt>
<pdfrwt beam="2">  1       21 0.11543561E+00 0.45425735E+03</pdfrwt>
<totfact> 0.45674397E+04</totfact>
</mgrwt>
</event>
<event>
 7    0  0.4705418E-002  0.4336222E+03  0.7546771E-02  0.1032722E+00
         21   -1    0    0  502  501  0.00000000000E+00  0.00000000000E+00  0.76821181997E+02  0.76821181997E+02  0.00000000000E+00 0.  1.
         21   -1    0    0  501  502 -0.00000000000E+00 -0.00000000000E+00 -0.61190217127E+03  0.61190217127E+03  0.00000000000E+00 0.  1.
      99926    2    1    2    0    0  0.00000000000E+00 -0.14210854715E-13 -0.53508098928E+03  0.68872335327E+03  0.43362217685E+03 0.  0.
      99925    2    3    3    0    0  0.46678656352E+02 -0.76453139514E+02 -0.37630562546E+03  0.46763263941E+03  0.26277439409E+03 0.  0.
         25    1    4    4    0    0  0.19502025421E+02 -0.67879838757E+02 -0.15137593826E+03  0.20868680910E+03  0.12509000000E+03 0.  0.
         25    1    3    3    0    0 -0.46678656352E+02  0.76453139514E+02 -0.15877536382E+03  0.22109071386E+03  0.12509000000E+03 0.  0.
         25    1    4    4    0    0  0.27176630932E+02 -0.85733007570E+01 -0.22492968720E+03  0.25894583031E+03  0.12509000000E+03 0.  0.
<mgrwt>
<rscale>  2 0.43362218E+03</rscale>
<asrwt>0</asrwt>
<pdfrwt beam="1">  1       21 0.11297233E-01 0.43362218E+03</pdfrwt>
<pdfrwt beam="2">  1       21 0.89985611E-01 0.43362218E+03</pdfrwt>
<totfact> 0.63559251E+04</totfact>
</mgrwt>
</event>
<event>
 7    0  0.4705418E-002  0.4518008E+03  0.7546771E-02  0.1027186E+00
         21   -1    0    0  502  501  0.00000000000E+00  0.00000000000E+00  0.89413904912E+03  0.89413904912E+03  0.00000000000E+00 0. -1.
         21   -1    0    0  501  502 -0.00000000000E+00 -0.00000000000E+00 -0.57072773722E+02  0.57072773722E+02  0.00000000000E+00 0. -1.
      99926    2    1    2    0    0 -0.71054273576E-14  0.00000000000E+00  0.83706627540E+03  0.95121182284E+03  0.45180082172E+03 0.  0.
      99925    2    3    3    0    0 -0.54488890165E+02 -0.48290291646E+02  0.35396545451E+03  0.44689555039E+03  0.26291272041E+03 0.  0.
         25    1    4    4    0    0 -0.13916707819E+02  0.90145256695E+01  0.19983711177E+03  0.23634152359E+03  0.12509000000E+03 0.  0.
         25    1    4    4    0    0 -0.40572182346E+02 -0.57304817315E+02  0.15412834274E+03  0.21055402681E+03  0.12509000000E+03 0.  0.
         25    1    3    3    0    0  0.54488890165E+02  0.48290291646E+02  0.48310082089E+03  0.50431627245E+03  0.12509000000E+03 0.  0.
<mgrwt>
<rscale>  2 0.45180082E+03</rscale>
<asrwt>0</asrwt>
<pdfrwt beam="1">  1       21 0.13149103E+00 0.45180082E+03</pdfrwt>
<pdfrwt beam="2">  1       21 0.83930555E-02 0.45180082E+03</pdfrwt>
<totfact> 0.42136038E+04</totfact>
</mgrwt>
</event>
<event>
 7    0  0.4705418E-002  0.4572425E+03  0.7546771E-02  0.1025584E+00
         21   -1    0    0  502  501  0.00000000000E+00  0.00000000000E+00  0.37568607185E+03  0.37568607185E+03  0.00000000000E+00 0.  1.
         21   -1    0    0  501  502 -0.00000000000E+00 -0.00000000000E+00 -0.13912596133E+03  0.13912596133E+03  0.00000000000E+00 0.  1.
      99926    2    1    2    0    0  0.00000000000E+00 -0.14210854715E-13  0.23656011052E+03  0.51481203318E+03  0.45724254354E+03 0.  0.
      99925    2    3    3    0    0  0.73416989365E+02  0.77403359072E+02  0.99632266108E+02  0.30085391345E+03  0.26306872575E+03 0.  0.
         25    1    4    4    0    0  0.68758093431E+02  0.15084282853E+02  0.41457328450E+02  0.14940357822E+03  0.12509000000E+03 0.  0.
         25    1    4    4    0    0  0.46588959340E+01  0.62319076218E+02  0.58174937658E+02  0.15145033524E+03  0.12509000000E+03 0.  0.
         25    1    3    3    0    0 -0.73416989365E+02 -0.77403359072E+02  0.13692784441E+03  0.21395811973E+03  0.12509000000E+03 0.  0.
<mgrwt>
<rscale>  2 0.45724254E+03</rscale>
<asrwt>0</asrwt>
<pdfrwt beam="1">  1       21 0.55247952E-01 0.45724254E+03</pdfrwt>
<pdfrwt beam="2">  1       21 0.20459700E-01 0.45724254E+03</pdfrwt>
<totfact> 0.63111497E+04</totfact>
</mgrwt>
</event>
<event>
 7    0  0.4705418E-002  0.4961200E+03  0.7546771E-02  0.1014797E+00
         21   -1    0    0  502  501  0.00000000000E+00  0.00000000000E+00  0.41840555583E+03  0.41840555583E+03  0.00000000000E+00 0.  1.
         21   -1    0    0  501  502 -0.00000000000E+00 -0.00000000000E+00 -0.14706724764E+03  0.14706724764E+03  0.00000000000E+00 0.  1.
      99926    2    1    2    0    0  0.00000000000E+00  0.00000000000E+00  0.27133830819E+03  0.56547280346E+03  0.49611995925E+03 0.  0.
      99925    2    3    3    0    0  0.68769530836E+02  0.10618645116E+03  0.76573917129E+02  0.30168219160E+03  0.26295202826E+03 0.  0.
         25    1    4    4    0    0  0.31260481515E+02  0.91450407441E+02  0.22912666115E+02  0.15972755897E+03  0.12509000000E+03 0.  0.
         25    1    4    4    0    0  0.37509049321E+02  0.14736043719E+02  0.53661251014E+02  0.14195463263E+03  0.12509000000E+03 0.  0.
         25    1    3    3    0    0 -0.68769530836E+02 -0.10618645116E+03  0.19476439106E+03  0.26379061186E+03  0.12509000000E+03 0.  0.
<mgrwt>
<rscale>  2 0.49611996E+03</rscale>
<asrwt>0</asrwt>
<pdfrwt beam="1">  1       21 0.61530229E-01 0.49611996E+03</pdfrwt>
<pdfrwt beam="2">  1       21 0.21627537E-01 0.49611996E+03</pdfrwt>
<totfact> 0.44501570E+04</totfact>
</mgrwt>
</event>
<event>
 7    0  0.4705418E-002  0.4705820E+03  0.7546771E-02  0.1021756E+00
         21   -1    0    0  502  501  0.00000000000E+00  0.00000000000E+00  0.38557440091E+03  0.38557440091E+03  0.00000000000E+00 0. -1.
         21   -1    0    0  501  502 -0.00000000000E+00 -0.00000000000E+00 -0.14358282674E+03  0.14358282674E+03  0.00000000000E+00 0. -1.
      99926    2    1    2    0    0 -0.17763568394E-14  0.00000000000E+00  0.24199157417E+03  0.52915722766E+03  0.47058203282E+03 0.  0.
      99925    2    3    3    0    0  0.88753964906E+01  0.12451343248E+03  0.17002356517E+03  0.33834509505E+03  0.26455060594E+03 0.  0.
         25    1    3    3    0    0 -0.88753964906E+01 -0.12451343248E+03  0.71968008998E+02  0.19081213260E+03  0.12509000000E+03 0.  0.
         25    1    4    4    0    0 -0.25023282974E+02  0.30591758878E+02  0.92398313097E+02  0.16045864503E+03  0.12509000000E+03 0.  0.
         25    1    4    4    0    0  0.33898679464E+02  0.93921673598E+02  0.77625252077E+02  0.17788645002E+03  0.12509000000E+03 0.  0.
<mgrwt>
<rscale>  2 0.47058203E+03</rscale>
<asrwt>0</asrwt>
<pdfrwt beam="1">  1       21 0.56702118E-01 0.47058203E+03</pdfrwt>
<pdfrwt beam="2">  1       21 0.21115122E-01 0.47058203E+03</pdfrwt>
<totfact> 0.56015619E+04</totfact>
</mgrwt>
</event>
<event>
 7    0  0.4705418E-002  0.4566140E+03  0.7546771E-02  0.1025768E+00
         21   -1    0    0  502  501  0.00000000000E+00  0.00000000000E+00  0.19560529334E+03  0.19560529334E+03  0.00000000000E+00 0. -1.
         21   -1    0    0  501  502 -0.00000000000E+00 -0.00000000000E+00 -0.26647582857E+03  0.26647582857E+03  0.00000000000E+00 0. -1.
      99926    2    1    2    0    0  0.00000000000E+00  0.00000000000E+00 -0.70870535234E+02  0.46208112191E+03  0.45661398408E+03 0.  0.
      99925    2    3    3    0    0  0.65598441754E+02  0.72573663538E+02  0.15969282635E+02  0.28108732569E+03  0.26303036798E+03 0.  0.
         25    1    4    4    0    0  0.50923572755E+02  0.17182408546E+02  0.38909964615E+02  0.14159780673E+03  0.12509000000E+03 0.  0.
         25    1    4    4    0    0  0.14674868999E+02  0.55391254992E+02 -0.22940681980E+02  0.13948951896E+03  0.12509000000E+03 0.  0.
         25    1    3    3    0    0 -0.65598441754E+02 -0.72573663538E+02 -0.86839817869E+02  0.18099379621E+03  0.12509000000E+03 0.  0.
<mgrwt>
<rscale>  2 0.45661398E+03</rscale>
<asrwt>0</asrwt>
<pdfrwt beam="1">  1       21 0.28765485E-01 0.45661398E+03</pdfrwt>
<pdfrwt beam="2">  1       21 0.39187621E-01 0.45661398E+03</pdfrwt>
<totfact> 0.67160564E+04</totfact>
</mgrwt>
</event>
<event>
 7    0  0.4705418E-002  0.4539343E+03  0.7546771E-02  0.1026555E+00
         21   -1    0    0  502  501  0.00000000000E+00  0.00000000000E+00  0.75313160245E+02  0.75313160245E+02  0.00000000000E+00 0. -1.
         21   -1    0    0  501  502 -0.00000000000E+00 -0.00000000000E+00 -0.68399858755E+03  0.68399858755E+03  0.00000000000E+00 0. -1.
      99926    2    1    2    0    0 -0.26645352591E-14  0.00000000000E+00 -0.60868542731E+03  0.75931174780E+03  0.45393433548E+03 0.  0.
      99925    2    3    3    0    0  0.13727363732E+01  0.10684644740E+03 -0.44042867139E+03  0.52399092054E+03  0.26300384504E+03 0.  0.
         25    1    3    3    0    0 -0.13727363732E+01 -0.10684644740E+03 -0.16825675592E+03  0.23532082725E+03  0.12509000000E+03 0.  0.
         25    1    4    4    0    0 -0.32964031934E+02  0.57710833152E+02 -0.26359924298E+03  0.29924778472E+03  0.12509000000E+03 0.  0.
         25    1    4    4    0    0  0.34336768307E+02  0.49135614249E+02 -0.17682942841E+03  0.22474313582E+03  0.12509000000E+03 0.  0.
<mgrwt>
<rscale>  2 0.45393434E+03</rscale>
<asrwt>0</asrwt>
<pdfrwt beam="1">  1       21 0.11075465E-01 0.45393434E+03</pdfrwt>
<pdfrwt beam="2">  1       21 0.10058803E+00 0.45393434E+03</pdfrwt>
<totfact> 0.50214140E+04</totfact>
</mgrwt>
</event>
<event>
 7    0  0.4705418E-002  0.4509939E+03  0.7546771E-02  0.1027426E+00
         21   -1    0    0  502  501  0.00000000000E+00  0.00000000000E+00  0.11210966083E+03  0.11210966083E+03  0.00000000000E+00 0.  1.
         21   -1    0    0  501  502 -0.00000000000E+00 -0.00000000000E+00 -0.45356362181E+03  0.45356362181E+03  0.00000000000E+00 0.  1.
      99926    2    1    2    0    0  0.00000000000E+00  0.17763568394E-14 -0.34145396098E+03  0.56567328264E+03  0.45099385275E+03 0.  0.
      99925    2    3    3    0    0 -0.47797461871E+02 -0.33795708366E+01 -0.33869288148E+03  0.43169137893E+03  0.26334114721E+03 0.  0.
         25    1    3    3    0    0  0.47797461871E+02  0.33795708366E+01 -0.27610794973E+01  0.13398190370E+03  0.12509000000E+03 0.  0.
         25    1    4    4    0    0 -0.20544802385E+01 -0.33941694040E+02 -0.14302018212E+03  0.19302471364E+03  0.12509000000E+03 0.  0.
         25    1    4    4    0    0 -0.45742981633E+02  0.30562123203E+02 -0.19567269936E+03  0.23866666529E+03  0.12509000000E+03 0.  0.
<mgrwt>
<rscale>  2 0.45099385E+03</rscale>
<asrwt>0</asrwt>
<pdfrwt beam="1">  1       21 0.16486715E-01 0.45099385E+03</pdfrwt>
<pdfrwt beam="2">  1       21 0.66700532E-01 0.45099385E+03</pdfrwt>
<totfact> 0.62808998E+04</totfact>
</mgrwt>
</event>
<event>
 7    0  0.4705418E-002  0.4380702E+03  0.7546771E-02  0.1031341E+00
         21   -1    0    0  502  501  0.00000000000E+00  0.00000000000E+00  0.81120801760E+03  0.81120801760E+03  0.00000000000E+00 0.  1.
         21   -1    0    0  501  502 -0.00000000000E+00 -0.00000000000E+00 -0.59141895687E+02  0.59141895687E+02  0.00000000000E+00 0.  1.
      99926    2    1    2    0    0 -0.17763568394E-14  0.00000000000E+00  0.75206612191E+03  0.87034991328E+03  0.43807022249E+03 0.  0.
      99925    2    3    3    0    0 -0.10074333343E+02 -0.76299509482E+02  0.36498685901E+03  0.45634390946E+03  0.26289018450E+03 0.  0.
         25    1    4    4    0    0 -0.31805496426E+02 -0.43036896367E+02  0.13576895123E+03  0.19220946977E+03  0.12509000000E+03 0.  0.
         25    1    4    4    0    0  0.21731163083E+02 -0.33262613115E+02  0.22921790778E+03  0.26413443969E+03  0.12509000000E+03 0.  0.
         25    1    3    3    0    0  0.10074333343E+02  0.76299509482E+02  0.38707926289E+03  0.41400600382E+03  0.12509000000E+03 0.  0.
<mgrwt>
<rscale>  2 0.43807022E+03</rscale>
<asrwt>0</asrwt>
<pdfrwt beam="1">  1       21 0.11929529E+00 0.43807022E+03</pdfrwt>
<pdfrwt beam="2">  1       21 0.86973381E-02 0.43807022E+03</pdfrwt>
<totfact> 0.50969975E+04</totfact>
</mgrwt>
</event>
<event>
 7    0  0.4705418E-002  0.4056731E+03  0.7546771E-02  0.1041833E+00
         21   -1    0    0  502  501  0.00000000000E+00  0.00000000000E+00  0.83545939873E+03  0.83545939873E+03  0.00000000000E+00 0.  1.
         21   -1    0    0  501  502 -0.00000000000E+00 -0.00000000000E+00 -0.49245565812E+02  0.49245565812E+02  0.00000000000E+00 0.  1.
      99926    2    1    2    0    0 -0.71054273576E-14  0.00000000000E+00  0.78621383292E+03  0.88470496454E+03  0.40567312360E+03 0.  0.
      99925    2    3    3    0    0 -0.40235193001E+02 -0.84539543425E+01  0.60065221283E+03  0.65717263046E+03  0.26344343863E+03 0.  0.
         25    1    4    4    0    0 -0.32577756517E+02 -0.20092364189E+02  0.39462368248E+03  0.41574075118E+03  0.12509000000E+03 0.  0.
         25    1    4    4    0    0 -0.76574364837E+01  0.11638409847E+02  0.20602853034E+03  0.24143187928E+03  0.12509000000E+03 0.  0.
         25    1    3    3    0    0  0.40235193001E+02  0.84539543425E+01  0.18556162009E+03  0.22753233408E+03  0.12509000000E+03 0.  0.
<mgrwt>
<rscale>  2 0.40567312E+03</rscale>
<asrwt>0</asrwt>
<pdfrwt beam="1">  1       21 0.12286167E+00 0.40567312E+03</pdfrwt>
<pdfrwt beam="2">  1       21 0.72419955E-02 0.40567312E+03</pdfrwt>
<totfact> 0.65897279E+04</totfact>
</mgrwt>
</event>
<event>
 7    0  0.4705418E-002  0.4529188E+03  0.7546771E-02  0.1026855E+00
         21   -1    0    0  502  501  0.00000000000E+00  0.00000000000E+00  0.77460736538E+03  0.77460736538E+03  0.00000000000E+00 0.  1.
         21   -1    0    0  501  502 -0.00000000000E+00 -0.00000000000E+00 -0.66206269457E+02  0.66206269457E+02  0.00000000000E+00 0.  1.
      99926    2    1    2    0    0 -0.14210854715E-13 -0.44408920985E-15  0.70840109592E+03  0.84081363483E+03  0.45291881814E+03 0.  0.
      99925    2    3    3    0    0 -0.10490408119E+03  0.36586646565E+01  0.51459087570E+03  0.58738087918E+03  0.26304804845E+03 0.  0.
         25    1    4    4    0    0 -0.80578670090E+02 -0.26488346248E+02  0.30172057052E+03  0.33745720519E+03  0.12509000000E+03 0.  0.
         25    1    3    3    0    0  0.10490408119E+03 -0.36586646565E+01  0.19381022022E+03  0.25343275566E+03  0.12509000000E+03 0.  0.
         25    1    4    4    0    0 -0.24325411101E+02  0.30147010904E+02  0.21287030519E+03  0.24992367399E+03  0.12509000000E+03 0.  0.
<mgrwt>
<rscale>  2 0.45291882E+03</rscale>
<asrwt>0</asrwt>
<pdfrwt beam="1">  1       21 0.11391284E+00 0.45291882E+03</pdfrwt>
<pdfrwt beam="2">  1       21 0.97362165E-02 0.45291882E+03</pdfrwt>
<totfact> 0.46609521E+04</totfact>
</mgrwt>
</event>
<event>
 6    0  0.5867069E-002  0.4245744E+03  0.7546771E-02  0.1035588E+00
         21   -1    0    0  502  501  0.00000000000E+00  0.00000000000E+00  0.31204130915E+03  0.31204130915E+03  0.00000000000E+00 0. -1.
         21   -1    0    0  501  502 -0.00000000000E+00 -0.00000000000E+00 -0.14442272252E+03  0.14442272252E+03  0.00000000000E+00 0. -1.
      99926    2    1    2    0    0  0.00000000000E+00 -0.71054273576E-14  0.16761858663E+03  0.45646403167E+03  0.42457440058E+03 0.  0.
         25    1    3    3    0    0  0.20936643528E+02 -0.15181987314E+02  0.90315924718E+02  0.15643947756E+03  0.12509000000E+03 0.  0.
         25    1    3    3    0    0 -0.30455059380E+02 -0.61332681168E+02  0.30770940572E+02  0.14588888684E+03  0.12509000000E+03 0.  0.
         25    1    3    3    0    0  0.95184158516E+01  0.76514668482E+02  0.46531721337E+02  0.15413566727E+03  0.12509000000E+03 0.  0.
<mgrwt>
<rscale>  2 0.42457440E+03</rscale>
<asrwt>0</asrwt>
<pdfrwt beam="1">  1       21 0.45888428E-01 0.42457440E+03</pdfrwt>
<pdfrwt beam="2">  1       21 0.21238636E-01 0.42457440E+03</pdfrwt>
<totfact> 0.87820188E+04</totfact>
</mgrwt>
</event>
<event>
 7    0  0.4705418E-002  0.4535062E+03  0.7546771E-02  0.1026682E+00
         21   -1    0    0  502  501  0.00000000000E+00  0.00000000000E+00  0.33153136642E+03  0.33153136642E+03  0.00000000000E+00 0.  1.
         21   -1    0    0  501  502 -0.00000000000E+00 -0.00000000000E+00 -0.15508929155E+03  0.15508929155E+03  0.00000000000E+00 0.  1.
      99926    2    1    2    0    0  0.00000000000E+00  0.00000000000E+00  0.17644207487E+03  0.48662065797E+03  0.45350618406E+03 0.  0.
      99925    2    3    3    0    0  0.10867050360E+03  0.12253559274E+02  0.13597276361E+03  0.31560983574E+03  0.26298583214E+03 0.  0.
         25    1    3    3    0    0 -0.10867050360E+03 -0.12253559274E+02  0.40469311256E+02  0.17101082223E+03  0.12509000000E+03 0.  0.
         25    1    4    4    0    0  0.81315895723E+02 -0.18004892353E+02  0.49742768995E+02  0.15829814343E+03  0.12509000000E+03 0.  0.
         25    1    4    4    0    0  0.27354607873E+02  0.30258451627E+02  0.86229994619E+02  0.15731169231E+03  0.12509000000E+03 0.  0.
<mgrwt>
<rscale>  2 0.45350618E+03</rscale>
<asrwt>0</asrwt>
<pdfrwt beam="1">  1       21 0.48754613E-01 0.45350618E+03</pdfrwt>
<pdfrwt beam="2">  1       21 0.22807249E-01 0.45350618E+03</pdfrwt>
<totfact> 0.67012401E+04</totfact>
</mgrwt>
</event>
<event>
 7    0  0.4705418E-002  0.4561011E+03  0.7546771E-02  0.1025918E+00
         21   -1    0    0  502  501  0.00000000000E+00  0.00000000000E+00  0.18454833000E+03  0.18454833000E+03  0.00000000000E+00 0.  1.
         21   -1    0    0  501  502 -0.00000000000E+00 -0.00000000000E+00 -0.28180723323E+03  0.28180723323E+03  0.00000000000E+00 0.  1.
      99926    2    1    2    0    0  0.00000000000E+00  0.00000000000E+00 -0.97258903227E+02  0.46635556323E+03  0.45610110403E+03 0.  0.
      99925    2    3    3    0    0 -0.88586544355E+02  0.41830301806E+02 -0.12112075379E+03  0.30568743944E+03  0.26301563384E+03 0.  0.
         25    1    4    4    0    0 -0.17107691204E+02  0.42472121264E+02 -0.34585480978E+02  0.13762346376E+03  0.12509000000E+03 0.  0.
         25    1    4    4    0    0 -0.71478853152E+02 -0.64181945774E+00 -0.86535272814E+02  0.16806397568E+03  0.12509000000E+03 0.  0.
         25    1    3    3    0    0  0.88586544355E+02 -0.41830301806E+02  0.23861850564E+02  0.16066812379E+03  0.12509000000E+03 0.  0.
<mgrwt>
<rscale>  2 0.45610110E+03</rscale>
<asrwt>0</asrwt>
<pdfrwt beam="1">  1       21 0.27139461E-01 0.45610110E+03</pdfrwt>
<pdfrwt beam="2">  1       21 0.41442240E-01 0.45610110E+03</pdfrwt>
<totfact> 0.67120207E+04</totfact>
</mgrwt>
</event>
<event>
 7    0  0.4705418E-002  0.4603258E+03  0.7546771E-02  0.1024687E+00
         21   -1    0    0  502  501  0.00000000000E+00  0.00000000000E+00  0.32492046413E+02  0.32492046413E+02  0.00000000000E+00 0.  1.
         21   -1    0    0  501  502 -0.00000000000E+00 -0.00000000000E+00 -0.16303978173E+04  0.16303978173E+04  0.00000000000E+00 0.  1.
      99926    2    1    2    0    0  0.71054273576E-14  0.00000000000E+00 -0.15979057708E+04  0.16628898637E+04  0.46032580441E+03 0.  0.
      99925    2    3    3    0    0 -0.37172471050E+02 -0.96762858281E+02 -0.79583629861E+03  0.84453310178E+03  0.26293706940E+03 0.  0.
         25    1    4    4    0    0  0.21401783286E+02 -0.50549812360E+02 -0.36341955189E+03  0.38824553913E+03  0.12509000000E+03 0.  0.
         25    1    4    4    0    0 -0.58574254336E+02 -0.46213045921E+02 -0.43241674673E+03  0.45628756266E+03  0.12509000000E+03 0.  0.
         25    1    3    3    0    0  0.37172471050E+02  0.96762858281E+02 -0.80206947223E+03  0.81835676189E+03  0.12509000000E+03 0.  0.
<mgrwt>
<rscale>  2 0.46032580E+03</rscale>
<asrwt>0</asrwt>
<pdfrwt beam="1">  1       21 0.47782425E-02 0.46032580E+03</pdfrwt>
<pdfrwt beam="2">  1       21 0.23976437E+00 0.46032580E+03</pdfrwt>
<totfact> 0.19237382E+04</totfact>
</mgrwt>
</event>
<event>
 7    0  0.4705418E-002  0.4533069E+03  0.7546771E-02  0.1026740E+00
         21   -1    0    0  502  501  0.00000000000E+00  0.00000000000E+00  0.40675219884E+02  0.40675219884E+02  0.00000000000E+00 0.  1.
         21   -1    0    0  501  502 -0.00000000000E+00 -0.00000000000E+00 -0.12629749375E+04  0.12629749375E+04  0.00000000000E+00 0.  1.
      99926    2    1    2    0    0  0.00000000000E+00  0.00000000000E+00 -0.12222997176E+04  0.13036501574E+04  0.45330688630E+03 0.  0.
      99925    2    3    3    0    0 -0.83547841711E+02 -0.27403675749E+02 -0.96750478594E+03  0.10064983972E+04  0.26313933451E+03 0.  0.
         25    1    4    4    0    0 -0.81178519809E+02 -0.28331586362E+02 -0.56127495367E+03  0.58143762570E+03  0.12509000000E+03 0.  0.
         25    1    3    3    0    0  0.83547841711E+02  0.27403675749E+02 -0.25479493169E+03  0.29715176024E+03  0.12509000000E+03 0.  0.
         25    1    4    4    0    0 -0.23693219023E+01  0.92791061355E+00 -0.40622983227E+03  0.42506077146E+03  0.12509000000E+03 0.  0.
<mgrwt>
<rscale>  2 0.45330689E+03</rscale>
<asrwt>0</asrwt>
<pdfrwt beam="1">  1       21 0.59816509E-02 0.45330689E+03</pdfrwt>
<pdfrwt beam="2">  1       21 0.18573158E+00 0.45330689E+03</pdfrwt>
<totfact> 0.29393995E+04</totfact>
</mgrwt>
</event>
<event>
 7    0  0.4705418E-002  0.4549777E+03  0.7546771E-02  0.1026248E+00
         21   -1    0    0  502  501  0.00000000000E+00  0.00000000000E+00  0.48370245097E+03  0.48370245097E+03  0.00000000000E+00 0. -1.
         21   -1    0    0  501  502 -0.00000000000E+00 -0.00000000000E+00 -0.10698969484E+03  0.10698969484E+03  0.00000000000E+00 0. -1.
      99926    2    1    2    0    0 -0.35527136788E-14  0.00000000000E+00  0.37671275613E+03  0.59069214581E+03  0.45497770329E+03 0.  0.
      99925    2    3    3    0    0  0.26621287060E+02  0.10528255144E+03  0.19565072530E+03  0.34528620523E+03  0.26296434863E+03 0.  0.
         25    1    4    4    0    0  0.33561318649E+02  0.33286800971E+02  0.13026898395E+03  0.18668660773E+03  0.12509000000E+03 0.  0.
         25    1    3    3    0    0 -0.26621287060E+02 -0.10528255144E+03  0.18106203083E+03  0.24540594058E+03  0.12509000000E+03 0.  0.
         25    1    4    4    0    0 -0.69400315896E+01  0.71995750474E+02  0.65381741356E+02  0.15859959750E+03  0.12509000000E+03 0.  0.
<mgrwt>
<rscale>  2 0.45497770E+03</rscale>
<asrwt>0</asrwt>
<pdfrwt beam="1">  1       21 0.71132712E-01 0.45497770E+03</pdfrwt>
<pdfrwt beam="2">  1       21 0.15733779E-01 0.45497770E+03</pdfrwt>
<totfact> 0.59265320E+04</totfact>
</mgrwt>
</event>
<event>
 7    0  0.4705418E-002  0.4589584E+03  0.7546771E-02  0.1025084E+00
         21   -1    0    0  502  501  0.00000000000E+00  0.00000000000E+00  0.43450945390E+03  0.43450945390E+03  0.00000000000E+00 0.  1.
         21   -1    0    0  501  502 -0.00000000000E+00 -0.00000000000E+00 -0.12119578462E+03  0.12119578462E+03  0.00000000000E+00 0.  1.
      99926    2    1    2    0    0 -0.71054273576E-14  0.00000000000E+00  0.31331366928E+03  0.55570523852E+03  0.45895844775E+03 0.  0.
      99925    2    3    3    0    0  0.28855507491E+02  0.88623543131E+02  0.11106541517E+03  0.30028668575E+03  0.26296348507E+03 0.  0.
         25    1    4    4    0    0  0.39719596715E+02  0.72551799706E+02  0.40386179800E+02  0.15530602571E+03  0.12509000000E+03 0.  0.
         25    1    4    4    0    0 -0.10864089224E+02  0.16071743424E+02  0.70679235373E+02  0.14498066004E+03  0.12509000000E+03 0.  0.
         25    1    3    3    0    0 -0.28855507491E+02 -0.88623543131E+02  0.20224825410E+03  0.25541855277E+03  0.12509000000E+03 0.  0.
<mgrwt>
<rscale>  2 0.45895845E+03</rscale>
<asrwt>0</asrwt>
<pdfrwt beam="1">  1       21 0.63898449E-01 0.45895845E+03</pdfrwt>
<pdfrwt beam="2">  1       21 0.17822910E-01 0.45895845E+03</pdfrwt>
<totfact> 0.59602598E+04</totfact>
</mgrwt>
</event>
<event>
 7    0  0.4705418E-002  0.4447662E+03  0.7546771E-02  0.1029294E+00
         21   -1    0    0  502  501  0.00000000000E+00  0.00000000000E+00  0.48651011804E+03  0.48651011804E+03  0.00000000000E+00 0. -1.
         21   -1    0    0  501  502 -0.00000000000E+00 -0.00000000000E+00 -0.10165102009E+03  0.10165102009E+03  0.00000000000E+00 0. -1.
      99926    2    1    2    0    0 -0.88817841970E-15 -0.35527136788E-14  0.38485909795E+03  0.58816113813E+03  0.44476622976E+03 0.  0.
      99925    2    3    3    0    0 -0.25210785678E+01 -0.29989486169E+02  0.37516908147E+03  0.45913738204E+03  0.26296305971E+03 0.  0.
         25    1    3    3    0    0  0.25210785678E+01  0.29989486169E+02  0.96900164768E+01  0.12902375610E+03  0.12509000000E+03 0.  0.
         25    1    4    4    0    0 -0.15809754956E+02 -0.33985780834E+02  0.24764819123E+03  0.27996806313E+03  0.12509000000E+03 0.  0.
         25    1    4    4    0    0  0.13288676388E+02  0.39962946646E+01  0.12752089024E+03  0.17916931891E+03  0.12509000000E+03 0.  0.
<mgrwt>
<rscale>  2 0.44476623E+03</rscale>
<asrwt>0</asrwt>
<pdfrwt beam="1">  1       21 0.71545605E-01 0.44476623E+03</pdfrwt>
<pdfrwt beam="2">  1       21 0.14948680E-01 0.44476623E+03</pdfrwt>
<totfact> 0.64471554E+04</totfact>
</mgrwt>
</event>
<event>
 7    0  0.4705418E-002  0.4564763E+03  0.7546771E-02  0.1025808E+00
         21   -1    0    0  502  501  0.00000000000E+00  0.00000000000E+00  0.10443135148E+03  0.10443135148E+03  0.00000000000E+00 0. -1.
         21   -1    0    0  501  502 -0.00000000000E+00 -0.00000000000E+00 -0.49882187935E+03  0.49882187935E+03  0.00000000000E+00 0. -1.
      99926    2    1    2    0    0  0.00000000000E+00  0.00000000000E+00 -0.39439052787E+03  0.60325323083E+03  0.45647625573E+03 0.  0.
      99925    2    3    3    0    0  0.23105980253E+02 -0.96442874353E+02 -0.17117553434E+03  0.32883100912E+03  0.26266643231E+03 0.  0.
         25    1    4    4    0    0 -0.15954060033E+02 -0.16471569449E+02 -0.81198275216E+02  0.15088576019E+03  0.12509000000E+03 0.  0.
         25    1    3    3    0    0 -0.23105980253E+02  0.96442874353E+02 -0.22321499352E+03  0.27442222171E+03  0.12509000000E+03 0.  0.
         25    1    4    4    0    0  0.39060040286E+02 -0.79971304904E+02 -0.89977259129E+02  0.17794524893E+03  0.12509000000E+03 0.  0.
<mgrwt>
<rscale>  2 0.45647626E+03</rscale>
<asrwt>0</asrwt>
<pdfrwt beam="1">  1       21 0.15357552E-01 0.45647626E+03</pdfrwt>
<pdfrwt beam="2">  1       21 0.73356157E-01 0.45647626E+03</pdfrwt>
<totfact> 0.57801362E+04</totfact>
</mgrwt>
</event>
<event>
 7    0  0.4705418E-002  0.4201190E+03  0.7546771E-02  0.1037028E+00
         21   -1    0    0  502  501  0.00000000000E+00  0.00000000000E+00  0.10967065622E+04  0.10967065622E+04  0.00000000000E+00 0. -1.
         21   -1    0    0  501  502 -0.00000000000E+00 -0.00000000000E+00 -0.40234100689E+02  0.40234100689E+02  0.00000000000E+00 0. -1.
      99926    2    1    2    0    0 -0.71054273576E-14  0.35527136788E-14  0.10564724615E+04  0.11369406629E+04  0.42011904146E+03 0.  0.
      99925    2    3    3    0    0  0.61344299738E+02 -0.17165026628E+02  0.80080647376E+03  0.84527241531E+03  0.26293856017E+03 0.  0.
         25    1    3    3    0    0 -0.61344299738E+02  0.17165026628E+02  0.25566598774E+03  0.29166824756E+03  0.12509000000E+03 0.  0.
         25    1    4    4    0    0  0.30121305957E+02  0.31277935946E+02  0.41562301433E+03  0.43620591524E+03  0.12509000000E+03 0.  0.
         25    1    4    4    0    0  0.31222993781E+02 -0.48442962574E+02  0.38518345942E+03  0.40906650007E+03  0.12509000000E+03 0.  0.
<mgrwt>
<rscale>  2 0.42011904E+03</rscale>
<asrwt>0</asrwt>
<pdfrwt beam="1">  1       21 0.16128036E+00 0.42011904E+03</pdfrwt>
<pdfrwt beam="2">  1       21 0.59167802E-02 0.42011904E+03</pdfrwt>
<totfact> 0.45352529E+04</totfact>
</mgrwt>
</event>
<event>
 7    0  0.4705418E-002  0.4797990E+03  0.7546771E-02  0.1019190E+00
         21   -1    0    0  502  501  0.00000000000E+00  0.00000000000E+00  0.34830609260E+02  0.34830609260E+02  0.00000000000E+00 0. -1.
         21   -1    0    0  501  502 -0.00000000000E+00 -0.00000000000E+00 -0.16523329627E+04  0.16523329627E+04  0.00000000000E+00 0. -1.
      99926    2    1    2    0    0  0.00000000000E+00  0.00000000000E+00 -0.16175023535E+04  0.16871635720E+04  0.47979897371E+03 0.  0.
      99925    2    3    3    0    0  0.10892753442E+03 -0.72559123361E+02 -0.11140430319E+04  0.11521413008E+04  0.26307349895E+03 0.  0.
         25    1    4    4    0    0  0.87017577200E+02 -0.11268846827E+02 -0.57167954529E+03  0.59174661491E+03  0.12509000000E+03 0.  0.
         25    1    4    4    0    0  0.21909957221E+02 -0.61290276534E+02 -0.54236348664E+03  0.56039468588E+03  0.12509000000E+03 0.  0.
         25    1    3    3    0    0 -0.10892753442E+03  0.72559123361E+02 -0.50345932154E+03  0.53502227121E+03  0.12509000000E+03 0.  0.
<mgrwt>
<rscale>  2 0.47979897E+03</rscale>
<asrwt>0</asrwt>
<pdfrwt beam="1">  1       21 0.51221496E-02 0.47979897E+03</pdfrwt>
<pdfrwt beam="2">  1       21 0.24299008E+00 0.47979897E+03</pdfrwt>
<totfact> 0.16182697E+04</totfact>
</mgrwt>
</event>
<event>
 7    0  0.4705418E-002  0.4535620E+03  0.7546771E-02  0.1026665E+00
         21   -1    0    0  502  501  0.00000000000E+00  0.00000000000E+00  0.13765543596E+04  0.13765543596E+04  0.00000000000E+00 0.  1.
         21   -1    0    0  501  502 -0.00000000000E+00 -0.00000000000E+00 -0.37361130041E+02  0.37361130041E+02  0.00000000000E+00 0.  1.
      99926    2    1    2    0    0 -0.35527136788E-14  0.00000000000E+00  0.13391932296E+04  0.14139154897E+04  0.45356201974E+03 0.  0.
      99925    2    3    3    0    0 -0.25092556315E+02  0.10759789401E+03  0.80792142237E+03  0.85704550087E+03  0.26378594098E+03 0.  0.
         25    1    4    4    0    0 -0.22895069605E+02  0.11120085837E+02  0.34015293747E+03  0.36331717478E+03  0.12509000000E+03 0.  0.
         25    1    3    3    0    0  0.25092556315E+02 -0.10759789401E+03  0.53127180722E+03  0.55686998880E+03  0.12509000000E+03 0.  0.
         25    1    4    4    0    0 -0.21974867100E+01  0.96477808178E+02  0.46776848490E+03  0.49372832609E+03  0.12509000000E+03 0.  0.
<mgrwt>
<rscale>  2 0.45356202E+03</rscale>
<asrwt>0</asrwt>
<pdfrwt beam="1">  1       21 0.20243443E+00 0.45356202E+03</pdfrwt>
<pdfrwt beam="2">  1       21 0.54942847E-02 0.45356202E+03</pdfrwt>
<totfact> 0.26255702E+04</totfact>
</mgrwt>
</event>
<event>
 7    0  0.4705418E-002  0.4551127E+03  0.7546771E-02  0.1026208E+00
         21   -1    0    0  502  501  0.00000000000E+00  0.00000000000E+00  0.10755150876E+04  0.10755150876E+04  0.00000000000E+00 0.  1.
         21   -1    0    0  501  502 -0.00000000000E+00 -0.00000000000E+00 -0.48146139698E+02  0.48146139698E+02  0.00000000000E+00 0.  1.
      99926    2    1    2    0    0  0.00000000000E+00  0.14210854715E-13  0.10273689479E+04  0.11236612273E+04  0.45511273178E+03 0.  0.
      99925    2    3    3    0    0  0.60374049577E+02 -0.95524557324E+02  0.63043384242E+03  0.69241309342E+03  0.26309522108E+03 0.  0.
         25    1    4    4    0    0 -0.82851106929E+01 -0.48678404804E+02  0.26078232659E+03  0.29341635965E+03  0.12509000000E+03 0.  0.
         25    1    4    4    0    0  0.68659160270E+02 -0.46846152521E+02  0.36965151584E+03  0.39899673377E+03  0.12509000000E+03 0.  0.
         25    1    3    3    0    0 -0.60374049577E+02  0.95524557324E+02  0.39693510552E+03  0.43124813392E+03  0.12509000000E+03 0.  0.
<mgrwt>
<rscale>  2 0.45511273E+03</rscale>
<asrwt>0</asrwt>
<pdfrwt beam="1">  1       21 0.15816397E+00 0.45511273E+03</pdfrwt>
<pdfrwt beam="2">  1       21 0.70803153E-02 0.45511273E+03</pdfrwt>
<totfact> 0.34643570E+04</totfact>
</mgrwt>
</event>
<event>
 7    0  0.4705418E-002  0.4558942E+03  0.7546771E-02  0.1025979E+00
         21   -1    0    0  502  501  0.00000000000E+00  0.00000000000E+00  0.35175664669E+04  0.35175664669E+04  0.00000000000E+00 0. -1.
         21   -1    0    0  501  502 -0.00000000000E+00 -0.00000000000E+00 -0.14771542392E+02  0.14771542392E+02  0.00000000000E+00 0. -1.
      99926    2    1    2    0    0  0.00000000000E+00  0.14210854715E-13  0.35027949245E+04  0.35323380093E+04  0.45589420783E+03 0.  0.
      99925    2    3    3    0    0  0.84955094514E+02 -0.75349332311E+02  0.21515144706E+04  0.21705372665E+04  0.26329188732E+03 0.  0.
         25    1    4    4    0    0  0.26233499099E+02 -0.74337298351E+02  0.10368543559E+04  0.10473436369E+04  0.12509000000E+03 0.  0.
         25    1    4    4    0    0  0.58721595415E+02 -0.10120339593E+01  0.11146601148E+04  0.11231936296E+04  0.12509000000E+03 0.  0.
         25    1    3    3    0    0 -0.84955094514E+02  0.75349332311E+02  0.13512804538E+04  0.13618007428E+04  0.12509000000E+03 0.  0.
<mgrwt>
<rscale>  2 0.45589421E+03</rscale>
<asrwt>0</asrwt>
<pdfrwt beam="1">  1       21 0.51728861E+00 0.45589421E+03</pdfrwt>
<pdfrwt beam="2">  1       21 0.21722881E-02 0.45589421E+03</pdfrwt>
<totfact> 0.11997450E+03</totfact>
</mgrwt>
</event>
<event>
 7    0  0.4705418E-002  0.4514440E+03  0.7546771E-02  0.1027292E+00
         21   -1    0    0  502  501  0.00000000000E+00  0.00000000000E+00  0.11903006325E+03  0.11903006325E+03  0.00000000000E+00 0. -1.
         21   -1    0    0  501  502 -0.00000000000E+00 -0.00000000000E+00 -0.42804665491E+03  0.42804665491E+03  0.00000000000E+00 0. -1.
      99926    2    1    2    0    0 -0.14210854715E-13 -0.71054273576E-14 -0.30901659166E+03  0.54707671816E+03  0.45144399612E+03 0.  0.
      99925    2    3    3    0    0  0.10103542129E+03  0.42751916381E+02 -0.18960230858E+03  0.34227642077E+03  0.26299853628E+03 0.  0.
         25    1    4    4    0    0  0.61649400929E+02  0.53482661302E+02 -0.72041410441E+02  0.16582676688E+03  0.12509000000E+03 0.  0.
         25    1    4    4    0    0  0.39386020360E+02 -0.10730744921E+02 -0.11756089814E+03  0.17644965389E+03  0.12509000000E+03 0.  0.
         25    1    3    3    0    0 -0.10103542129E+03 -0.42751916381E+02 -0.11941428308E+03  0.20480029739E+03  0.12509000000E+03 0.  0.
<mgrwt>
<rscale>  2 0.45144400E+03</rscale>
<asrwt>0</asrwt>
<pdfrwt beam="1">  1       21 0.17504421E-01 0.45144400E+03</pdfrwt>
<pdfrwt beam="2">  1       21 0.62948039E-01 0.45144400E+03</pdfrwt>
<totfact> 0.63837398E+04</totfact>
</mgrwt>
</event>
<event>
 7    0  0.4705418E-002  0.4361949E+03  0.7546771E-02  0.1031921E+00
         21   -1    0    0  502  501  0.00000000000E+00  0.00000000000E+00  0.15635853207E+03  0.15635853207E+03  0.00000000000E+00 0.  1.
         21   -1    0    0  501  502 -0.00000000000E+00 -0.00000000000E+00 -0.30421424818E+03  0.30421424818E+03  0.00000000000E+00 0.  1.
      99926    2    1    2    0    0  0.71054273576E-14  0.00000000000E+00 -0.14785571611E+03  0.46057278024E+03  0.43619487974E+03 0.  0.
      99925    2    3    3    0    0 -0.44435874154E+02 -0.78777243803E+02 -0.12368931221E+03  0.30432962286E+03  0.26293929402E+03 0.  0.
         25    1    4    4    0    0 -0.44102015950E+02 -0.38165976907E+02 -0.25869035421E+02  0.14042202355E+03  0.12509000000E+03 0.  0.
         25    1    3    3    0    0  0.44435874154E+02  0.78777243803E+02 -0.24166403909E+02  0.15624315739E+03  0.12509000000E+03 0.  0.
         25    1    4    4    0    0 -0.33385820363E+00 -0.40611266896E+02 -0.97820276784E+02  0.16390759931E+03  0.12509000000E+03 0.  0.
<mgrwt>
<rscale>  2 0.43619488E+03</rscale>
<asrwt>0</asrwt>
<pdfrwt beam="1">  1       21 0.22993902E-01 0.43619488E+03</pdfrwt>
<pdfrwt beam="2">  1       21 0.44737389E-01 0.43619488E+03</pdfrwt>
<totfact> 0.79336607E+04</totfact>
</mgrwt>
</event>
<event>
 7    0  0.4705418E-002  0.4545791E+03  0.7546771E-02  0.1026365E+00
         21   -1    0    0  502  501  0.00000000000E+00  0.00000000000E+00  0.59857284971E+03  0.59857284971E+03  0.00000000000E+00 0. -1.
         21   -1    0    0  501  502 -0.00000000000E+00 -0.00000000000E+00 -0.86306204021E+02  0.86306204021E+02  0.00000000000E+00 0. -1.
      99926    2    1    2    0    0  0.00000000000E+00  0.00000000000E+00  0.51226664569E+03  0.68487905373E+03  0.45457914817E+03 0.  0.
      99925    2    3    3    0    0  0.72865258508E+02 -0.36627883026E+02  0.20609158653E+03  0.34423022772E+03  0.26338139631E+03 0.  0.
         25    1    4    4    0    0 -0.35408493572E+01 -0.63742224110E+01  0.81347428462E+02  0.14939237110E+03  0.12509000000E+03 0.  0.
         25    1    3    3    0    0 -0.72865258508E+02  0.36627883026E+02  0.30617505916E+03  0.34064882601E+03  0.12509000000E+03 0.  0.
         25    1    4    4    0    0  0.76406107865E+02 -0.30253660615E+02  0.12474415807E+03  0.19483785662E+03  0.12509000000E+03 0.  0.
<mgrwt>
<rscale>  2 0.45457915E+03</rscale>
<asrwt>0</asrwt>
<pdfrwt beam="1">  1       21 0.88025417E-01 0.45457915E+03</pdfrwt>
<pdfrwt beam="2">  1       21 0.12692089E-01 0.45457915E+03</pdfrwt>
<totfact> 0.53910281E+04</totfact>
</mgrwt>
</event>
<event>
 7    0  0.4705418E-002  0.4559830E+03  0.7546771E-02  0.1025953E+00
         21   -1    0    0  502  501  0.00000000000E+00  0.00000000000E+00  0.21779198953E+02  0.21779198953E+02  0.00000000000E+00 0. -1.
         21   -1    0    0  501  502 -0.00000000000E+00 -0.00000000000E+00 -0.23866863871E+04  0.23866863871E+04  0.00000000000E+00 0. -1.
      99926    2    1    2    0    0  0.00000000000E+00  0.00000000000E+00 -0.23649071881E+04  0.24084655860E+04  0.45598297189E+03 0.  0.
      99925    2    3    3    0    0 -0.15148838501E+01 -0.98151030604E+02 -0.11804734665E+04  0.12134063119E+04  0.26306150032E+03 0.  0.
         25    1    4    4    0    0  0.35655939451E+02 -0.63790661986E+02 -0.56085539675E+03  0.57926408377E+03  0.12509000000E+03 0.  0.
         25    1    4    4    0    0 -0.37170823302E+02 -0.34360368618E+02 -0.61961806973E+03  0.63414222811E+03  0.12509000000E+03 0.  0.
         25    1    3    3    0    0  0.15148838501E+01  0.98151030604E+02 -0.11844337216E+04  0.11950592742E+04  0.12509000000E+03 0.  0.
<mgrwt>
<rscale>  2 0.45598297E+03</rscale>
<asrwt>0</asrwt>
<pdfrwt beam="1">  1       21 0.32028224E-02 0.45598297E+03</pdfrwt>
<pdfrwt beam="2">  1       21 0.35098340E+00 0.45598297E+03</pdfrwt>
<totfact> 0.80524715E+03</totfact>
</mgrwt>
</event>
<event>
 7    0  0.4705418E-002  0.4717303E+03  0.7546771E-02  0.1021433E+00
         21   -1    0    0  502  501  0.00000000000E+00  0.00000000000E+00  0.35848819171E+03  0.35848819171E+03  0.00000000000E+00 0. -1.
         21   -1    0    0  501  502 -0.00000000000E+00 -0.00000000000E+00 -0.15518604324E+03  0.15518604324E+03  0.00000000000E+00 0. -1.
      99926    2    1    2    0    0 -0.14210854715E-13  0.00000000000E+00  0.20330214847E+03  0.51367423495E+03  0.47173027895E+03 0.  0.
      99925    2    3    3    0    0  0.10392949455E+03 -0.68996974955E+02  0.15843491410E+03  0.33140383359E+03  0.26299231266E+03 0.  0.
         25    1    4    4    0    0  0.67506624816E+02 -0.19807660908E+02  0.11962830998E+03  0.18683663579E+03  0.12509000000E+03 0.  0.
         25    1    4    4    0    0  0.36422869736E+02 -0.49189314048E+02  0.38806604122E+02  0.14456719780E+03  0.12509000000E+03 0.  0.
         25    1    3    3    0    0 -0.10392949455E+03  0.68996974955E+02  0.44867234369E+02  0.18227040136E+03  0.12509000000E+03 0.  0.
<mgrwt>
<rscale>  2 0.47173028E+03</rscale>
<asrwt>0</asrwt>
<pdfrwt beam="1">  1       21 0.52718852E-01 0.47173028E+03</pdfrwt>
<pdfrwt beam="2">  1       21 0.22821477E-01 0.47173028E+03</pdfrwt>
<totfact> 0.56444134E+04</totfact>
</mgrwt>
</event>
<event>
 7    0  0.4705418E-002  0.4596049E+03  0.7546771E-02  0.1024896E+00
         21   -1    0    0  502  501  0.00000000000E+00  0.00000000000E+00  0.18974518987E+02  0.18974518987E+02  0.00000000000E+00 0.  1.
         21   -1    0    0  501  502 -0.00000000000E+00 -0.00000000000E+00 -0.27831625854E+04  0.27831625854E+04  0.00000000000E+00 0.  1.
      99926    2    1    2    0    0 -0.17763568394E-14  0.00000000000E+00 -0.27641880664E+04  0.28021371044E+04  0.45960492304E+03 0.  0.
      99925    2    3    3    0    0 -0.62184529524E+01  0.39465738667E+02 -0.24054573714E+04  0.24201273750E+04  0.26304967596E+03 0.  0.
         25    1    4    4    0    0  0.98361686885E+01  0.57346359447E+02 -0.13399079926E+04  0.13469915709E+04  0.12509000000E+03 0.  0.
         25    1    3    3    0    0  0.62184529524E+01 -0.39465738667E+02 -0.35873069504E+03  0.38200972939E+03  0.12509000000E+03 0.  0.
         25    1    4    4    0    0 -0.16054621641E+02 -0.17880620779E+02 -0.10655493787E+04  0.10731358041E+04  0.12509000000E+03 0.  0.
<mgrwt>
<rscale>  2 0.45960492E+03</rscale>
<asrwt>0</asrwt>
<pdfrwt beam="1">  1       21 0.27903702E-02 0.45960492E+03</pdfrwt>
<pdfrwt beam="2">  1       21 0.40928865E+00 0.45960492E+03</pdfrwt>
<totfact> 0.43504396E+03</totfact>
</mgrwt>
</event>
<event>
 7    0  0.4705418E-002  0.4529148E+03  0.7546771E-02  0.1026856E+00
         21   -1    0    0  502  501  0.00000000000E+00  0.00000000000E+00  0.72093259973E+03  0.72093259973E+03  0.00000000000E+00 0.  1.
         21   -1    0    0  501  502 -0.00000000000E+00 -0.00000000000E+00 -0.71134196679E+02  0.71134196679E+02  0.00000000000E+00 0.  1.
      99926    2    1    2    0    0  0.00000000000E+00  0.00000000000E+00  0.64979840306E+03  0.79206679641E+03  0.45291483235E+03 0.  0.
      99925    2    3    3    0    0  0.18145176108E+02 -0.10967532758E+03  0.41434866815E+03  0.50320348850E+03  0.26300381583E+03 0.  0.
         25    1    4    4    0    0 -0.62926244561E+01 -0.91209845325E+02  0.19788485750E+03  0.25132599932E+03  0.12509000000E+03 0.  0.
         25    1    3    3    0    0 -0.18145176108E+02  0.10967532758E+03  0.23544973490E+03  0.28886330792E+03  0.12509000000E+03 0.  0.
         25    1    4    4    0    0  0.24437800564E+02 -0.18465482251E+02  0.21646381065E+03  0.25187748917E+03  0.12509000000E+03 0.  0.
<mgrwt>
<rscale>  2 0.45291483E+03</rscale>
<asrwt>0</asrwt>
<pdfrwt beam="1">  1       21 0.10601950E+00 0.45291483E+03</pdfrwt>
<pdfrwt beam="2">  1       21 0.10460912E-01 0.45291483E+03</pdfrwt>
<totfact> 0.48947057E+04</totfact>
</mgrwt>
</event>
<event>
 7    0  0.4705418E-002  0.4535913E+03  0.7546771E-02  0.1026656E+00
         21   -1    0    0  502  501  0.00000000000E+00  0.00000000000E+00  0.54486902006E+02  0.54486902006E+02  0.00000000000E+00 0. -1.
         21   -1    0    0  501  502 -0.00000000000E+00 -0.00000000000E+00 -0.94401155308E+03  0.94401155308E+03  0.00000000000E+00 0. -1.
      99926    2    1    2    0    0 -0.71054273576E-14 -0.14210854715E-13 -0.88952465107E+03  0.99849845508E+03  0.45359129174E+03 0.  0.
      99925    2    3    3    0    0  0.41890856462E+02  0.75251598951E+02 -0.71758916398E+03  0.76909277333E+03  0.26296737198E+03 0.  0.
         25    1    4    4    0    0  0.13991579352E+02  0.40548038841E+02 -0.24751994553E+03  0.28063061002E+03  0.12509000000E+03 0.  0.
         25    1    3    3    0    0 -0.41890856462E+02 -0.75251598951E+02 -0.17193548709E+03  0.22940568176E+03  0.12509000000E+03 0.  0.
         25    1    4    4    0    0  0.27899277111E+02  0.34703560110E+02 -0.47006921845E+03  0.48846216331E+03  0.12509000000E+03 0.  0.
<mgrwt>
<rscale>  2 0.45359129E+03</rscale>
<asrwt>0</asrwt>
<pdfrwt beam="1">  1       21 0.80127804E-02 0.45359129E+03</pdfrwt>
<pdfrwt beam="2">  1       21 0.13882522E+00 0.45359129E+03</pdfrwt>
<totfact> 0.39659792E+04</totfact>
</mgrwt>
</event>
<event>
 7    0  0.4705418E-002  0.4569642E+03  0.7546771E-02  0.1025665E+00
         21   -1    0    0  502  501  0.00000000000E+00  0.00000000000E+00  0.28659530633E+03  0.28659530633E+03  0.00000000000E+00 0. -1.
         21   -1    0    0  501  502 -0.00000000000E+00 -0.00000000000E+00 -0.18215253050E+03  0.18215253050E+03  0.00000000000E+00 0. -1.
      99926    2    1    2    0    0  0.00000000000E+00  0.14210854715E-13  0.10444277583E+03  0.46874783683E+03  0.45696415736E+03 0.  0.
      99925    2    3    3    0    0  0.88721476159E+02  0.71113078485E+02  0.47776178926E+02  0.29045823655E+03  0.26297310441E+03 0.  0.
         25    1    4    4    0    0  0.37145298928E+02 -0.51905056229E+01  0.12687683265E+02  0.13120670710E+03  0.12509000000E+03 0.  0.
         25    1    4    4    0    0  0.51576177231E+02  0.76303584108E+02  0.35088495661E+02  0.15925152945E+03  0.12509000000E+03 0.  0.
         25    1    3    3    0    0 -0.88721476159E+02 -0.71113078485E+02  0.56666596904E+02  0.17828960028E+03  0.12509000000E+03 0.  0.
<mgrwt>
<rscale>  2 0.45696416E+03</rscale>
<asrwt>0</asrwt>
<pdfrwt beam="1">  1       21 0.42146368E-01 0.45696416E+03</pdfrwt>
<pdfrwt beam="2">  1       21 0.26787137E-01 0.45696416E+03</pdfrwt>
<totfact> 0.66487272E+04</totfact>
</mgrwt>
</event>
<event>
 7    0  0.4705418E-002  0.4576176E+03  0.7546771E-02  0.1025474E+00
         21   -1    0    0  502  501  0.00000000000E+00  0.00000000000E+00  0.79319014625E+02  0.79319014625E+02  0.00000000000E+00 0. -1.
         21   -1    0    0  501  502 -0.00000000000E+00 -0.00000000000E+00 -0.66003684603E+03  0.66003684603E+03  0.00000000000E+00 0. -1.
      99926    2    1    2    0    0 -0.71054273576E-14  0.00000000000E+00 -0.58071783140E+03  0.73935586065E+03  0.45761762310E+03 0.  0.
      99925    2    3    3    0    0  0.32223146938E+02  0.10992638033E+03 -0.39083846481E+03  0.48475063241E+03  0.26288082805E+03 0.  0.
         25    1    3    3    0    0 -0.32223146938E+02 -0.10992638033E+03 -0.18987936660E+03  0.25460522825E+03  0.12509000000E+03 0.  0.
         25    1    4    4    0    0 -0.75261348156E+01  0.29319991275E+02 -0.21871291005E+03  0.25376987551E+03  0.12509000000E+03 0.  0.
         25    1    4    4    0    0  0.39749281753E+02  0.80606389057E+02 -0.17212555476E+03  0.23098075690E+03  0.12509000000E+03 0.  0.
<mgrwt>
<rscale>  2 0.45761762E+03</rscale>
<asrwt>0</asrwt>
<pdfrwt beam="1">  1       21 0.11664561E-01 0.45761762E+03</pdfrwt>
<pdfrwt beam="2">  1       21 0.97064241E-01 0.45761762E+03</pdfrwt>
<totfact> 0.49785274E+04</totfact>
</mgrwt>
</event>
<event>
 7    0  0.4705418E-002  0.4671614E+03  0.7546771E-02  0.1022724E+00
         21   -1    0    0  502  501  0.00000000000E+00  0.00000000000E+00  0.38046441162E+03  0.38046441162E+03  0.00000000000E+00 0. -1.
         21   -1    0    0  501  502 -0.00000000000E+00 -0.00000000000E+00 -0.14340355828E+03  0.14340355828E+03  0.00000000000E+00 0. -1.
      99926    2    1    2    0    0  0.00000000000E+00  0.35527136788E-14  0.23706085333E+03  0.52386796990E+03  0.46716143003E+03 0.  0.
      99925    2    3    3    0    0  0.11997277407E+03  0.16937971056E+02  0.17768508728E+03  0.33987516820E+03  0.26317822542E+03 0.  0.
         25    1    3    3    0    0 -0.11997277407E+03 -0.16937971056E+02  0.59375766054E+02  0.18399280170E+03  0.12509000000E+03 0.  0.
         25    1    4    4    0    0  0.34751088617E+02  0.21787579666E+02  0.46802305422E+02  0.13971506963E+03  0.12509000000E+03 0.  0.
         25    1    4    4    0    0  0.85221685456E+02 -0.48496086102E+01  0.13088278186E+03  0.20016009858E+03  0.12509000000E+03 0.  0.
<mgrwt>
<rscale>  2 0.46716143E+03</rscale>
<asrwt>0</asrwt>
<pdfrwt beam="1">  1       21 0.55950649E-01 0.46716143E+03</pdfrwt>
<pdfrwt beam="2">  1       21 0.21088759E-01 0.46716143E+03</pdfrwt>
<totfact> 0.57838493E+04</totfact>
</mgrwt>
</event>
<event>
 7    0  0.4705418E-002  0.4331653E+03  0.7546771E-02  0.1032865E+00
         21   -1    0    0  502  501  0.00000000000E+00  0.00000000000E+00  0.31888337107E+03  0.31888337107E+03  0.00000000000E+00 0. -1.
         21   -1    0    0  501  502 -0.00000000000E+00 -0.00000000000E+00 -0.14710090972E+03  0.14710090972E+03  0.00000000000E+00 0. -1.
      99926    2    1    2    0    0  0.00000000000E+00  0.00000000000E+00  0.17178246135E+03  0.46598428079E+03  0.43316525243E+03 0.  0.
      99925    2    3    3    0    0  0.15642352452E+02  0.89173256080E+02  0.12220078963E+03  0.30380412460E+03  0.26299688277E+03 0.  0.
         25    1    4    4    0    0  0.13049656263E+02  0.70711490352E+02  0.99615811678E+02  0.17533176105E+03  0.12509000000E+03 0.  0.
         25    1    3    3    0    0 -0.15642352452E+02 -0.89173256080E+02  0.49581671722E+02  0.16218015619E+03  0.12509000000E+03 0.  0.
         25    1    4    4    0    0  0.25926961886E+01  0.18461765728E+02  0.22584977947E+02  0.12847236355E+03  0.12509000000E+03 0.  0.
<mgrwt>
<rscale>  2 0.43316525E+03</rscale>
<asrwt>0</asrwt>
<pdfrwt beam="1">  1       21 0.46894614E-01 0.43316525E+03</pdfrwt>
<pdfrwt beam="2">  1       21 0.21632487E-01 0.43316525E+03</pdfrwt>
<totfact> 0.80866577E+04</totfact>
</mgrwt>
</event>
<event>
 7    0  0.4705418E-002  0.4661698E+03  0.7546771E-02  0.1023007E+00
         21   -1    0    0  502  501  0.00000000000E+00  0.00000000000E+00  0.10186913005E+04  0.10186913005E+04  0.00000000000E+00 0. -1.
         21   -1    0    0  501  502 -0.00000000000E+00 -0.00000000000E+00 -0.53331735719E+02  0.53331735719E+02  0.00000000000E+00 0. -1.
      99926    2    1    2    0    0  0.00000000000E+00  0.00000000000E+00  0.96535956479E+03  0.10720230362E+04  0.46616981978E+03 0.  0.
      99925    2    3    3    0    0  0.11782393316E+03  0.18355423709E+02  0.52944851898E+03  0.60310369480E+03  0.26305689808E+03 0.  0.
         25    1    4    4    0    0  0.69596348495E+02 -0.26263016405E+02  0.30392755364E+03  0.33697605807E+03  0.12509000000E+03 0.  0.
         25    1    3    3    0    0 -0.11782393316E+03 -0.18355423709E+02  0.43591104581E+03  0.46891934143E+03  0.12509000000E+03 0.  0.
         25    1    4    4    0    0  0.48227584665E+02  0.44618440113E+02  0.22552096534E+03  0.26612763672E+03  0.12509000000E+03 0.  0.
<mgrwt>
<rscale>  2 0.46616982E+03</rscale>
<asrwt>0</asrwt>
<pdfrwt beam="1">  1       21 0.14980753E+00 0.46616982E+03</pdfrwt>
<pdfrwt beam="2">  1       21 0.78429030E-02 0.46616982E+03</pdfrwt>
<totfact> 0.33465941E+04</totfact>
</mgrwt>
</event>
<event>
 7    0  0.4705418E-002  0.4632019E+03  0.7546771E-02  0.1023857E+00
         21   -1    0    0  502  501  0.00000000000E+00  0.00000000000E+00  0.66260581125E+02  0.66260581125E+02  0.00000000000E+00 0. -1.
         21   -1    0    0  501  502 -0.00000000000E+00 -0.00000000000E+00 -0.80951608198E+03  0.80951608198E+03  0.00000000000E+00 0. -1.
      99926    2    1    2    0    0  0.71054273576E-14  0.14210854715E-13 -0.74325550085E+03  0.87577666310E+03  0.46320192582E+03 0.  0.
      99925    2    3    3    0    0 -0.34068067835E+02 -0.10768681504E+03 -0.38329962643E+03  0.47831871185E+03  0.26289371067E+03 0.  0.
         25    1    4    4    0    0 -0.16326561206E+02 -0.83695439307E+02 -0.25570944585E+03  0.29716377969E+03  0.12509000000E+03 0.  0.
         25    1    3    3    0    0  0.34068067835E+02  0.10768681504E+03 -0.35995587442E+03  0.39745795125E+03  0.12509000000E+03 0.  0.
         25    1    4    4    0    0 -0.17741506629E+02 -0.23991375733E+02 -0.12759018058E+03  0.18115493216E+03  0.12509000000E+03 0.  0.
<mgrwt>
<rscale>  2 0.46320193E+03</rscale>
<asrwt>0</asrwt>
<pdfrwt beam="1">  1       21 0.97442041E-02 0.46320193E+03</pdfrwt>
<pdfrwt beam="2">  1       21 0.11904647E+00 0.46320193E+03</pdfrwt>
<totfact> 0.41562548E+04</totfact>
</mgrwt>
</event>
<event>
 7    0  0.4705418E-002  0.4849899E+03  0.7546771E-02  0.1017773E+00
         21   -1    0    0  502  501  0.00000000000E+00  0.00000000000E+00  0.14687940993E+03  0.14687940993E+03  0.00000000000E+00 0. -1.
         21   -1    0    0  501  502 -0.00000000000E+00 -0.00000000000E+00 -0.40035426475E+03  0.40035426475E+03  0.00000000000E+00 0. -1.
      99926    2    1    2    0    0  0.00000000000E+00  0.35527136788E-14 -0.25347485481E+03  0.54723367468E+03  0.48498988925E+03 0.  0.
      99925    2    3    3    0    0 -0.13009841446E+03  0.31326303481E+02 -0.11142214605E+03  0.31542898339E+03  0.26300877209E+03 0.  0.
         25    1    4    4    0    0 -0.90309713750E+02  0.50274694119E+02 -0.67080006718E+02  0.17558651619E+03  0.12509000000E+03 0.  0.
         25    1    4    4    0    0 -0.39788700712E+02 -0.18948390638E+02 -0.44342139332E+02  0.13984246720E+03  0.12509000000E+03 0.  0.
         25    1    3    3    0    0  0.13009841446E+03 -0.31326303481E+02 -0.14205270876E+03  0.23180469129E+03  0.12509000000E+03 0.  0.
<mgrwt>
<rscale>  2 0.48498989E+03</rscale>
<asrwt>0</asrwt>
<pdfrwt beam="1">  1       21 0.21599914E-01 0.48498989E+03</pdfrwt>
<pdfrwt beam="2">  1       21 0.58875626E-01 0.48498989E+03</pdfrwt>
<totfact> 0.49261581E+04</totfact>
</mgrwt>
</event>
<event>
 7    0  0.4705418E-002  0.4481569E+03  0.7546771E-02  0.1028273E+00
         21   -1    0    0  502  501  0.00000000000E+00  0.00000000000E+00  0.42856998862E+02  0.42856998862E+02  0.00000000000E+00 0.  1.
         21   -1    0    0  501  502 -0.00000000000E+00 -0.00000000000E+00 -0.11715972358E+04  0.11715972358E+04  0.00000000000E+00 0.  1.
      99926    2    1    2    0    0  0.00000000000E+00  0.00000000000E+00 -0.11287402369E+04  0.12144542346E+04  0.44815685379E+03 0.  0.
      99925    2    3    3    0    0  0.61398167644E+01 -0.47560155556E+02 -0.45666357576E+03  0.52915560461E+03  0.26299119134E+03 0.  0.
         25    1    3    3    0    0 -0.61398167644E+01  0.47560155556E+02 -0.67207666115E+03  0.68529863002E+03  0.12509000000E+03 0.  0.
         25    1    4    4    0    0  0.23636678692E+02 -0.58523337154E+02 -0.22465315890E+03  0.26476446792E+03  0.12509000000E+03 0.  0.
         25    1    4    4    0    0 -0.17496861928E+02  0.10963181599E+02 -0.23201041686E+03  0.26439113669E+03  0.12509000000E+03 0.  0.
<mgrwt>
<rscale>  2 0.44815685E+03</rscale>
<asrwt>0</asrwt>
<pdfrwt beam="1">  1       21 0.63025002E-02 0.44815685E+03</pdfrwt>
<pdfrwt beam="2">  1       21 0.17229370E+00 0.44815685E+03</pdfrwt>
<totfact> 0.33448722E+04</totfact>
</mgrwt>
</event>
<event>
 7    0  0.4705418E-002  0.4561752E+03  0.7546771E-02  0.1025896E+00
         21   -1    0    0  502  501  0.00000000000E+00  0.00000000000E+00  0.24968555955E+03  0.24968555955E+03  0.00000000000E+00 0. -1.
         21   -1    0    0  501  502 -0.00000000000E+00 -0.00000000000E+00 -0.20835788252E+03  0.20835788252E+03  0.00000000000E+00 0. -1.
      99926    2    1    2    0    0  0.00000000000E+00  0.00000000000E+00  0.41327677030E+02  0.45804344208E+03  0.45617520531E+03 0.  0.
      99925    2    3    3    0    0  0.88046970777E+02  0.71236412039E+02  0.40938996715E+02  0.28929939141E+03  0.26304227978E+03 0.  0.
         25    1    3    3    0    0 -0.88046970777E+02 -0.71236412039E+02  0.38868031511E+00  0.16874405067E+03  0.12509000000E+03 0.  0.
         25    1    4    4    0    0  0.85141454954E+02  0.40784844070E+02  0.11082284198E+02  0.15710759364E+03  0.12509000000E+03 0.  0.
         25    1    4    4    0    0  0.29055158228E+01  0.30451567969E+02  0.29856712517E+02  0.13219179776E+03  0.12509000000E+03 0.  0.
<mgrwt>
<rscale>  2 0.45617521E+03</rscale>
<asrwt>0</asrwt>
<pdfrwt beam="1">  1       21 0.36718465E-01 0.45617521E+03</pdfrwt>
<pdfrwt beam="2">  1       21 0.30640865E-01 0.45617521E+03</pdfrwt>
<totfact> 0.67686527E+04</totfact>
</mgrwt>
</event>
<event>
 7    0  0.4705418E-002  0.4435984E+03  0.7546771E-02  0.1029648E+00
         21   -1    0    0  502  501  0.00000000000E+00  0.00000000000E+00  0.71505801735E+02  0.71505801735E+02  0.00000000000E+00 0.  1.
         21   -1    0    0  501  502 -0.00000000000E+00 -0.00000000000E+00 -0.68798466881E+03  0.68798466881E+03  0.00000000000E+00 0.  1.
      99926    2    1    2    0    0 -0.71054273576E-14 -0.35527136788E-14 -0.61647886707E+03  0.75949047054E+03  0.44359844601E+03 0.  0.
      99925    2    3    3    0    0 -0.46124474507E+02 -0.22828664564E+02 -0.24103248602E+03  0.36042141860E+03  0.26297970377E+03 0.  0.
         25    1    4    4    0    0  0.14603385597E+02 -0.20740425094E+02 -0.97926537487E+02  0.16087429549E+03  0.12509000000E+03 0.  0.
         25    1    4    4    0    0 -0.60727860104E+02 -0.20882394695E+01 -0.14310594853E+03  0.19954712311E+03  0.12509000000E+03 0.  0.
         25    1    3    3    0    0  0.46124474507E+02  0.22828664564E+02 -0.37544638105E+03  0.39906905194E+03  0.12509000000E+03 0.  0.
<mgrwt>
<rscale>  2 0.44359845E+03</rscale>
<asrwt>0</asrwt>
<pdfrwt beam="1">  1       21 0.10515559E-01 0.44359845E+03</pdfrwt>
<pdfrwt beam="2">  1       21 0.10117422E+00 0.44359845E+03</pdfrwt>
<totfact> 0.54503969E+04</totfact>
</mgrwt>
</event>
<event>
 7    0  0.4705418E-002  0.4538831E+03  0.7546771E-02  0.1026570E+00
         21   -1    0    0  502  501  0.00000000000E+00  0.00000000000E+00  0.36127272086E+03  0.36127272086E+03  0.00000000000E+00 0.  1.
         21   -1    0    0  501  502 -0.00000000000E+00 -0.00000000000E+00 -0.14255840883E+03  0.14255840883E+03  0.00000000000E+00 0.  1.
      99926    2    1    2    0    0  0.00000000000E+00 -0.71054273576E-14  0.21871431202E+03  0.50383112969E+03  0.45388308733E+03 0.  0.
      99925    2    3    3    0    0  0.10279728429E+03 -0.42180472288E+02  0.12084314928E+03  0.30999422274E+03  0.26295793866E+03 0.  0.
         25    1    3    3    0    0 -0.10279728429E+03  0.42180472288E+02  0.97871162738E+02  0.19383690695E+03  0.12509000000E+03 0.  0.
         25    1    4    4    0    0  0.24577559684E+02 -0.52988872475E+01  0.24358612932E+02  0.12989605371E+03  0.12509000000E+03 0.  0.
         25    1    4    4    0    0  0.78219724606E+02 -0.36881585040E+02  0.96484536351E+02  0.18009816903E+03  0.12509000000E+03 0.  0.
<mgrwt>
<rscale>  2 0.45388309E+03</rscale>
<asrwt>0</asrwt>
<pdfrwt beam="1">  1       21 0.53128341E-01 0.45388309E+03</pdfrwt>
<pdfrwt beam="2">  1       21 0.20964472E-01 0.45388309E+03</pdfrwt>
<totfact> 0.65581825E+04</totfact>
</mgrwt>
</event>
<event>
 7    0  0.4705418E-002  0.4517455E+03  0.7546771E-02  0.1027203E+00
         21   -1    0    0  502  501  0.00000000000E+00  0.00000000000E+00  0.44869322115E+02  0.44869322115E+02  0.00000000000E+00 0. -1.
         21   -1    0    0  501  502 -0.00000000000E+00 -0.00000000000E+00 -0.11370465321E+04  0.11370465321E+04  0.00000000000E+00 0. -1.
      99926    2    1    2    0    0  0.00000000000E+00 -0.71054273576E-14 -0.10921772100E+04  0.11819158542E+04  0.45174553504E+03 0.  0.
      99925    2    3    3    0    0  0.38403299173E+02  0.42447186283E+02 -0.44331968651E+03  0.51863599557E+03  0.26301021738E+03 0.  0.
         25    1    3    3    0    0 -0.38403299173E+02 -0.42447186283E+02 -0.64885752347E+03  0.66327985864E+03  0.12509000000E+03 0.  0.
         25    1    4    4    0    0 -0.11090498511E+01  0.56160191612E+02 -0.21738401127E+03  0.25701850822E+03  0.12509000000E+03 0.  0.
         25    1    4    4    0    0  0.39512349024E+02 -0.13713005329E+02 -0.22593567524E+03  0.26161748735E+03  0.12509000000E+03 0.  0.
<mgrwt>
<rscale>  2 0.45174554E+03</rscale>
<asrwt>0</asrwt>
<pdfrwt beam="1">  1       21 0.65984298E-02 0.45174554E+03</pdfrwt>
<pdfrwt beam="2">  1       21 0.16721272E+00 0.45174554E+03</pdfrwt>
<totfact> 0.33577802E+04</totfact>
</mgrwt>
</event>
<event>
 7    0  0.4705418E-002  0.4747764E+03  0.7546771E-02  0.1020581E+00
         21   -1    0    0  502  501  0.00000000000E+00  0.00000000000E+00  0.16264553756E+03  0.16264553756E+03  0.00000000000E+00 0. -1.
         21   -1    0    0  501  502 -0.00000000000E+00 -0.00000000000E+00 -0.34647842111E+03  0.34647842111E+03  0.00000000000E+00 0. -1.
      99926    2    1    2    0    0 -0.17763568394E-14  0.00000000000E+00 -0.18383288355E+03  0.50912395867E+03  0.47477644868E+03 0.  0.
      99925    2    3    3    0    0  0.13886193264E+02 -0.10499505219E+03 -0.19622296616E+03  0.34475300748E+03  0.26293420540E+03 0.  0.
         25    1    3    3    0    0 -0.13886193264E+02  0.10499505219E+03  0.12390082616E+02  0.16437095119E+03  0.12509000000E+03 0.  0.
         25    1    4    4    0    0 -0.26955487379E+02 -0.75326845706E+02 -0.10702449898E+03  0.18303683636E+03  0.12509000000E+03 0.  0.
         25    1    4    4    0    0  0.40841680643E+02 -0.29668206482E+02 -0.89198467179E+02  0.16171617112E+03  0.12509000000E+03 0.  0.
<mgrwt>
<rscale>  2 0.47477645E+03</rscale>
<asrwt>0</asrwt>
<pdfrwt beam="1">  1       21 0.23918462E-01 0.47477645E+03</pdfrwt>
<pdfrwt beam="2">  1       21 0.50952709E-01 0.47477645E+03</pdfrwt>
<totfact> 0.55411028E+04</totfact>
</mgrwt>
</event>
<event>
 7    0  0.4705418E-002  0.4558052E+03  0.7546771E-02  0.1026005E+00
         21   -1    0    0  502  501  0.00000000000E+00  0.00000000000E+00  0.62487351533E+02  0.62487351533E+02  0.00000000000E+00 0. -1.
         21   -1    0    0  501  502 -0.00000000000E+00 -0.00000000000E+00 -0.83120176238E+03  0.83120176238E+03  0.00000000000E+00 0. -1.
      99926    2    1    2    0    0  0.00000000000E+00  0.00000000000E+00 -0.76871441085E+03  0.89368911391E+03  0.45580520717E+03 0.  0.
      99925    2    3    3    0    0  0.97154174098E+02  0.40069980531E+02 -0.39694924551E+03  0.48760860078E+03  0.26296179792E+03 0.  0.
         25    1    3    3    0    0 -0.97154174098E+02 -0.40069980531E+02 -0.37176516534E+03  0.40608051313E+03  0.12509000000E+03 0.  0.
         25    1    4    4    0    0  0.77451809828E+02  0.35417385677E+02 -0.16935832663E+03  0.22711874637E+03  0.12509000000E+03 0.  0.
         25    1    4    4    0    0  0.19702364270E+02  0.46525948539E+01 -0.22759091888E+03  0.26048985441E+03  0.12509000000E+03 0.  0.
<mgrwt>
<rscale>  2 0.45580521E+03</rscale>
<asrwt>0</asrwt>
<pdfrwt beam="1">  1       21 0.91893165E-02 0.45580521E+03</pdfrwt>
<pdfrwt beam="2">  1       21 0.12223555E+00 0.45580521E+03</pdfrwt>
<totfact> 0.43234434E+04</totfact>
</mgrwt>
</event>
<event>
 7    0  0.4705418E-002  0.4308287E+03  0.7546771E-02  0.1033599E+00
         21   -1    0    0  502  501  0.00000000000E+00  0.00000000000E+00  0.22593011792E+03  0.22593011792E+03  0.00000000000E+00 0. -1.
         21   -1    0    0  501  502 -0.00000000000E+00 -0.00000000000E+00 -0.20538799518E+03  0.20538799518E+03  0.00000000000E+00 0. -1.
      99926    2    1    2    0    0  0.71054273576E-14  0.17763568394E-14  0.20542122743E+02  0.43131811311E+03  0.43082866187E+03 0.  0.
      99925    2    3    3    0    0 -0.44366905031E+02 -0.11596731739E+02 -0.62743302100E+02  0.27419753349E+03  0.26295372019E+03 0.  0.
         25    1    4    4    0    0  0.11591595783E+02  0.16513764310E+01 -0.75248319932E+01  0.12586192170E+03  0.12509000000E+03 0.  0.
         25    1    3    3    0    0  0.44366905031E+02  0.11596731739E+02  0.83285424843E+02  0.15712057962E+03  0.12509000000E+03 0.  0.
         25    1    4    4    0    0 -0.55958500814E+02 -0.13248108170E+02 -0.55218470107E+02  0.14833561179E+03  0.12509000000E+03 0.  0.
<mgrwt>
<rscale>  2 0.43082866E+03</rscale>
<asrwt>0</asrwt>
<pdfrwt beam="1">  1       21 0.33225017E-01 0.43082866E+03</pdfrwt>
<pdfrwt beam="2">  1       21 0.30204117E-01 0.43082866E+03</pdfrwt>
<totfact> 0.85688015E+04</totfact>
</mgrwt>
</event>
<event>
 7    0  0.4705418E-002  0.4434100E+03  0.7546771E-02  0.1029706E+00
         21   -1    0    0  502  501  0.00000000000E+00  0.00000000000E+00  0.50001366554E+02  0.50001366554E+02  0.00000000000E+00 0.  1.
         21   -1    0    0  501  502 -0.00000000000E+00 -0.00000000000E+00 -0.98303538631E+03  0.98303538631E+03  0.00000000000E+00 0.  1.
      99926    2    1    2    0    0  0.00000000000E+00  0.00000000000E+00 -0.93303401976E+03  0.10330367529E+04  0.44341002554E+03 0.  0.
      99925    2    3    3    0    0 -0.95819226617E+02  0.55887898793E+01 -0.51464842170E+03  0.58592762131E+03  0.26312662482E+03 0.  0.
         25    1    3    3    0    0  0.95819226617E+02 -0.55887898793E+01 -0.41838559806E+03  0.44710913156E+03  0.12509000000E+03 0.  0.
         25    1    4    4    0    0 -0.40933629894E+02  0.28568373550E+02 -0.18933981966E+03  0.23235487822E+03  0.12509000000E+03 0.  0.
         25    1    4    4    0    0 -0.54885596722E+02 -0.22979583670E+02 -0.32530860204E+03  0.35357274309E+03  0.12509000000E+03 0.  0.
<mgrwt>
<rscale>  2 0.44341003E+03</rscale>
<asrwt>0</asrwt>
<pdfrwt beam="1">  1       21 0.73531423E-02 0.44341003E+03</pdfrwt>
<pdfrwt beam="2">  1       21 0.14456402E+00 0.44341003E+03</pdfrwt>
<totfact> 0.41539081E+04</totfact>
</mgrwt>
</event>
<event>
 7    0  0.4705418E-002  0.4452688E+03  0.7546771E-02  0.1029142E+00
         21   -1    0    0  502  501  0.00000000000E+00  0.00000000000E+00  0.15786811932E+03  0.15786811932E+03  0.00000000000E+00 0. -1.
         21   -1    0    0  501  502 -0.00000000000E+00 -0.00000000000E+00 -0.31397141700E+03  0.31397141700E+03  0.00000000000E+00 0. -1.
      99926    2    1    2    0    0  0.17763568394E-14 -0.14210854715E-13 -0.15610329769E+03  0.47183953632E+03  0.44526880475E+03 0.  0.
      99925    2    3    3    0    0 -0.11560019402E+02  0.74232340599E+02 -0.17502812570E+03  0.32470105850E+03  0.26296740894E+03 0.  0.
         25    1    3    3    0    0  0.11560019402E+02 -0.74232340599E+02  0.18924828011E+02  0.14713847782E+03  0.12509000000E+03 0.  0.
         25    1    4    4    0    0 -0.82668855752E+01  0.15227474765E+02 -0.42836485279E+02  0.13335175273E+03  0.12509000000E+03 0.  0.
         25    1    4    4    0    0 -0.32931338265E+01  0.59004865834E+02 -0.13219164042E+03  0.19134930577E+03  0.12509000000E+03 0.  0.
<mgrwt>
<rscale>  2 0.44526880E+03</rscale>
<asrwt>0</asrwt>
<pdfrwt beam="1">  1       21 0.23215900E-01 0.44526880E+03</pdfrwt>
<pdfrwt beam="2">  1       21 0.46172266E-01 0.44526880E+03</pdfrwt>
<totfact> 0.72758134E+04</totfact>
</mgrwt>
</event>
<event>
 7    0  0.4705418E-002  0.4507314E+03  0.7546771E-02  0.1027504E+00
         21   -1    0    0  502  501  0.00000000000E+00  0.00000000000E+00  0.12492827050E+04  0.12492827050E+04  0.00000000000E+00 0. -1.
         21   -1    0    0  501  502 -0.00000000000E+00 -0.00000000000E+00 -0.40655089180E+02  0.40655089180E+02  0.00000000000E+00 0. -1.
      99926    2    1    2    0    0  0.00000000000E+00  0.00000000000E+00  0.12086276158E+04  0.12899377942E+04  0.45073140465E+03 0.  0.
      99925    2    3    3    0    0 -0.26431603973E+02  0.80114812226E+02  0.56657096555E+03  0.63039153873E+03  0.26319920264E+03 0.  0.
         25    1    4    4    0    0 -0.30674003437E+02  0.25691100064E+02  0.20028955549E+03  0.23950854108E+03  0.12509000000E+03 0.  0.
         25    1    3    3    0    0  0.26431603973E+02 -0.80114812226E+02  0.64205665028E+03  0.65954625547E+03  0.12509000000E+03 0.  0.
         25    1    4    4    0    0  0.42423994637E+01  0.54423712162E+02  0.36628141006E+03  0.39088299765E+03  0.12509000000E+03 0.  0.
<mgrwt>
<rscale>  2 0.45073140E+03</rscale>
<asrwt>0</asrwt>
<pdfrwt beam="1">  1       21 0.18371802E+00 0.45073140E+03</pdfrwt>
<pdfrwt beam="2">  1       21 0.59786904E-02 0.45073140E+03</pdfrwt>
<totfact> 0.30405353E+04</totfact>
</mgrwt>
</event>
<event>
 7    0  0.4705418E-002  0.4530427E+03  0.7546771E-02  0.1026819E+00
         21   -1    0    0  502  501  0.00000000000E+00  0.00000000000E+00  0.74451509303E+03  0.74451509303E+03  0.00000000000E+00 0. -1.
         21   -1    0    0  501  502 -0.00000000000E+00 -0.00000000000E+00 -0.68919925521E+02  0.68919925521E+02  0.00000000000E+00 0. -1.
      99926    2    1    2    0    0  0.00000000000E+00  0.00000000000E+00  0.67559516751E+03  0.81343501855E+03  0.45304271216E+03 0.  0.
      99925    2    3    3    0    0  0.99065387520E+02 -0.46681747599E+02  0.38965686327E+03  0.48267625677E+03  0.26296532318E+03 0.  0.
         25    1    4    4    0    0  0.90747810962E+02 -0.31924144466E+02  0.23457537126E+03  0.28271439492E+03  0.12509000000E+03 0.  0.
         25    1    3    3    0    0 -0.99065387520E+02  0.46681747599E+02  0.28593830423E+03  0.33075876177E+03  0.12509000000E+03 0.  0.
         25    1    4    4    0    0  0.83175765582E+01 -0.14757603133E+02  0.15508149202E+03  0.19996186185E+03  0.12509000000E+03 0.  0.
<mgrwt>
<rscale>  2 0.45304271E+03</rscale>
<asrwt>0</asrwt>
<pdfrwt beam="1">  1       21 0.10948751E+00 0.45304271E+03</pdfrwt>
<pdfrwt beam="2">  1       21 0.10135284E-01 0.45304271E+03</pdfrwt>
<totfact> 0.47852575E+04</totfact>
</mgrwt>
</event>
<event>
 7    0  0.4705418E-002  0.4585004E+03  0.7546771E-02  0.1025217E+00
         21   -1    0    0  502  501  0.00000000000E+00  0.00000000000E+00  0.68310122163E+03  0.68310122163E+03  0.00000000000E+00 0.  1.
         21   -1    0    0  501  502 -0.00000000000E+00 -0.00000000000E+00 -0.76936857560E+02  0.76936857560E+02  0.00000000000E+00 0.  1.
      99926    2    1    2    0    0  0.00000000000E+00  0.00000000000E+00  0.60616436407E+03  0.76003807919E+03  0.45850043135E+03 0.  0.
      99925    2    3    3    0    0 -0.71994844697E+02 -0.89639838532E+02  0.41144463713E+03  0.50161625644E+03  0.26289469562E+03 0.  0.
         25    1    4    4    0    0 -0.56586887014E+02 -0.42396675622E+02  0.15096970166E+03  0.20842003935E+03  0.12509000000E+03 0.  0.
         25    1    3    3    0    0  0.71994844697E+02  0.89639838532E+02  0.19471972693E+03  0.25842182275E+03  0.12509000000E+03 0.  0.
         25    1    4    4    0    0 -0.15407957683E+02 -0.47243162910E+02  0.26047493548E+03  0.29319621708E+03  0.12509000000E+03 0.  0.
<mgrwt>
<rscale>  2 0.45850043E+03</rscale>
<asrwt>0</asrwt>
<pdfrwt beam="1">  1       21 0.10045606E+00 0.45850043E+03</pdfrwt>
<pdfrwt beam="2">  1       21 0.11314244E-01 0.45850043E+03</pdfrwt>
<totfact> 0.48413680E+04</totfact>
</mgrwt>
</event>
<event>
 7    0  0.4705418E-002  0.4682966E+03  0.7546771E-02  0.1022402E+00
         21   -1    0    0  502  501  0.00000000000E+00  0.00000000000E+00  0.18226877566E+03  0.18226877566E+03  0.00000000000E+00 0.  1.
         21   -1    0    0  501  502 -0.00000000000E+00 -0.00000000000E+00 -0.30079445147E+03  0.30079445147E+03  0.00000000000E+00 0.  1.
      99926    2    1    2    0    0  0.00000000000E+00  0.24424906542E-14 -0.11852567581E+03  0.48306322713E+03  0.46829664271E+03 0.  0.
      99925    2    3    3    0    0 -0.47530800654E+02 -0.17054514021E+01  0.45761027300E+02  0.27116769982E+03  0.26301285944E+03 0.  0.
         25    1    4    4    0    0 -0.24516532857E+02  0.34107003371E+02  0.19818499124E+01  0.13196887471E+03  0.12509000000E+03 0.  0.
         25    1    3    3    0    0  0.47530800654E+02  0.17054514021E+01 -0.16428670311E+03  0.21189552731E+03  0.12509000000E+03 0.  0.
         25    1    4    4    0    0 -0.23014267797E+02 -0.35812454773E+02  0.43779177388E+02  0.13919882511E+03  0.12509000000E+03 0.  0.
<mgrwt>
<rscale>  2 0.46829664E+03</rscale>
<asrwt>0</asrwt>
<pdfrwt beam="1">  1       21 0.26804232E-01 0.46829664E+03</pdfrwt>
<pdfrwt beam="2">  1       21 0.44234478E-01 0.46829664E+03</pdfrwt>
<totfact> 0.59902950E+04</totfact>
</mgrwt>
</event>
<event>
 7    0  0.4705418E-002  0.4525267E+03  0.7546771E-02  0.1026971E+00
         21   -1    0    0  502  501  0.00000000000E+00  0.00000000000E+00  0.26948379542E+03  0.26948379542E+03  0.00000000000E+00 0.  1.
         21   -1    0    0  501  502 -0.00000000000E+00 -0.00000000000E+00 -0.18997471517E+03  0.18997471517E+03  0.00000000000E+00 0.  1.
      99926    2    1    2    0    0  0.00000000000E+00 -0.71054273576E-14  0.79509080250E+02  0.45945851058E+03  0.45252671645E+03 0.  0.
      99925    2    3    3    0    0 -0.66483741139E+02 -0.44520975272E+02  0.12803141279E+03  0.30324029804E+03  0.26298370790E+03 0.  0.
         25    1    4    4    0    0 -0.33674554597E+02 -0.20181630073E+02  0.19258861033E+02  0.13251296408E+03  0.12509000000E+03 0.  0.
         25    1    3    3    0    0  0.66483741139E+02  0.44520975272E+02 -0.48522332542E+02  0.15621821254E+03  0.12509000000E+03 0.  0.
         25    1    4    4    0    0 -0.32809186542E+02 -0.24339345199E+02  0.10877255176E+03  0.17072733396E+03  0.12509000000E+03 0.  0.
<mgrwt>
<rscale>  2 0.45252672E+03</rscale>
<asrwt>0</asrwt>
<pdfrwt beam="1">  1       21 0.39629970E-01 0.45252672E+03</pdfrwt>
<pdfrwt beam="2">  1       21 0.27937458E-01 0.45252672E+03</pdfrwt>
<totfact> 0.69581456E+04</totfact>
</mgrwt>
</event>
<event>
 7    0  0.4705418E-002  0.4659457E+03  0.7546771E-02  0.1023071E+00
         21   -1    0    0  502  501  0.00000000000E+00  0.00000000000E+00  0.57346185288E+03  0.57346185288E+03  0.00000000000E+00 0. -1.
         21   -1    0    0  501  502 -0.00000000000E+00 -0.00000000000E+00 -0.94646851462E+02  0.94646851462E+02  0.00000000000E+00 0. -1.
      99926    2    1    2    0    0  0.00000000000E+00  0.00000000000E+00  0.47881500142E+03  0.66810870434E+03  0.46594574280E+03 0.  0.
      99925    2    3    3    0    0  0.93233208817E+02 -0.78231746430E+02  0.32531672192E+03  0.43568265743E+03  0.26301287240E+03 0.  0.
         25    1    3    3    0    0 -0.93233208817E+02  0.78231746430E+02  0.15349827950E+03  0.23242604692E+03  0.12509000000E+03 0.  0.
         25    1    4    4    0    0  0.61241338982E+02 -0.38418345221E+01  0.13538777578E+03  0.19427459747E+03  0.12509000000E+03 0.  0.
         25    1    4    4    0    0  0.31991869835E+02 -0.74389911908E+02  0.18992894613E+03  0.24140805995E+03  0.12509000000E+03 0.  0.
<mgrwt>
<rscale>  2 0.46594574E+03</rscale>
<asrwt>0</asrwt>
<pdfrwt beam="1">  1       21 0.84332624E-01 0.46594574E+03</pdfrwt>
<pdfrwt beam="2">  1       21 0.13918655E-01 0.46594574E+03</pdfrwt>
<totfact> 0.50194794E+04</totfact>
</mgrwt>
</event>
<event>
 7    0  0.4705418E-002  0.4353081E+03  0.7546771E-02  0.1032196E+00
         21   -1    0    0  502  501  0.00000000000E+00  0.00000000000E+00  0.29982168552E+03  0.29982168552E+03  0.00000000000E+00 0. -1.
         21   -1    0    0  501  502 -0.00000000000E+00 -0.00000000000E+00 -0.15800489299E+03  0.15800489299E+03  0.00000000000E+00 0. -1.
      99926    2    1    2    0    0  0.00000000000E+00 -0.71054273576E-14  0.14181679252E+03  0.45782657851E+03  0.43530813609E+03 0.  0.
      99925    2    3    3    0    0  0.79713591283E+02  0.48750693096E+02  0.94333345229E+02  0.29463015520E+03  0.26301570603E+03 0.  0.
         25    1    4    4    0    0  0.69350959077E+02  0.53001625881E+02  0.64086004252E+02  0.16544863829E+03  0.12509000000E+03 0.  0.
         25    1    4    4    0    0  0.10362632206E+02 -0.42509327848E+01  0.30247340977E+02  0.12918151691E+03  0.12509000000E+03 0.  0.
         25    1    3    3    0    0 -0.79713591283E+02 -0.48750693096E+02  0.47483447295E+02  0.16319642331E+03  0.12509000000E+03 0.  0.
<mgrwt>
<rscale>  2 0.43530814E+03</rscale>
<asrwt>0</asrwt>
<pdfrwt beam="1">  1       21 0.44091424E-01 0.43530814E+03</pdfrwt>
<pdfrwt beam="2">  1       21 0.23236014E-01 0.43530814E+03</pdfrwt>
<totfact> 0.80162938E+04</totfact>
</mgrwt>
</event>
<event>
 7    0  0.4705418E-002  0.3979759E+03  0.7546771E-02  0.1044483E+00
         21   -1    0    0  502  501  0.00000000000E+00  0.00000000000E+00  0.56291658311E+03  0.56291658311E+03  0.00000000000E+00 0. -1.
         21   -1    0    0  501  502 -0.00000000000E+00 -0.00000000000E+00 -0.70341172787E+02  0.70341172787E+02  0.00000000000E+00 0. -1.
      99926    2    1    2    0    0 -0.35527136788E-14  0.00000000000E+00  0.49257541032E+03  0.63325775589E+03  0.39797594217E+03 0.  0.
      99925    2    3    3    0    0 -0.30457286923E+02  0.23259059412E+02  0.30419959627E+03  0.40390740034E+03  0.26293566420E+03 0.  0.
         25    1    4    4    0    0  0.18585741060E+02  0.32201974402E+02  0.16279600428E+03  0.20864430027E+03  0.12509000000E+03 0.  0.
         25    1    4    4    0    0 -0.49043027983E+02 -0.89429149895E+01  0.14140359199E+03  0.19526310007E+03  0.12509000000E+03 0.  0.
         25    1    3    3    0    0  0.30457286923E+02 -0.23259059412E+02  0.18837581405E+03  0.22935035555E+03  0.12509000000E+03 0.  0.
<mgrwt>
<rscale>  2 0.39797594E+03</rscale>
<asrwt>0</asrwt>
<pdfrwt beam="1">  1       21 0.82781848E-01 0.39797594E+03</pdfrwt>
<pdfrwt beam="2">  1       21 0.10344290E-01 0.39797594E+03</pdfrwt>
<totfact> 0.91332531E+04</totfact>
</mgrwt>
</event>
<event>
 7    0  0.4705418E-002  0.4542750E+03  0.7546771E-02  0.1026455E+00
         21   -1    0    0  502  501  0.00000000000E+00  0.00000000000E+00  0.27558469696E+03  0.27558469696E+03  0.00000000000E+00 0. -1.
         21   -1    0    0  501  502 -0.00000000000E+00 -0.00000000000E+00 -0.18720723526E+03  0.18720723526E+03  0.00000000000E+00 0. -1.
      99926    2    1    2    0    0  0.00000000000E+00  0.00000000000E+00  0.88377461698E+02  0.46279193222E+03  0.45427502330E+03 0.  0.
      99925    2    3    3    0    0  0.51362210078E+02  0.90657390039E+02  0.12059998113E+02  0.28299009035E+03  0.26283285314E+03 0.  0.
         25    1    3    3    0    0 -0.51362210078E+02 -0.90657390039E+02  0.76317463585E+02  0.17980184187E+03  0.12509000000E+03 0.  0.
         25    1    4    4    0    0  0.34569785475E+02  0.44025830558E+01  0.66579735553E+01  0.13002418820E+03  0.12509000000E+03 0.  0.
         25    1    4    4    0    0  0.16792424603E+02  0.86254806983E+02  0.54020245573E+01  0.15296590215E+03  0.12509000000E+03 0.  0.
<mgrwt>
<rscale>  2 0.45427502E+03</rscale>
<asrwt>0</asrwt>
<pdfrwt beam="1">  1       21 0.40527161E-01 0.45427502E+03</pdfrwt>
<pdfrwt beam="2">  1       21 0.27530476E-01 0.45427502E+03</pdfrwt>
<totfact> 0.68367578E+04</totfact>
</mgrwt>
</event>
<event>
 7    0  0.4705418E-002  0.4505155E+03  0.7546771E-02  0.1027568E+00
         21   -1    0    0  502  501  0.00000000000E+00  0.00000000000E+00  0.13798441756E+03  0.13798441756E+03  0.00000000000E+00 0.  1.
         21   -1    0    0  501  502 -0.00000000000E+00 -0.00000000000E+00 -0.36773024518E+03  0.36773024518E+03  0.00000000000E+00 0.  1.
      99926    2    1    2    0    0  0.00000000000E+00 -0.17763568394E-14 -0.22974582762E+03  0.50571466274E+03  0.45051545456E+03 0.  0.
      99925    2    3    3    0    0  0.10701154312E+03  0.15522860879E+02 -0.12818861843E+03  0.31166878051E+03  0.26270264041E+03 0.  0.
         25    1    4    4    0    0  0.51971995655E+02 -0.26543393100E+01 -0.10601220000E+03  0.17202973144E+03  0.12509000000E+03 0.  0.
         25    1    3    3    0    0 -0.10701154312E+03 -0.15522860879E+02 -0.10155720920E+03  0.19404588223E+03  0.12509000000E+03 0.  0.
         25    1    4    4    0    0  0.55039547463E+02  0.18177200189E+02 -0.22176418424E+02  0.13963904907E+03  0.12509000000E+03 0.  0.
<mgrwt>
<rscale>  2 0.45051545E+03</rscale>
<asrwt>0</asrwt>
<pdfrwt beam="1">  1       21 0.20291826E-01 0.45051545E+03</pdfrwt>
<pdfrwt beam="2">  1       21 0.54077977E-01 0.45051545E+03</pdfrwt>
<totfact> 0.67232296E+04</totfact>
</mgrwt>
</event>
<event>
 7    0  0.4705418E-002  0.4589611E+03  0.7546771E-02  0.1025083E+00
         21   -1    0    0  502  501  0.00000000000E+00  0.00000000000E+00  0.79515764451E+03  0.79515764451E+03  0.00000000000E+00 0.  1.
         21   -1    0    0  501  502 -0.00000000000E+00 -0.00000000000E+00 -0.66227515154E+02  0.66227515154E+02  0.00000000000E+00 0.  1.
      99926    2    1    2    0    0 -0.14210854715E-13  0.00000000000E+00  0.72893012936E+03  0.86138515967E+03  0.45896106568E+03 0.  0.
      99925    2    3    3    0    0 -0.82385831443E+02  0.81505805455E+02  0.48499496535E+03  0.56375704626E+03  0.26300431414E+03 0.  0.
         25    1    4    4    0    0 -0.59321453505E+01  0.30914849281E+02  0.26332798239E+03  0.29322355408E+03  0.12509000000E+03 0.  0.
         25    1    3    3    0    0  0.82385831443E+02 -0.81505805455E+02  0.24393516401E+03  0.29762811340E+03  0.12509000000E+03 0.  0.
         25    1    4    4    0    0 -0.76453686093E+02  0.50590956174E+02  0.22166698295E+03  0.27053349219E+03  0.12509000000E+03 0.  0.
<mgrwt>
<rscale>  2 0.45896107E+03</rscale>
<asrwt>0</asrwt>
<pdfrwt beam="1">  1       21 0.11693494E+00 0.45896107E+03</pdfrwt>
<pdfrwt beam="2">  1       21 0.97393409E-02 0.45896107E+03</pdfrwt>
<totfact> 0.43564901E+04</totfact>
</mgrwt>
</event>
<event>
 7    0  0.4705418E-002  0.4462372E+03  0.7546771E-02  0.1028850E+00
         21   -1    0    0  502  501  0.00000000000E+00  0.00000000000E+00  0.41766052508E+02  0.41766052508E+02  0.00000000000E+00 0.  1.
         21   -1    0    0  501  502 -0.00000000000E+00 -0.00000000000E+00 -0.11919227077E+04  0.11919227077E+04  0.00000000000E+00 0.  1.
      99926    2    1    2    0    0  0.88817841970E-15  0.14210854715E-13 -0.11501566552E+04  0.12336887602E+04  0.44623718534E+03 0.  0.
      99925    2    3    3    0    0 -0.31807194672E+01 -0.64934124360E+02 -0.50209889010E+03  0.57047466772E+03  0.26289064948E+03 0.  0.
         25    1    4    4    0    0  0.57352578041E+01 -0.72142427629E+02 -0.28867165189E+03  0.32282542303E+03  0.12509000000E+03 0.  0.
         25    1    4    4    0    0 -0.89159772712E+01  0.72083032691E+01 -0.21342723821E+03  0.24764924469E+03  0.12509000000E+03 0.  0.
         25    1    3    3    0    0  0.31807194672E+01  0.64934124360E+02 -0.64805776506E+03  0.66321409246E+03  0.12509000000E+03 0.  0.
<mgrwt>
<rscale>  2 0.44623719E+03</rscale>
<asrwt>0</asrwt>
<pdfrwt beam="1">  1       21 0.61420663E-02 0.44623719E+03</pdfrwt>
<pdfrwt beam="2">  1       21 0.17528276E+00 0.44623719E+03</pdfrwt>
<totfact> 0.33318682E+04</totfact>
</mgrwt>
</event>
<event>
 7    0  0.4705418E-002  0.4577342E+03  0.7546771E-02  0.1025440E+00
         21   -1    0    0  502  501  0.00000000000E+00  0.00000000000E+00  0.91245018929E+02  0.91245018929E+02  0.00000000000E+00 0.  1.
         21   -1    0    0  501  502 -0.00000000000E+00 -0.00000000000E+00 -0.57406042292E+03  0.57406042292E+03  0.00000000000E+00 0.  1.
      99926    2    1    2    0    0  0.00000000000E+00  0.00000000000E+00 -0.48281540399E+03  0.66530544185E+03  0.45773422051E+03 0.  0.
      99925    2    3    3    0    0 -0.32967644731E+02 -0.31054071103E+02 -0.14850266818E+03  0.30549474946E+03  0.26310222074E+03 0.  0.
         25    1    3    3    0    0  0.32967644731E+02  0.31054071103E+02 -0.33431273581E+03  0.35981069239E+03  0.12509000000E+03 0.  0.
         25    1    4    4    0    0 -0.51413213553E+02 -0.35772718207E+02 -0.68203624238E+02  0.15563498435E+03  0.12509000000E+03 0.  0.
         25    1    4    4    0    0  0.18445568822E+02  0.47186471045E+01 -0.80299043942E+02  0.14985976511E+03  0.12509000000E+03 0.  0.
<mgrwt>
<rscale>  2 0.45773422E+03</rscale>
<asrwt>0</asrwt>
<pdfrwt beam="1">  1       21 0.13418385E-01 0.45773422E+03</pdfrwt>
<pdfrwt beam="2">  1       21 0.84420650E-01 0.45773422E+03</pdfrwt>
<totfact> 0.53661062E+04</totfact>
</mgrwt>
</event>
<event>
 7    0  0.4705418E-002  0.4507062E+03  0.7546771E-02  0.1027512E+00
         21   -1    0    0  502  501  0.00000000000E+00  0.00000000000E+00  0.29488693747E+02  0.29488693747E+02  0.00000000000E+00 0. -1.
         21   -1    0    0  501  502 -0.00000000000E+00 -0.00000000000E+00 -0.17221524043E+04  0.17221524043E+04  0.00000000000E+00 0. -1.
      99926    2    1    2    0    0  0.14210854715E-13  0.35527136788E-14 -0.16926637105E+04  0.17516410980E+04  0.45070622288E+03 0.  0.
      99925    2    3    3    0    0  0.10722716471E+03  0.19681435711E+02 -0.10976371378E+04  0.11339120684E+04  0.26280081560E+03 0.  0.
         25    1    4    4    0    0  0.65979383183E+02 -0.26524979890E+02 -0.60554177697E+03  0.62240276777E+03  0.12509000000E+03 0.  0.
         25    1    4    4    0    0  0.41247781528E+02  0.46206415601E+02 -0.49209536086E+03  0.51150930060E+03  0.12509000000E+03 0.  0.
         25    1    3    3    0    0 -0.10722716471E+03 -0.19681435711E+02 -0.59502657271E+03  0.61772902967E+03  0.12509000000E+03 0.  0.
<mgrwt>
<rscale>  2 0.45070622E+03</rscale>
<asrwt>0</asrwt>
<pdfrwt beam="1">  1       21 0.43365717E-02 0.45070622E+03</pdfrwt>
<pdfrwt beam="2">  1       21 0.25325776E+00 0.45070622E+03</pdfrwt>
<totfact> 0.18827268E+04</totfact>
</mgrwt>
</event>
<event>
 7    0  0.4705418E-002  0.4563263E+03  0.7546771E-02  0.1025852E+00
         21   -1    0    0  502  501  0.00000000000E+00  0.00000000000E+00  0.83669575782E+03  0.83669575782E+03  0.00000000000E+00 0.  1.
         21   -1    0    0  501  502 -0.00000000000E+00 -0.00000000000E+00 -0.62219046299E+02  0.62219046299E+02  0.00000000000E+00 0.  1.
      99926    2    1    2    0    0  0.00000000000E+00  0.14210854715E-13  0.77447671152E+03  0.89891480412E+03  0.45632625212E+03 0.  0.
      99925    2    3    3    0    0 -0.40524146506E+02 -0.92482729353E+02  0.38070750340E+03  0.47359497265E+03  0.26298048082E+03 0.  0.
         25    1    4    4    0    0  0.24243737947E+01 -0.21251890633E+02  0.21720515692E+03  0.25156134189E+03  0.12509000000E+03 0.  0.
         25    1    4    4    0    0 -0.42948520301E+02 -0.71230838720E+02  0.16350234648E+03  0.22203363075E+03  0.12509000000E+03 0.  0.
         25    1    3    3    0    0  0.40524146506E+02  0.92482729353E+02  0.39376920812E+03  0.42531983147E+03  0.12509000000E+03 0.  0.
<mgrwt>
<rscale>  2 0.45632625E+03</rscale>
<asrwt>0</asrwt>
<pdfrwt beam="1">  1       21 0.12304349E+00 0.45632625E+03</pdfrwt>
<pdfrwt beam="2">  1       21 0.91498603E-02 0.45632625E+03</pdfrwt>
<totfact> 0.42834113E+04</totfact>
</mgrwt>
</event>
<event>
 7    0  0.4705418E-002  0.4621494E+03  0.7546771E-02  0.1024160E+00
         21   -1    0    0  502  501  0.00000000000E+00  0.00000000000E+00  0.76134032808E+02  0.76134032808E+02  0.00000000000E+00 0.  1.
         21   -1    0    0  501  502 -0.00000000000E+00 -0.00000000000E+00 -0.70133558927E+03  0.70133558927E+03  0.00000000000E+00 0.  1.
      99926    2    1    2    0    0  0.88817841970E-15  0.00000000000E+00 -0.62520155646E+03  0.77746962208E+03  0.46214935578E+03 0.  0.
      99925    2    3    3    0    0 -0.57021372623E+01  0.87735121425E+02 -0.25442292557E+03  0.37640320971E+03  0.26309387170E+03 0.  0.
         25    1    4    4    0    0  0.15448366210E+01  0.21948264953E+02 -0.16790477964E+03  0.21053179327E+03  0.12509000000E+03 0.  0.
         25    1    3    3    0    0  0.57021372623E+01 -0.87735121425E+02 -0.37077863090E+03  0.40106641237E+03  0.12509000000E+03 0.  0.
         25    1    4    4    0    0 -0.72469738833E+01  0.65786856472E+02 -0.86518145931E+02  0.16587141644E+03  0.12509000000E+03 0.  0.
<mgrwt>
<rscale>  2 0.46214936E+03</rscale>
<asrwt>0</asrwt>
<pdfrwt beam="1">  1       21 0.11196182E-01 0.46214936E+03</pdfrwt>
<pdfrwt beam="2">  1       21 0.10313758E+00 0.46214936E+03</pdfrwt>
<totfact> 0.46224783E+04</totfact>
</mgrwt>
</event>
<event>
 7    0  0.4705418E-002  0.4591591E+03  0.7546771E-02  0.1025025E+00
         21   -1    0    0  502  501  0.00000000000E+00  0.00000000000E+00  0.36480589599E+03  0.36480589599E+03  0.00000000000E+00 0. -1.
         21   -1    0    0  501  502 -0.00000000000E+00 -0.00000000000E+00 -0.14447893677E+03  0.14447893677E+03  0.00000000000E+00 0. -1.
      99926    2    1    2    0    0  0.00000000000E+00 -0.14210854715E-13  0.22032695923E+03  0.50928483276E+03  0.45915909217E+03 0.  0.
      99925    2    3    3    0    0 -0.56597454933E+02  0.88236160016E+02  0.80036679764E+02  0.29406921425E+03  0.26283443615E+03 0.  0.
         25    1    4    4    0    0 -0.58150968897E+01  0.18156489842E+02  0.61955489225E+02  0.14088812661E+03  0.12509000000E+03 0.  0.
         25    1    4    4    0    0 -0.50782358043E+02  0.70079670173E+02  0.18081190539E+02  0.15318108764E+03  0.12509000000E+03 0.  0.
         25    1    3    3    0    0  0.56597454933E+02 -0.88236160016E+02  0.14029027946E+03  0.21521561851E+03  0.12509000000E+03 0.  0.
<mgrwt>
<rscale>  2 0.45915909E+03</rscale>
<asrwt>0</asrwt>
<pdfrwt beam="1">  1       21 0.53647926E-01 0.45915909E+03</pdfrwt>
<pdfrwt beam="2">  1       21 0.21246903E-01 0.45915909E+03</pdfrwt>
<totfact> 0.62533287E+04</totfact>
</mgrwt>
</event>
<event>
 7    0  0.4705418E-002  0.4531867E+03  0.7546771E-02  0.1026776E+00
         21   -1    0    0  502  501  0.00000000000E+00  0.00000000000E+00  0.50047093934E+03  0.50047093934E+03  0.00000000000E+00 0. -1.
         21   -1    0    0  501  502 -0.00000000000E+00 -0.00000000000E+00 -0.10259245591E+03  0.10259245591E+03  0.00000000000E+00 0. -1.
      99926    2    1    2    0    0  0.00000000000E+00 -0.17763568394E-14  0.39787848344E+03  0.60306339525E+03  0.45318668461E+03 0.  0.
      99925    2    3    3    0    0  0.10507758299E+03 -0.10551905963E+02  0.20364268610E+03  0.34904037614E+03  0.26307071181E+03 0.  0.
         25    1    4    4    0    0  0.20924770077E+02 -0.30913464853E+02  0.10718785240E+03  0.16890894622E+03  0.12509000000E+03 0.  0.
         25    1    3    3    0    0 -0.10507758299E+03  0.10551905963E+02  0.19423579734E+03  0.25402301911E+03  0.12509000000E+03 0.  0.
         25    1    4    4    0    0  0.84152812917E+02  0.20361558890E+02  0.96454833701E+02  0.18013142992E+03  0.12509000000E+03 0.  0.
<mgrwt>
<rscale>  2 0.45318668E+03</rscale>
<asrwt>0</asrwt>
<pdfrwt beam="1">  1       21 0.73598667E-01 0.45318668E+03</pdfrwt>
<pdfrwt beam="2">  1       21 0.15087126E-01 0.45318668E+03</pdfrwt>
<totfact> 0.59335591E+04</totfact>
</mgrwt>
</event>
<event>
 7    0  0.4705418E-002  0.4197874E+03  0.7546771E-02  0.1037136E+00
         21   -1    0    0  502  501  0.00000000000E+00  0.00000000000E+00  0.72323100865E+03  0.72323100865E+03  0.00000000000E+00 0.  1.
         21   -1    0    0  501  502 -0.00000000000E+00 -0.00000000000E+00 -0.60914649807E+02  0.60914649807E+02  0.00000000000E+00 0.  1.
      99926    2    1    2    0    0  0.00000000000E+00  0.00000000000E+00  0.66231635884E+03  0.78414565846E+03  0.41978739201E+03 0.  0.
      99925    2    3    3    0    0 -0.36438336483E+02  0.43865998934E+02  0.52451611792E+03  0.58949624868E+03  0.26293856891E+03 0.  0.
         25    1    4    4    0    0 -0.72282356528E+00 -0.35825076470E+00  0.31516759007E+03  0.33908519394E+03  0.12509000000E+03 0.  0.
         25    1    3    3    0    0  0.36438336483E+02 -0.43865998934E+02  0.13780024093E+03  0.19464940978E+03  0.12509000000E+03 0.  0.
         25    1    4    4    0    0 -0.35715512917E+02  0.44224249699E+02  0.20934852785E+03  0.25041105474E+03  0.12509000000E+03 0.  0.
<mgrwt>
<rscale>  2 0.41978739E+03</rscale>
<asrwt>0</asrwt>
<pdfrwt beam="1">  1       21 0.10635750E+00 0.41978739E+03</pdfrwt>
<pdfrwt beam="2">  1       21 0.89580371E-02 0.41978739E+03</pdfrwt>
<totfact> 0.64640232E+04</totfact>
</mgrwt>
</event>
<event>
 7    0  0.4705418E-002  0.4443357E+03  0.7546771E-02  0.1029425E+00
         21   -1    0    0  502  501  0.00000000000E+00  0.00000000000E+00  0.66394214954E+03  0.66394214954E+03  0.00000000000E+00 0.  1.
         21   -1    0    0  501  502 -0.00000000000E+00 -0.00000000000E+00 -0.74341652624E+02  0.74341652624E+02  0.00000000000E+00 0.  1.
      99926    2    1    2    0    0  0.00000000000E+00  0.00000000000E+00  0.58960049692E+03  0.73828380217E+03  0.44433571382E+03 0.  0.
      99925    2    3    3    0    0 -0.55405834528E+02  0.24073661612E+02  0.51296461876E+03  0.57963351504E+03  0.26304555495E+03 0.  0.
         25    1    4    4    0    0 -0.47839336720E+02  0.46333270907E+02  0.29375288922E+03  0.32614972352E+03  0.12509000000E+03 0.  0.
         25    1    4    4    0    0 -0.75664978087E+01 -0.22259609295E+02  0.21921172954E+03  0.25348379152E+03  0.12509000000E+03 0.  0.
         25    1    3    3    0    0  0.55405834528E+02 -0.24073661612E+02  0.76635878163E+02  0.15865028713E+03  0.12509000000E+03 0.  0.
<mgrwt>
<rscale>  2 0.44433571E+03</rscale>
<asrwt>0</asrwt>
<pdfrwt beam="1">  1       21 0.97638548E-01 0.44433571E+03</pdfrwt>
<pdfrwt beam="2">  1       21 0.10932596E-01 0.44433571E+03</pdfrwt>
<totfact> 0.55371569E+04</totfact>
</mgrwt>
</event>
<event>
 7    0  0.4705418E-002  0.4624393E+03  0.7546771E-02  0.1024076E+00
         21   -1    0    0  502  501  0.00000000000E+00  0.00000000000E+00  0.64117936439E+02  0.64117936439E+02  0.00000000000E+00 0.  1.
         21   -1    0    0  501  502 -0.00000000000E+00 -0.00000000000E+00 -0.83381532706E+03  0.83381532706E+03  0.00000000000E+00 0.  1.
      99926    2    1    2    0    0  0.00000000000E+00  0.00000000000E+00 -0.76969739062E+03  0.89793326350E+03  0.46243926365E+03 0.  0.
      99925    2    3    3    0    0  0.79336388584E+02 -0.20875524925E+02 -0.31130646239E+03  0.41575093151E+03  0.26307237299E+03 0.  0.
         25    1    3    3    0    0 -0.79336388584E+02  0.20875524925E+02 -0.45839092823E+03  0.48218233199E+03  0.12509000000E+03 0.  0.
         25    1    4    4    0    0 -0.27257325857E+01 -0.12126531835E+02 -0.14176407679E+03  0.18947043031E+03  0.12509000000E+03 0.  0.
         25    1    4    4    0    0  0.82062121170E+02 -0.87489930895E+01 -0.16954238559E+03  0.22628050120E+03  0.12509000000E+03 0.  0.
<mgrwt>
<rscale>  2 0.46243926E+03</rscale>
<asrwt>0</asrwt>
<pdfrwt beam="1">  1       21 0.94291092E-02 0.46243926E+03</pdfrwt>
<pdfrwt beam="2">  1       21 0.12261989E+00 0.46243926E+03</pdfrwt>
<totfact> 0.40888932E+04</totfact>
</mgrwt>
</event>
<event>
 7    0  0.4705418E-002  0.4538790E+03  0.7546771E-02  0.1026572E+00
         21   -1    0    0  502  501  0.00000000000E+00  0.00000000000E+00  0.48942117122E+02  0.48942117122E+02  0.00000000000E+00 0. -1.
         21   -1    0    0  501  502 -0.00000000000E+00 -0.00000000000E+00 -0.10522949753E+04  0.10522949753E+04  0.00000000000E+00 0. -1.
      99926    2    1    2    0    0  0.00000000000E+00  0.00000000000E+00 -0.10033528582E+04  0.11012370924E+04  0.45387903202E+03 0.  0.
      99925    2    3    3    0    0  0.70090306274E+02 -0.16431703882E+02 -0.84152148129E+03  0.88439716396E+03  0.26233049429E+03 0.  0.
         25    1    4    4    0    0  0.45403944069E+02  0.27493500315E+02 -0.46530533425E+03  0.48474114008E+03  0.12509000000E+03 0.  0.
         25    1    3    3    0    0 -0.70090306274E+02  0.16431703882E+02 -0.16183137688E+03  0.21683992845E+03  0.12509000000E+03 0.  0.
         25    1    4    4    0    0  0.24686362205E+02 -0.43925204198E+02 -0.37621614703E+03  0.39965602389E+03  0.12509000000E+03 0.  0.
<mgrwt>
<rscale>  2 0.45387903E+03</rscale>
<asrwt>0</asrwt>
<pdfrwt beam="1">  1       21 0.71973708E-02 0.45387903E+03</pdfrwt>
<pdfrwt beam="2">  1       21 0.15474925E+00 0.45387903E+03</pdfrwt>
<totfact> 0.35763064E+04</totfact>
</mgrwt>
</event>
<event>
 7    0  0.4705418E-002  0.4585626E+03  0.7546771E-02  0.1025199E+00
         21   -1    0    0  502  501  0.00000000000E+00  0.00000000000E+00  0.50239369201E+02  0.50239369201E+02  0.00000000000E+00 0. -1.
         21   -1    0    0  501  502 -0.00000000000E+00 -0.00000000000E+00 -0.10463888787E+04  0.10463888787E+04  0.00000000000E+00 0. -1.
      99926    2    1    2    0    0 -0.14210854715E-13  0.00000000000E+00 -0.99614950946E+03  0.10966282479E+04  0.45856261166E+03 0.  0.
      99925    2    3    3    0    0 -0.96662082049E+02 -0.57788265248E+02 -0.69741388838E+03  0.75373829305E+03  0.26277793097E+03 0.  0.
         25    1    4    4    0    0 -0.77630852476E+02 -0.27252266238E+02 -0.29537765121E+03  0.33115660979E+03  0.12509000000E+03 0.  0.
         25    1    3    3    0    0  0.96662082049E+02  0.57788265248E+02 -0.29873562108E+03  0.34288995481E+03  0.12509000000E+03 0.  0.
         25    1    4    4    0    0 -0.19031229574E+02 -0.30535999011E+02 -0.40203623716E+03  0.42258168326E+03  0.12509000000E+03 0.  0.
<mgrwt>
<rscale>  2 0.45856261E+03</rscale>
<asrwt>0</asrwt>
<pdfrwt beam="1">  1       21 0.73881425E-02 0.45856261E+03</pdfrwt>
<pdfrwt beam="2">  1       21 0.15388072E+00 0.45856261E+03</pdfrwt>
<totfact> 0.34638616E+04</totfact>
</mgrwt>
</event>
<event>
 7    0  0.4705418E-002  0.4586226E+03  0.7546771E-02  0.1025181E+00
         21   -1    0    0  502  501  0.00000000000E+00  0.00000000000E+00  0.16806055205E+03  0.16806055205E+03  0.00000000000E+00 0. -1.
         21   -1    0    0  501  502 -0.00000000000E+00 -0.00000000000E+00 -0.31288528651E+03  0.31288528651E+03  0.00000000000E+00 0. -1.
      99926    2    1    2    0    0  0.00000000000E+00  0.00000000000E+00 -0.14482473446E+03  0.48094583855E+03  0.45862260728E+03 0.  0.
      99925    2    3    3    0    0 -0.73171937570E+02 -0.57438027312E+02 -0.16450619860E+03  0.32382127790E+03  0.26295374349E+03 0.  0.
         25    1    4    4    0    0  0.41630362814E+01 -0.21333558951E+02 -0.65149669237E+02  0.14270402626E+03  0.12509000000E+03 0.  0.
         25    1    4    4    0    0 -0.77334973851E+02 -0.36104468361E+02 -0.99356529364E+02  0.18111725165E+03  0.12509000000E+03 0.  0.
         25    1    3    3    0    0  0.73171937570E+02  0.57438027312E+02  0.19681464140E+02  0.15712456065E+03  0.12509000000E+03 0.  0.
<mgrwt>
<rscale>  2 0.45862261E+03</rscale>
<asrwt>0</asrwt>
<pdfrwt beam="1">  1       21 0.24714787E-01 0.45862261E+03</pdfrwt>
<pdfrwt beam="2">  1       21 0.46012542E-01 0.45862261E+03</pdfrwt>
<totfact> 0.64749440E+04</totfact>
</mgrwt>
</event>
<event>
 7    0  0.4705418E-002  0.4530825E+03  0.7546771E-02  0.1026807E+00
         21   -1    0    0  502  501  0.00000000000E+00  0.00000000000E+00  0.98991752073E+03  0.98991752073E+03  0.00000000000E+00 0. -1.
         21   -1    0    0  501  502 -0.00000000000E+00 -0.00000000000E+00 -0.51843653349E+02  0.51843653349E+02  0.00000000000E+00 0. -1.
      99926    2    1    2    0    0 -0.71054273576E-14  0.14210854715E-13  0.93807386738E+03  0.10417611741E+04  0.45308251252E+03 0.  0.
      99925    2    3    3    0    0  0.36731388363E+02 -0.10461598678E+03  0.56138986397E+03  0.62965433586E+03  0.26270192942E+03 0.  0.
         25    1    4    4    0    0  0.47950650604E+02 -0.65472645137E+02  0.24220893030E+03  0.28442680284E+03  0.12509000000E+03 0.  0.
         25    1    3    3    0    0 -0.36731388363E+02  0.10461598678E+03  0.37668400341E+03  0.41210683822E+03  0.12509000000E+03 0.  0.
         25    1    4    4    0    0 -0.11219262242E+02 -0.39143341640E+02  0.31918093366E+03  0.34522753302E+03  0.12509000000E+03 0.  0.
<mgrwt>
<rscale>  2 0.45308251E+03</rscale>
<asrwt>0</asrwt>
<pdfrwt beam="1">  1       21 0.14557609E+00 0.45308251E+03</pdfrwt>
<pdfrwt beam="2">  1       21 0.76240673E-02 0.45308251E+03</pdfrwt>
<totfact> 0.38148973E+04</totfact>
</mgrwt>
</event>
<event>
 7    0  0.4705418E-002  0.4453033E+03  0.7546771E-02  0.1029132E+00
         21   -1    0    0  502  501  0.00000000000E+00  0.00000000000E+00  0.17467000465E+03  0.17467000465E+03  0.00000000000E+00 0.  1.
         21   -1    0    0  501  502 -0.00000000000E+00 -0.00000000000E+00 -0.28381385621E+03  0.28381385621E+03  0.00000000000E+00 0.  1.
      99926    2    1    2    0    0  0.71054273576E-14  0.00000000000E+00 -0.10914385156E+03  0.45848386085E+03  0.44530334642E+03 0.  0.
      99925    2    3    3    0    0 -0.44619763036E+02 -0.87353715392E+02 -0.10465417894E+03  0.29945788780E+03  0.26287056615E+03 0.  0.
         25    1    4    4    0    0 -0.43552207208E+02 -0.79543893279E+02 -0.46994304432E+02  0.16149302914E+03  0.12509000000E+03 0.  0.
         25    1    3    3    0    0  0.44619763036E+02  0.87353715392E+02 -0.44896726153E+01  0.15902597306E+03  0.12509000000E+03 0.  0.
         25    1    4    4    0    0 -0.10675558281E+01 -0.78098221130E+01 -0.57659874513E+02  0.13796485866E+03  0.12509000000E+03 0.  0.
<mgrwt>
<rscale>  2 0.44530335E+03</rscale>
<asrwt>0</asrwt>
<pdfrwt beam="1">  1       21 0.25686765E-01 0.44530335E+03</pdfrwt>
<pdfrwt beam="2">  1       21 0.41737332E-01 0.44530335E+03</pdfrwt>
<totfact> 0.73818460E+04</totfact>
</mgrwt>
</event>
<event>
 7    0  0.4705418E-002  0.4511599E+03  0.7546771E-02  0.1027377E+00
         21   -1    0    0  502  501  0.00000000000E+00  0.00000000000E+00  0.48644336289E+02  0.48644336289E+02  0.00000000000E+00 0.  1.
         21   -1    0    0  501  502 -0.00000000000E+00 -0.00000000000E+00 -0.10460890286E+04  0.10460890286E+04  0.00000000000E+00 0.  1.
      99926    2    1    2    0    0  0.17763568394E-14  0.00000000000E+00 -0.99744469231E+03  0.10947333649E+04  0.45115986743E+03 0.  0.
      99925    2    3    3    0    0  0.42960617478E+01  0.67889982347E+02 -0.83809840951E+03  0.88103672993E+03  0.26303853256E+03 0.  0.
         25    1    4    4    0    0 -0.22246302444E+02  0.15928989832E+02 -0.49301817371E+03  0.50937516468E+03  0.12509000000E+03 0.  0.
         25    1    4    4    0    0  0.26542364191E+02  0.51960992515E+02 -0.34508023581E+03  0.37166156525E+03  0.12509000000E+03 0.  0.
         25    1    3    3    0    0 -0.42960617478E+01 -0.67889982347E+02 -0.15934628279E+03  0.21369663495E+03  0.12509000000E+03 0.  0.
<mgrwt>
<rscale>  2 0.45115987E+03</rscale>
<asrwt>0</asrwt>
<pdfrwt beam="1">  1       21 0.71535792E-02 0.45115987E+03</pdfrwt>
<pdfrwt beam="2">  1       21 0.15383661E+00 0.45115987E+03</pdfrwt>
<totfact> 0.36766605E+04</totfact>
</mgrwt>
</event>
<event>
 7    0  0.4705418E-002  0.4473024E+03  0.7546771E-02  0.1028530E+00
         21   -1    0    0  502  501  0.00000000000E+00  0.00000000000E+00  0.37042665971E+03  0.37042665971E+03  0.00000000000E+00 0.  1.
         21   -1    0    0  501  502 -0.00000000000E+00 -0.00000000000E+00 -0.13503311547E+03  0.13503311547E+03  0.00000000000E+00 0.  1.
      99926    2    1    2    0    0  0.00000000000E+00  0.00000000000E+00  0.23539354424E+03  0.50545977519E+03  0.44730242975E+03 0.  0.
      99925    2    3    3    0    0 -0.85888587936E+02 -0.61885465270E+02  0.14857032893E+03  0.32000778904E+03  0.26291668273E+03 0.  0.
         25    1    4    4    0    0 -0.39425961797E+02 -0.12380499269E+02  0.30845096931E+02  0.13530192656E+03  0.12509000000E+03 0.  0.
         25    1    3    3    0    0  0.85888587936E+02  0.61885465270E+02  0.86823215311E+02  0.18545198615E+03  0.12509000000E+03 0.  0.
         25    1    4    4    0    0 -0.46462626139E+02 -0.49504966000E+02  0.11772523200E+03  0.18470586248E+03  0.12509000000E+03 0.  0.
<mgrwt>
<rscale>  2 0.44730243E+03</rscale>
<asrwt>0</asrwt>
<pdfrwt beam="1">  1       21 0.54474508E-01 0.44730243E+03</pdfrwt>
<pdfrwt beam="2">  1       21 0.19857811E-01 0.44730243E+03</pdfrwt>
<totfact> 0.69009170E+04</totfact>
</mgrwt>
</event>
<event>
 7    0  0.4705418E-002  0.4694105E+03  0.7546771E-02  0.1022087E+00
         21   -1    0    0  502  501  0.00000000000E+00  0.00000000000E+00  0.44362658195E+03  0.44362658195E+03  0.00000000000E+00 0. -1.
         21   -1    0    0  501  502 -0.00000000000E+00 -0.00000000000E+00 -0.12417326254E+03  0.12417326254E+03  0.00000000000E+00 0. -1.
      99926    2    1    2    0    0  0.00000000000E+00  0.00000000000E+00  0.31945331941E+03  0.56779984448E+03  0.46941052408E+03 0.  0.
      99925    2    3    3    0    0 -0.46809727777E+02 -0.82844284598E+02  0.29913006242E+03  0.40932313017E+03  0.26270193098E+03 0.  0.
         25    1    4    4    0    0 -0.44239419558E+02 -0.64610985129E+02  0.12077811436E+03  0.19070020097E+03  0.12509000000E+03 0.  0.
         25    1    4    4    0    0 -0.25703082181E+01 -0.18233299470E+02  0.17835194806E+03  0.21862292920E+03  0.12509000000E+03 0.  0.
         25    1    3    3    0    0  0.46809727777E+02  0.82844284598E+02  0.20323256985E+02  0.15847671431E+03  0.12509000000E+03 0.  0.
<mgrwt>
<rscale>  2 0.46941052E+03</rscale>
<asrwt>0</asrwt>
<pdfrwt beam="1">  1       21 0.65239203E-01 0.46941052E+03</pdfrwt>
<pdfrwt beam="2">  1       21 0.18260774E-01 0.46941052E+03</pdfrwt>
<totfact> 0.54252834E+04</totfact>
</mgrwt>
</event>
<event>
 7    0  0.4705418E-002  0.4242363E+03  0.7546771E-02  0.1035696E+00
         21   -1    0    0  502  501  0.00000000000E+00  0.00000000000E+00  0.50535364979E+02  0.50535364979E+02  0.00000000000E+00 0.  1.
         21   -1    0    0  501  502 -0.00000000000E+00 -0.00000000000E+00 -0.89034916702E+03  0.89034916702E+03  0.00000000000E+00 0.  1.
      99926    2    1    2    0    0  0.00000000000E+00  0.00000000000E+00 -0.83981380204E+03  0.94088453199E+03  0.42423634976E+03 0.  0.
      99925    2    3    3    0    0 -0.66379880521E+02 -0.36326678385E+02 -0.60911917841E+03  0.66776654729E+03  0.26298302620E+03 0.  0.
         25    1    4    4    0    0 -0.72088789819E+02 -0.34393046398E+02 -0.33173165145E+03  0.36341859051E+03  0.12509000000E+03 0.  0.
         25    1    4    4    0    0  0.57089092976E+01 -0.19336319869E+01 -0.27738752696E+03  0.30434795677E+03  0.12509000000E+03 0.  0.
         25    1    3    3    0    0  0.66379880521E+02  0.36326678385E+02 -0.23069462362E+03  0.27311798471E+03  0.12509000000E+03 0.  0.
<mgrwt>
<rscale>  2 0.42423635E+03</rscale>
<asrwt>0</asrwt>
<pdfrwt beam="1">  1       21 0.74316714E-02 0.42423635E+03</pdfrwt>
<pdfrwt beam="2">  1       21 0.13093370E+00 0.42423635E+03</pdfrwt>
<totfact> 0.53205001E+04</totfact>
</mgrwt>
</event>
<event>
 7    0  0.4705418E-002  0.4534803E+03  0.7546771E-02  0.1026689E+00
         21   -1    0    0  502  501  0.00000000000E+00  0.00000000000E+00  0.93288272707E+03  0.93288272707E+03  0.00000000000E+00 0. -1.
         21   -1    0    0  501  502 -0.00000000000E+00 -0.00000000000E+00 -0.55109931403E+02  0.55109931403E+02  0.00000000000E+00 0. -1.
      99926    2    1    2    0    0  0.88817841970E-15 -0.14210854715E-13  0.87777279567E+03  0.98799265847E+03  0.45348033296E+03 0.  0.
      99925    2    3    3    0    0 -0.56969288881E+01  0.10710759184E+03  0.62249692166E+03  0.68415426199E+03  0.26279297078E+03 0.  0.
         25    1    3    3    0    0  0.56969288881E+01 -0.10710759184E+03  0.25527587401E+03  0.30383839648E+03  0.12509000000E+03 0.  0.
         25    1    4    4    0    0 -0.94439840037E+01  0.94785604369E+02  0.37208596543E+03  0.40394179457E+03  0.12509000000E+03 0.  0.
         25    1    4    4    0    0  0.37470551156E+01  0.12321987472E+02  0.25041095623E+03  0.28021246742E+03  0.12509000000E+03 0.  0.
<mgrwt>
<rscale>  2 0.45348033E+03</rscale>
<asrwt>0</asrwt>
<pdfrwt beam="1">  1       21 0.13718863E+00 0.45348033E+03</pdfrwt>
<pdfrwt beam="2">  1       21 0.81044022E-02 0.45348033E+03</pdfrwt>
<totfact> 0.40111026E+04</totfact>
</mgrwt>
</event>
<event>
 7    0  0.4705418E-002  0.4525863E+03  0.7546771E-02  0.1026954E+00
         21   -1    0    0  502  501  0.00000000000E+00  0.00000000000E+00  0.39897661105E+02  0.39897661105E+02  0.00000000000E+00 0.  1.
         21   -1    0    0  501  502 -0.00000000000E+00 -0.00000000000E+00 -0.12834982893E+04  0.12834982893E+04  0.00000000000E+00 0.  1.
      99926    2    1    2    0    0 -0.35527136788E-14  0.00000000000E+00 -0.12436006282E+04  0.13233959504E+04  0.45258625599E+03 0.  0.
      99925    2    3    3    0    0 -0.11500010041E+02  0.83109578301E+02 -0.99628609875E+03  0.10338248248E+04  0.26299871766E+03 0.  0.
         25    1    3    3    0    0  0.11500010041E+02 -0.83109578301E+02 -0.24731452948E+03  0.28957112568E+03  0.12509000000E+03 0.  0.
         25    1    4    4    0    0  0.23088763417E+02  0.34280234941E+02 -0.38188506160E+03  0.40397021409E+03  0.12509000000E+03 0.  0.
         25    1    4    4    0    0 -0.34588773458E+02  0.48829343360E+02 -0.61440103715E+03  0.62985461067E+03  0.12509000000E+03 0.  0.
<mgrwt>
<rscale>  2 0.45258626E+03</rscale>
<asrwt>0</asrwt>
<pdfrwt beam="1">  1       21 0.58673029E-02 0.45258626E+03</pdfrwt>
<pdfrwt beam="2">  1       21 0.18874976E+00 0.45258626E+03</pdfrwt>
<totfact> 0.28982921E+04</totfact>
</mgrwt>
</event>
<event>
 7    0  0.4705418E-002  0.4291721E+03  0.7546771E-02  0.1034122E+00
         21   -1    0    0  502  501  0.00000000000E+00  0.00000000000E+00  0.25897938885E+03  0.25897938885E+03  0.00000000000E+00 0. -1.
         21   -1    0    0  501  502 -0.00000000000E+00 -0.00000000000E+00 -0.17780248648E+03  0.17780248648E+03  0.00000000000E+00 0. -1.
      99926    2    1    2    0    0  0.00000000000E+00  0.44408920985E-15  0.81176902371E+02  0.43678187533E+03  0.42917212996E+03 0.  0.
      99925    2    3    3    0    0  0.55449209328E+02  0.30547530582E+01  0.12020812318E+03  0.29446219774E+03  0.26300959429E+03 0.  0.
         25    1    4    4    0    0  0.64893059969E+02  0.71744913523E+01  0.82292698151E+02  0.16334680538E+03  0.12509000000E+03 0.  0.
         25    1    3    3    0    0 -0.55449209328E+02 -0.30547530582E+01 -0.39031220812E+02  0.14231967759E+03  0.12509000000E+03 0.  0.
         25    1    4    4    0    0 -0.94438506413E+01 -0.41197382942E+01  0.37915425032E+02  0.13111539236E+03  0.12509000000E+03 0.  0.
<mgrwt>
<rscale>  2 0.42917213E+03</rscale>
<asrwt>0</asrwt>
<pdfrwt beam="1">  1       21 0.38085204E-01 0.42917213E+03</pdfrwt>
<pdfrwt beam="2">  1       21 0.26147424E-01 0.42917213E+03</pdfrwt>
<totfact> 0.86365016E+04</totfact>
</mgrwt>
</event>
<event>
 7    0  0.4705418E-002  0.4423459E+03  0.7546771E-02  0.1030029E+00
         21   -1    0    0  502  501  0.00000000000E+00  0.00000000000E+00  0.31795236184E+03  0.31795236184E+03  0.00000000000E+00 0. -1.
         21   -1    0    0  501  502 -0.00000000000E+00 -0.00000000000E+00 -0.15385155662E+03  0.15385155662E+03  0.00000000000E+00 0. -1.
      99926    2    1    2    0    0 -0.35527136788E-14  0.14210854715E-13  0.16410080522E+03  0.47180391846E+03  0.44234586378E+03 0.  0.
      99925    2    3    3    0    0 -0.17093832141E+02  0.94298552559E+02  0.70598851324E+02  0.28857035278E+03  0.26287684299E+03 0.  0.
         25    1    4    4    0    0  0.71044834580E+01  0.81849741238E+02  0.55716176076E+02  0.15969237365E+03  0.12509000000E+03 0.  0.
         25    1    4    4    0    0 -0.24198315599E+02  0.12448811322E+02  0.14882675248E+02  0.12887797913E+03  0.12509000000E+03 0.  0.
         25    1    3    3    0    0  0.17093832141E+02 -0.94298552559E+02  0.93501953893E+02  0.18323356569E+03  0.12509000000E+03 0.  0.
<mgrwt>
<rscale>  2 0.44234586E+03</rscale>
<asrwt>0</asrwt>
<pdfrwt beam="1">  1       21 0.46757700E-01 0.44234586E+03</pdfrwt>
<pdfrwt beam="2">  1       21 0.22625229E-01 0.44234586E+03</pdfrwt>
<totfact> 0.74508620E+04</totfact>
</mgrwt>
</event>
<event>
 7    0  0.4705418E-002  0.4551860E+03  0.7546771E-02  0.1026187E+00
         21   -1    0    0  502  501  0.00000000000E+00  0.00000000000E+00  0.33547089634E+03  0.33547089634E+03  0.00000000000E+00 0. -1.
         21   -1    0    0  501  502 -0.00000000000E+00 -0.00000000000E+00 -0.15440559782E+03  0.15440559782E+03  0.00000000000E+00 0. -1.
      99926    2    1    2    0    0  0.00000000000E+00  0.00000000000E+00  0.18106529852E+03  0.48987649416E+03  0.45518604680E+03 0.  0.
      99925    2    3    3    0    0  0.93127093903E+02 -0.51778617905E+02  0.76480633039E+02  0.29509676922E+03  0.26434661920E+03 0.  0.
         25    1    4    4    0    0  0.38673921979E+02 -0.67798039660E+02  0.45171678190E+02  0.15420841428E+03  0.12509000000E+03 0.  0.
         25    1    4    4    0    0  0.54453171924E+02  0.16019421755E+02  0.31308954849E+02  0.14088835495E+03  0.12509000000E+03 0.  0.
         25    1    3    3    0    0 -0.93127093903E+02  0.51778617905E+02  0.10458466548E+03  0.19477972493E+03  0.12509000000E+03 0.  0.
<mgrwt>
<rscale>  2 0.45518605E+03</rscale>
<asrwt>0</asrwt>
<pdfrwt beam="1">  1       21 0.49333955E-01 0.45518605E+03</pdfrwt>
<pdfrwt beam="2">  1       21 0.22706706E-01 0.45518605E+03</pdfrwt>
<totfact> 0.65890514E+04</totfact>
</mgrwt>
</event>
<event>
 7    0  0.4705418E-002  0.4539187E+03  0.7546771E-02  0.1026560E+00
         21   -1    0    0  502  501  0.00000000000E+00  0.00000000000E+00  0.15617672278E+04  0.15617672278E+04  0.00000000000E+00 0.  1.
         21   -1    0    0  501  502 -0.00000000000E+00 -0.00000000000E+00 -0.32982222909E+02  0.32982222909E+02  0.00000000000E+00 0.  1.
      99926    2    1    2    0    0  0.00000000000E+00  0.00000000000E+00  0.15287850049E+04  0.15947494507E+04  0.45391873652E+03 0.  0.
      99925    2    3    3    0    0 -0.94658811978E+02  0.43479016390E+02  0.11094336565E+04  0.11449119500E+04  0.26292512150E+03 0.  0.
         25    1    3    3    0    0  0.94658811978E+02 -0.43479016390E+02  0.41935134838E+03  0.44983750070E+03  0.12509000000E+03 0.  0.
         25    1    4    4    0    0 -0.25247144538E+02  0.40329231315E+02  0.42084738695E+03  0.44161509984E+03  0.12509000000E+03 0.  0.
         25    1    4    4    0    0 -0.69411667440E+02  0.31497850750E+01  0.68858626958E+03  0.70329685018E+03  0.12509000000E+03 0.  0.
<mgrwt>
<rscale>  2 0.45391874E+03</rscale>
<asrwt>0</asrwt>
<pdfrwt beam="1">  1       21 0.22967160E+00 0.45391874E+03</pdfrwt>
<pdfrwt beam="2">  1       21 0.48503279E-02 0.45391874E+03</pdfrwt>
<totfact> 0.21730574E+04</totfact>
</mgrwt>
</event>
<event>
 7    0  0.4705418E-002  0.4494152E+03  0.7546771E-02  0.1027897E+00
         21   -1    0    0  502  501  0.00000000000E+00  0.00000000000E+00  0.37291437242E+02  0.37291437242E+02  0.00000000000E+00 0. -1.
         21   -1    0    0  501  502 -0.00000000000E+00 -0.00000000000E+00 -0.13540241096E+04  0.13540241096E+04  0.00000000000E+00 0. -1.
      99926    2    1    2    0    0 -0.35527136788E-14 -0.14210854715E-13 -0.13167326724E+04  0.13913155469E+04  0.44941519827E+03 0.  0.
      99925    2    3    3    0    0 -0.31989870951E+02 -0.10182824991E+03 -0.88434558368E+03  0.92871588528E+03  0.26278078293E+03 0.  0.
         25    1    3    3    0    0  0.31989870951E+02  0.10182824991E+03 -0.43238708870E+03  0.46259966159E+03  0.12509000000E+03 0.  0.
         25    1    4    4    0    0 -0.12065609391E+02 -0.52693174882E+02 -0.31191492839E+03  0.34038299056E+03  0.12509000000E+03 0.  0.
         25    1    4    4    0    0 -0.19924261559E+02 -0.49135075025E+02 -0.57243065529E+03  0.58833289472E+03  0.12509000000E+03 0.  0.
<mgrwt>
<rscale>  2 0.44941520E+03</rscale>
<asrwt>0</asrwt>
<pdfrwt beam="1">  1       21 0.54840367E-02 0.44941520E+03</pdfrwt>
<pdfrwt beam="2">  1       21 0.19912113E+00 0.44941520E+03</pdfrwt>
<totfact> 0.27749353E+04</totfact>
</mgrwt>
</event>
<event>
 7    0  0.4705418E-002  0.4638308E+03  0.7546771E-02  0.1023676E+00
         21   -1    0    0  502  501  0.00000000000E+00  0.00000000000E+00  0.30807778970E+03  0.30807778970E+03  0.00000000000E+00 0. -1.
         21   -1    0    0  501  502 -0.00000000000E+00 -0.00000000000E+00 -0.17458176173E+03  0.17458176173E+03  0.00000000000E+00 0. -1.
      99926    2    1    2    0    0  0.00000000000E+00  0.00000000000E+00  0.13349602797E+03  0.48265955143E+03  0.46383084536E+03 0.  0.
      99925    2    3    3    0    0  0.36679913135E+02 -0.97000702998E+02  0.14870063505E+03  0.31946261339E+03  0.26303978801E+03 0.  0.
         25    1    3    3    0    0 -0.36679913135E+02  0.97000702998E+02 -0.15204607080E+02  0.16319693804E+03  0.12509000000E+03 0.  0.
         25    1    4    4    0    0  0.38134111531E+02 -0.78100107244E+02  0.54691451928E+02  0.16184097203E+03  0.12509000000E+03 0.  0.
         25    1    4    4    0    0 -0.14541983961E+01 -0.18900595754E+02  0.94009183126E+02  0.15762164136E+03  0.12509000000E+03 0.  0.
<mgrwt>
<rscale>  2 0.46383085E+03</rscale>
<asrwt>0</asrwt>
<pdfrwt beam="1">  1       21 0.45305557E-01 0.46383085E+03</pdfrwt>
<pdfrwt beam="2">  1       21 0.25673788E-01 0.46383085E+03</pdfrwt>
<totfact> 0.62043192E+04</totfact>
</mgrwt>
</event>
<event>
 7    0  0.4705418E-002  0.4221335E+03  0.7546771E-02  0.1036374E+00
         21   -1    0    0  502  501  0.00000000000E+00  0.00000000000E+00  0.12792516315E+03  0.12792516315E+03  0.00000000000E+00 0. -1.
         21   -1    0    0  501  502 -0.00000000000E+00 -0.00000000000E+00 -0.34824409122E+03  0.34824409122E+03  0.00000000000E+00 0. -1.
      99926    2    1    2    0    0  0.00000000000E+00  0.00000000000E+00 -0.22031892807E+03  0.47616925436E+03  0.42213354372E+03 0.  0.
      99925    2    3    3    0    0 -0.39234556645E+02  0.61441112759E+02 -0.11024980073E+03  0.29429819656E+03  0.26294875768E+03 0.  0.
         25    1    3    3    0    0  0.39234556645E+02 -0.61441112759E+02 -0.11006912734E+03  0.18187105780E+03  0.12509000000E+03 0.  0.
         25    1    4    4    0    0 -0.31632349217E+02  0.53172792441E+02 -0.92572984739E+02  0.16746706236E+03  0.12509000000E+03 0.  0.
         25    1    4    4    0    0 -0.76022074278E+01  0.82683203176E+01 -0.17676815986E+02  0.12683113420E+03  0.12509000000E+03 0.  0.
<mgrwt>
<rscale>  2 0.42213354E+03</rscale>
<asrwt>0</asrwt>
<pdfrwt beam="1">  1       21 0.18812524E-01 0.42213354E+03</pdfrwt>
<pdfrwt beam="2">  1       21 0.51212366E-01 0.42213354E+03</pdfrwt>
<totfact> 0.87729419E+04</totfact>
</mgrwt>
</event>
<event>
 7    0  0.4705418E-002  0.4516240E+03  0.7546771E-02  0.1027239E+00
         21   -1    0    0  502  501  0.00000000000E+00  0.00000000000E+00  0.67171217153E+03  0.67171217153E+03  0.00000000000E+00 0.  1.
         21   -1    0    0  501  502 -0.00000000000E+00 -0.00000000000E+00 -0.75912066292E+02  0.75912066292E+02  0.00000000000E+00 0.  1.
      99926    2    1    2    0    0 -0.71054273576E-14 -0.14210854715E-13  0.59580010524E+03  0.74762423782E+03  0.45162399801E+03 0.  0.
      99925    2    3    3    0    0  0.33511638428E+02  0.80377039356E+02  0.48713391347E+03  0.56043623688E+03  0.26307000510E+03 0.  0.
         25    1    3    3    0    0 -0.33511638428E+02 -0.80377039356E+02  0.10866619177E+03  0.18718800095E+03  0.12509000000E+03 0.  0.
         25    1    4    4    0    0  0.12263337295E+02  0.14631848945E+02  0.16423606119E+03  0.20732938128E+03  0.12509000000E+03 0.  0.
         25    1    4    4    0    0  0.21248301133E+02  0.65745190410E+02  0.32289785228E+03  0.35310685560E+03  0.12509000000E+03 0.  0.
<mgrwt>
<rscale>  2 0.45162400E+03</rscale>
<asrwt>0</asrwt>
<pdfrwt beam="1">  1       21 0.98781199E-01 0.45162400E+03</pdfrwt>
<pdfrwt beam="2">  1       21 0.11163540E-01 0.45162400E+03</pdfrwt>
<totfact> 0.51751996E+04</totfact>
</mgrwt>
</event>
<event>
 7    0  0.4705418E-002  0.4396310E+03  0.7546771E-02  0.1030860E+00
         21   -1    0    0  502  501  0.00000000000E+00  0.00000000000E+00  0.12466942684E+04  0.12466942684E+04  0.00000000000E+00 0.  1.
         21   -1    0    0  501  502 -0.00000000000E+00 -0.00000000000E+00 -0.38757585474E+02  0.38757585474E+02  0.00000000000E+00 0.  1.
      99926    2    1    2    0    0  0.00000000000E+00  0.00000000000E+00  0.12079366829E+04  0.12854518539E+04  0.43963102560E+03 0.  0.
      99925    2    3    3    0    0 -0.18098904103E+02 -0.79752626492E+02  0.92998746185E+03  0.96987091441E+03  0.26283998867E+03 0.  0.
         25    1    4    4    0    0 -0.28796486704E+02 -0.35610547678E+01  0.43322951088E+03  0.45185975253E+03  0.12509000000E+03 0.  0.
         25    1    4    4    0    0  0.10697582601E+02 -0.76191571724E+02  0.49675795097E+03  0.51801116188E+03  0.12509000000E+03 0.  0.
         25    1    3    3    0    0  0.18098904103E+02  0.79752626492E+02  0.27794922109E+03  0.31558093949E+03  0.12509000000E+03 0.  0.
<mgrwt>
<rscale>  2 0.43963103E+03</rscale>
<asrwt>0</asrwt>
<pdfrwt beam="1">  1       21 0.18333737E+00 0.43963103E+03</pdfrwt>
<pdfrwt beam="2">  1       21 0.56996457E-02 0.43963103E+03</pdfrwt>
<totfact> 0.33352461E+04</totfact>
</mgrwt>
</event>
<event>
 7    0  0.4705418E-002  0.4518597E+03  0.7546771E-02  0.1027169E+00
         21   -1    0    0  502  501  0.00000000000E+00  0.00000000000E+00  0.11982347887E+03  0.11982347887E+03  0.00000000000E+00 0.  1.
         21   -1    0    0  501  502 -0.00000000000E+00 -0.00000000000E+00 -0.42599577069E+03  0.42599577069E+03  0.00000000000E+00 0.  1.
      99926    2    1    2    0    0  0.00000000000E+00  0.00000000000E+00 -0.30617229182E+03  0.54581924956E+03  0.45185969162E+03 0.  0.
      99925    2    3    3    0    0 -0.12983124130E+02 -0.87811073059E+02 -0.27228602506E+03  0.38873604473E+03  0.26286248680E+03 0.  0.
         25    1    4    4    0    0  0.31450414677E+02 -0.57809758697E+02 -0.13983509376E+03  0.19882771017E+03  0.12509000000E+03 0.  0.
         25    1    4    4    0    0 -0.44433538808E+02 -0.30001314362E+02 -0.13245093130E+03  0.18990833456E+03  0.12509000000E+03 0.  0.
         25    1    3    3    0    0  0.12983124130E+02  0.87811073059E+02 -0.33886266759E+02  0.15708320483E+03  0.12509000000E+03 0.  0.
<mgrwt>
<rscale>  2 0.45185969E+03</rscale>
<asrwt>0</asrwt>
<pdfrwt beam="1">  1       21 0.17621100E-01 0.45185969E+03</pdfrwt>
<pdfrwt beam="2">  1       21 0.62646436E-01 0.45185969E+03</pdfrwt>
<totfact> 0.63712067E+04</totfact>
</mgrwt>
</event>
<event>
 7    0  0.4705418E-002  0.4536328E+03  0.7546771E-02  0.1026644E+00
         21   -1    0    0  502  501  0.00000000000E+00  0.00000000000E+00  0.15536391704E+03  0.15536391704E+03  0.00000000000E+00 0.  1.
         21   -1    0    0  501  502 -0.00000000000E+00 -0.00000000000E+00 -0.33113022644E+03  0.33113022644E+03  0.00000000000E+00 0.  1.
      99926    2    1    2    0    0  0.35527136788E-14  0.17763568394E-14 -0.17576630940E+03  0.48649414348E+03  0.45363284286E+03 0.  0.
      99925    2    3    3    0    0  0.12418080939E+02  0.11645001252E+02 -0.22934787571E+03  0.34935076181E+03  0.26297469820E+03 0.  0.
         25    1    4    4    0    0  0.39836908209E+02 -0.94656854879E+01 -0.93374316924E+02  0.16137797129E+03  0.12509000000E+03 0.  0.
         25    1    4    4    0    0 -0.27418827270E+02  0.21110686740E+02 -0.13597355879E+03  0.18797279051E+03  0.12509000000E+03 0.  0.
         25    1    3    3    0    0 -0.12418080939E+02 -0.11645001252E+02  0.53581566311E+02  0.13714338167E+03  0.12509000000E+03 0.  0.
<mgrwt>
<rscale>  2 0.45363284E+03</rscale>
<asrwt>0</asrwt>
<pdfrwt beam="1">  1       21 0.22847635E-01 0.45363284E+03</pdfrwt>
<pdfrwt beam="2">  1       21 0.48695621E-01 0.45363284E+03</pdfrwt>
<totfact> 0.66954055E+04</totfact>
</mgrwt>
</event>
<event>
 7    0  0.4705418E-002  0.4586846E+03  0.7546771E-02  0.1025163E+00
         21   -1    0    0  502  501  0.00000000000E+00  0.00000000000E+00  0.42238686281E+02  0.42238686281E+02  0.00000000000E+00 0.  1.
         21   -1    0    0  501  502 -0.00000000000E+00 -0.00000000000E+00 -0.12452536826E+04  0.12452536826E+04  0.00000000000E+00 0.  1.
      99926    2    1    2    0    0  0.00000000000E+00  0.14210854715E-13 -0.12030149964E+04  0.12874923689E+04  0.45868455235E+03 0.  0.
      99925    2    3    3    0    0 -0.33574374409E+02  0.99011636308E+02 -0.60981323989E+03  0.67229616062E+03  0.26301976596E+03 0.  0.
         25    1    4    4    0    0 -0.15754162769E+02  0.61961147145E+01 -0.27663707203E+03  0.30407591685E+03  0.12509000000E+03 0.  0.
         25    1    4    4    0    0 -0.17820211640E+02  0.92815521593E+02 -0.33317616786E+03  0.36822024377E+03  0.12509000000E+03 0.  0.
         25    1    3    3    0    0  0.33574374409E+02 -0.99011636308E+02 -0.59320175646E+03  0.61519620830E+03  0.12509000000E+03 0.  0.
<mgrwt>
<rscale>  2 0.45868455E+03</rscale>
<asrwt>0</asrwt>
<pdfrwt beam="1">  1       21 0.62115715E-02 0.45868455E+03</pdfrwt>
<pdfrwt beam="2">  1       21 0.18312554E+00 0.45868455E+03</pdfrwt>
<totfact> 0.28649963E+04</totfact>
</mgrwt>
</event>
<event>
 7    0  0.4705418E-002  0.4583050E+03  0.7546771E-02  0.1025274E+00
         21   -1    0    0  502  501  0.00000000000E+00  0.00000000000E+00  0.16532803624E+03  0.16532803624E+03  0.00000000000E+00 0.  1.
         21   -1    0    0  501  502 -0.00000000000E+00 -0.00000000000E+00 -0.31761622178E+03  0.31761622178E+03  0.00000000000E+00 0.  1.
      99926    2    1    2    0    0  0.88817841970E-15  0.00000000000E+00 -0.15228818554E+03  0.48294425802E+03  0.45830499114E+03 0.  0.
      99925    2    3    3    0    0  0.69612489736E+01 -0.10223102576E+02 -0.21738449544E+03  0.34138858532E+03  0.26293949212E+03 0.  0.
         25    1    4    4    0    0  0.14013887144E+02 -0.30419255403E+02 -0.71109537631E+02  0.14773555623E+03  0.12509000000E+03 0.  0.
         25    1    3    3    0    0 -0.69612489736E+01  0.10223102576E+02  0.65096309893E+02  0.14155567271E+03  0.12509000000E+03 0.  0.
         25    1    4    4    0    0 -0.70526381704E+01  0.20196152827E+02 -0.14627495781E+03  0.19365302909E+03  0.12509000000E+03 0.  0.
<mgrwt>
<rscale>  2 0.45830499E+03</rscale>
<asrwt>0</asrwt>
<pdfrwt beam="1">  1       21 0.24312947E-01 0.45830499E+03</pdfrwt>
<pdfrwt beam="2">  1       21 0.46708267E-01 0.45830499E+03</pdfrwt>
<totfact> 0.64770461E+04</totfact>
</mgrwt>
</event>
<event>
 7    0  0.4705418E-002  0.4552124E+03  0.7546771E-02  0.1026179E+00
         21   -1    0    0  502  501  0.00000000000E+00  0.00000000000E+00  0.28133317750E+02  0.28133317750E+02  0.00000000000E+00 0. -1.
         21   -1    0    0  501  502 -0.00000000000E+00 -0.00000000000E+00 -0.18413960796E+04  0.18413960796E+04  0.00000000000E+00 0. -1.
      99926    2    1    2    0    0  0.13877787808E-15  0.35527136788E-14 -0.18132627618E+04  0.18695293973E+04  0.45521239443E+03 0.  0.
      99925    2    3    3    0    0 -0.65438488879E-01 -0.27556516904E+02 -0.68923486428E+03  0.73822679039E+03  0.26301089331E+03 0.  0.
         25    1    3    3    0    0  0.65438488879E-01  0.27556516904E+02 -0.11240278976E+04  0.11313026069E+04  0.12509000000E+03 0.  0.
         25    1    4    4    0    0  0.10944295964E+02  0.24082669277E+02 -0.36331386113E+03  0.38515480312E+03  0.12509000000E+03 0.  0.
         25    1    4    4    0    0 -0.11009734453E+02 -0.51639186181E+02 -0.32592100315E+03  0.35307198728E+03  0.12509000000E+03 0.  0.
<mgrwt>
<rscale>  2 0.45521239E+03</rscale>
<asrwt>0</asrwt>
<pdfrwt beam="1">  1       21 0.41372528E-02 0.45521239E+03</pdfrwt>
<pdfrwt beam="2">  1       21 0.27079353E+00 0.45521239E+03</pdfrwt>
<totfact> 0.15932932E+04</totfact>
</mgrwt>
</event>
<event>
 7    0  0.4705418E-002  0.4555594E+03  0.7546771E-02  0.1026077E+00
         21   -1    0    0  502  501  0.00000000000E+00  0.00000000000E+00  0.39066017975E+02  0.39066017975E+02  0.00000000000E+00 0.  1.
         21   -1    0    0  501  502 -0.00000000000E+00 -0.00000000000E+00 -0.13281000551E+04  0.13281000551E+04  0.00000000000E+00 0.  1.
      99926    2    1    2    0    0 -0.71054273576E-14 -0.35527136788E-14 -0.12890340372E+04  0.13671660731E+04  0.45555935124E+03 0.  0.
      99925    2    3    3    0    0 -0.54268653918E+02 -0.19336403224E+02 -0.51689655185E+03  0.58284293333E+03  0.26306815908E+03 0.  0.
         25    1    4    4    0    0 -0.32476190521E+02  0.29998795702E+02 -0.23902061587E+03  0.27337335936E+03  0.12509000000E+03 0.  0.
         25    1    3    3    0    0  0.54268653918E+02  0.19336403224E+02 -0.77213748530E+03  0.78432313978E+03  0.12509000000E+03 0.  0.
         25    1    4    4    0    0 -0.21792463397E+02 -0.49335198926E+02 -0.27787593598E+03  0.30946957397E+03  0.12509000000E+03 0.  0.
<mgrwt>
<rscale>  2 0.45555935E+03</rscale>
<asrwt>0</asrwt>
<pdfrwt beam="1">  1       21 0.57450015E-02 0.45555935E+03</pdfrwt>
<pdfrwt beam="2">  1       21 0.19530887E+00 0.45555935E+03</pdfrwt>
<totfact> 0.27102242E+04</totfact>
</mgrwt>
</event>
<event>
 7    0  0.4705418E-002  0.4552163E+03  0.7546771E-02  0.1026178E+00
         21   -1    0    0  502  501  0.00000000000E+00  0.00000000000E+00  0.49238729243E+02  0.49238729243E+02  0.00000000000E+00 0.  1.
         21   -1    0    0  501  502 -0.00000000000E+00 -0.00000000000E+00 -0.10521282840E+04  0.10521282840E+04  0.00000000000E+00 0.  1.
      99926    2    1    2    0    0  0.14210854715E-13  0.88817841970E-15 -0.10028895548E+04  0.11013670132E+04  0.45521625500E+03 0.  0.
      99925    2    3    3    0    0 -0.82608106495E+02  0.70079433014E+01 -0.44412585403E+03  0.52280189860E+03  0.26306052619E+03 0.  0.
         25    1    4    4    0    0  0.19164725203E+00  0.12219712791E+02 -0.20612597060E+03  0.24142241397E+03  0.12509000000E+03 0.  0.
         25    1    3    3    0    0  0.82608106495E+02 -0.70079433014E+01 -0.55876370073E+03  0.57856511464E+03  0.12509000000E+03 0.  0.
         25    1    4    4    0    0 -0.82799753747E+02 -0.52117694901E+01 -0.23799988343E+03  0.28137948463E+03  0.12509000000E+03 0.  0.
<mgrwt>
<rscale>  2 0.45521626E+03</rscale>
<asrwt>0</asrwt>
<pdfrwt beam="1">  1       21 0.72409901E-02 0.45521626E+03</pdfrwt>
<pdfrwt beam="2">  1       21 0.15472474E+00 0.45521626E+03</pdfrwt>
<totfact> 0.35387120E+04</totfact>
</mgrwt>
</event>
<event>
 7    0  0.4705418E-002  0.4579827E+03  0.7546771E-02  0.1025368E+00
         21   -1    0    0  502  501  0.00000000000E+00  0.00000000000E+00  0.97549001676E+02  0.97549001676E+02  0.00000000000E+00 0. -1.
         21   -1    0    0  501  502 -0.00000000000E+00 -0.00000000000E+00 -0.53754555296E+03  0.53754555296E+03  0.00000000000E+00 0. -1.
      99926    2    1    2    0    0 -0.71054273576E-14  0.00000000000E+00 -0.43999655129E+03  0.63509455464E+03  0.45798267237E+03 0.  0.
      99925    2    3    3    0    0  0.58726922432E+02 -0.65995516569E+02 -0.38019340177E+03  0.47069204731E+03  0.26305839851E+03 0.  0.
         25    1    4    4    0    0  0.55766420764E+02 -0.23313354147E+01 -0.19491332446E+03  0.23823106633E+03  0.12509000000E+03 0.  0.
         25    1    3    3    0    0 -0.58726922432E+02  0.65995516569E+02 -0.59803149522E+02  0.16440250734E+03  0.12509000000E+03 0.  0.
         25    1    4    4    0    0  0.29605016676E+01 -0.63664181155E+02 -0.18528007730E+03  0.23246098098E+03  0.12509000000E+03 0.  0.
<mgrwt>
<rscale>  2 0.45798267E+03</rscale>
<asrwt>0</asrwt>
<pdfrwt beam="1">  1       21 0.14345442E-01 0.45798267E+03</pdfrwt>
<pdfrwt beam="2">  1       21 0.79050816E-01 0.45798267E+03</pdfrwt>
<totfact> 0.55256087E+04</totfact>
</mgrwt>
</event>
<event>
 7    0  0.4705418E-002  0.4241801E+03  0.7546771E-02  0.1035714E+00
         21   -1    0    0  502  501  0.00000000000E+00  0.00000000000E+00  0.38477792614E+02  0.38477792614E+02  0.00000000000E+00 0. -1.
         21   -1    0    0  501  502 -0.00000000000E+00 -0.00000000000E+00 -0.11690430026E+04  0.11690430026E+04  0.00000000000E+00 0. -1.
      99926    2    1    2    0    0 -0.71054273576E-14 -0.13322676296E-14 -0.11305652100E+04  0.12075207952E+04  0.42418012312E+03 0.  0.
      99925    2    3    3    0    0  0.62094989053E+02 -0.36860489089E+01 -0.58771055258E+03  0.64697814582E+03  0.26326346677E+03 0.  0.
         25    1    4    4    0    0  0.81960942159E+01 -0.25099228148E+02 -0.22261136576E+03  0.25671087916E+03  0.12509000000E+03 0.  0.
         25    1    4    4    0    0  0.53898894837E+02  0.21413179239E+02 -0.36509918682E+03  0.39026726666E+03  0.12509000000E+03 0.  0.
         25    1    3    3    0    0 -0.62094989053E+02  0.36860489089E+01 -0.54285465744E+03  0.56054264943E+03  0.12509000000E+03 0.  0.
<mgrwt>
<rscale>  2 0.42418012E+03</rscale>
<asrwt>0</asrwt>
<pdfrwt beam="1">  1       21 0.56584996E-02 0.42418012E+03</pdfrwt>
<pdfrwt beam="2">  1       21 0.17191807E+00 0.42418012E+03</pdfrwt>
<totfact> 0.40884255E+04</totfact>
</mgrwt>
</event>
<event>
 7    0  0.4705418E-002  0.4519091E+03  0.7546771E-02  0.1027154E+00
         21   -1    0    0  502  501  0.00000000000E+00  0.00000000000E+00  0.28105852531E+03  0.28105852531E+03  0.00000000000E+00 0. -1.
         21   -1    0    0  501  502 -0.00000000000E+00 -0.00000000000E+00 -0.18165422263E+03  0.18165422263E+03  0.00000000000E+00 0. -1.
      99926    2    1    2    0    0  0.35527136788E-14  0.14210854715E-13  0.99404302683E+02  0.46271274793E+03  0.45190914099E+03 0.  0.
      99925    2    3    3    0    0 -0.26077815663E+02  0.79578356703E+02  0.13624892432E+03  0.30773597042E+03  0.26291612881E+03 0.  0.
         25    1    4    4    0    0 -0.41350394046E+02  0.10497390338E+02  0.62223653325E+02  0.14607991452E+03  0.12509000000E+03 0.  0.
         25    1    3    3    0    0  0.26077815663E+02 -0.79578356703E+02 -0.36844621637E+02  0.15497677751E+03  0.12509000000E+03 0.  0.
         25    1    4    4    0    0  0.15272578383E+02  0.69080966365E+02  0.74025270995E+02  0.16165605590E+03  0.12509000000E+03 0.  0.
<mgrwt>
<rscale>  2 0.45190914E+03</rscale>
<asrwt>0</asrwt>
<pdfrwt beam="1">  1       21 0.41332136E-01 0.45190914E+03</pdfrwt>
<pdfrwt beam="2">  1       21 0.26713856E-01 0.45190914E+03</pdfrwt>
<totfact> 0.69674639E+04</totfact>
</mgrwt>
</event>
<event>
 7    0  0.4705418E-002  0.4611120E+03  0.7546771E-02  0.1024459E+00
         21   -1    0    0  502  501  0.00000000000E+00  0.00000000000E+00  0.43394311925E+02  0.43394311925E+02  0.00000000000E+00 0.  1.
         21   -1    0    0  501  502 -0.00000000000E+00 -0.00000000000E+00 -0.12249549337E+04  0.12249549337E+04  0.00000000000E+00 0.  1.
      99926    2    1    2    0    0 -0.35527136788E-14  0.00000000000E+00 -0.11815606218E+04  0.12683492457E+04  0.46111203189E+03 0.  0.
      99925    2    3    3    0    0  0.29220013955E+02  0.99356685035E+02 -0.89959183967E+03  0.94295800073E+03  0.26301854129E+03 0.  0.
         25    1    4    4    0    0  0.11844120733E+02  0.34300061911E+02 -0.30529826002E+03  0.33192064280E+03  0.12509000000E+03 0.  0.
         25    1    3    3    0    0 -0.29220013955E+02 -0.99356685035E+02 -0.28196878215E+03  0.32539124494E+03  0.12509000000E+03 0.  0.
         25    1    4    4    0    0  0.17375893222E+02  0.65056623124E+02 -0.59429357965E+03  0.61103735793E+03  0.12509000000E+03 0.  0.
<mgrwt>
<rscale>  2 0.46111203E+03</rscale>
<asrwt>0</asrwt>
<pdfrwt beam="1">  1       21 0.63815161E-02 0.46111203E+03</pdfrwt>
<pdfrwt beam="2">  1       21 0.18014044E+00 0.46111203E+03</pdfrwt>
<totfact> 0.28660089E+04</totfact>
</mgrwt>
</event>
<event>
 7    0  0.4705418E-002  0.4555829E+03  0.7546771E-02  0.1026070E+00
         21   -1    0    0  502  501  0.00000000000E+00  0.00000000000E+00  0.29372653423E+02  0.29372653423E+02  0.00000000000E+00 0.  1.
         21   -1    0    0  501  502 -0.00000000000E+00 -0.00000000000E+00 -0.17665731509E+04  0.17665731509E+04  0.00000000000E+00 0.  1.
      99926    2    1    2    0    0  0.00000000000E+00  0.00000000000E+00 -0.17372004975E+04  0.17959458043E+04  0.45558288339E+03 0.  0.
      99925    2    3    3    0    0 -0.55150384821E+02  0.87763303021E+02 -0.12765361654E+04  0.13074756443E+04  0.26306656289E+03 0.  0.
         25    1    3    3    0    0  0.55150384821E+02 -0.87763303021E+02 -0.46066433205E+03  0.48847016002E+03  0.12509000000E+03 0.  0.
         25    1    4    4    0    0 -0.65863701242E+02  0.62597864798E+02 -0.71519054046E+03  0.73171137553E+03  0.12509000000E+03 0.  0.
         25    1    4    4    0    0  0.10713316421E+02  0.25165438223E+02 -0.56134562498E+03  0.57576426879E+03  0.12509000000E+03 0.  0.
<mgrwt>
<rscale>  2 0.45558288E+03</rscale>
<asrwt>0</asrwt>
<pdfrwt beam="1">  1       21 0.43195071E-02 0.45558288E+03</pdfrwt>
<pdfrwt beam="2">  1       21 0.25979022E+00 0.45558288E+03</pdfrwt>
<totfact> 0.17259235E+04</totfact>
</mgrwt>
</event>
<event>
 7    0  0.4705418E-002  0.4293251E+03  0.7546771E-02  0.1034073E+00
         21   -1    0    0  502  501  0.00000000000E+00  0.00000000000E+00  0.22720519367E+03  0.22720519367E+03  0.00000000000E+00 0. -1.
         21   -1    0    0  501  502 -0.00000000000E+00 -0.00000000000E+00 -0.20281226901E+03  0.20281226901E+03  0.00000000000E+00 0. -1.
      99926    2    1    2    0    0  0.71054273576E-14  0.00000000000E+00  0.24392924668E+02  0.43001746268E+03  0.42932505568E+03 0.  0.
      99925    2    3    3    0    0 -0.49943281978E+02 -0.67008421201E+02  0.38976492314E+02  0.27887300042E+03  0.26318534056E+03 0.  0.
         25    1    4    4    0    0  0.29469230144E+01 -0.40816145990E+02 -0.10364725675E+02  0.13202112621E+03  0.12509000000E+03 0.  0.
         25    1    3    3    0    0  0.49943281978E+02  0.67008421201E+02 -0.14583567645E+02  0.15114446226E+03  0.12509000000E+03 0.  0.
         25    1    4    4    0    0 -0.52890204993E+02 -0.26192275210E+02  0.49341217988E+02  0.14685187420E+03  0.12509000000E+03 0.  0.
<mgrwt>
<rscale>  2 0.42932506E+03</rscale>
<asrwt>0</asrwt>
<pdfrwt beam="1">  1       21 0.33412529E-01 0.42932506E+03</pdfrwt>
<pdfrwt beam="2">  1       21 0.29825333E-01 0.42932506E+03</pdfrwt>
<totfact> 0.86899738E+04</totfact>
</mgrwt>
</event>
<event>
 7    0  0.4705418E-002  0.4755734E+03  0.7546771E-02  0.1020359E+00
         21   -1    0    0  502  501  0.00000000000E+00  0.00000000000E+00  0.46804085078E+03  0.46804085078E+03  0.00000000000E+00 0. -1.
         21   -1    0    0  501  502 -0.00000000000E+00 -0.00000000000E+00 -0.12080678285E+03  0.12080678285E+03  0.00000000000E+00 0. -1.
      99926    2    1    2    0    0  0.35527136788E-14 -0.14210854715E-13  0.34723406793E+03  0.58884763364E+03  0.47557337784E+03 0.  0.
      99925    2    3    3    0    0 -0.24152221832E+02 -0.12798088153E+03  0.23624876613E+03  0.37688612493E+03  0.26318669383E+03 0.  0.
         25    1    4    4    0    0 -0.44624947126E+02 -0.88056866088E+02  0.11038424685E+03  0.19384939418E+03  0.12509000000E+03 0.  0.
         25    1    4    4    0    0  0.20472725295E+02 -0.39924015446E+02  0.12586451928E+03  0.18303673075E+03  0.12509000000E+03 0.  0.
         25    1    3    3    0    0  0.24152221832E+02  0.12798088153E+03  0.11098530180E+03  0.21196150871E+03  0.12509000000E+03 0.  0.
<mgrwt>
<rscale>  2 0.47557338E+03</rscale>
<asrwt>0</asrwt>
<pdfrwt beam="1">  1       21 0.68829536E-01 0.47557338E+03</pdfrwt>
<pdfrwt beam="2">  1       21 0.17765703E-01 0.47557338E+03</pdfrwt>
<totfact> 0.50621707E+04</totfact>
</mgrwt>
</event>
<event>
 7    0  0.4705418E-002  0.4418075E+03  0.7546771E-02  0.1030194E+00
         21   -1    0    0  502  501  0.00000000000E+00  0.00000000000E+00  0.11730595807E+03  0.11730595807E+03  0.00000000000E+00 0. -1.
         21   -1    0    0  501  502 -0.00000000000E+00 -0.00000000000E+00 -0.41599306777E+03  0.41599306777E+03  0.00000000000E+00 0. -1.
      99926    2    1    2    0    0  0.35527136788E-14 -0.14210854715E-13 -0.29868710970E+03  0.53329902585E+03  0.44180749368E+03 0.  0.
      99925    2    3    3    0    0 -0.22164780332E+02  0.92934383520E+02 -0.15449826319E+03  0.31983706510E+03  0.26324505267E+03 0.  0.
         25    1    3    3    0    0  0.22164780332E+02 -0.92934383520E+02 -0.14418884651E+03  0.21346196075E+03  0.12509000000E+03 0.  0.
         25    1    4    4    0    0 -0.32807991374E+02  0.13746365081E+02 -0.55350419179E+02  0.14133826040E+03  0.12509000000E+03 0.  0.
         25    1    4    4    0    0  0.10643211042E+02  0.79188018440E+02 -0.99147844006E+02  0.17849880469E+03  0.12509000000E+03 0.  0.
<mgrwt>
<rscale>  2 0.44180749E+03</rscale>
<asrwt>0</asrwt>
<pdfrwt beam="1">  1       21 0.17250876E-01 0.44180749E+03</pdfrwt>
<pdfrwt beam="2">  1       21 0.61175452E-01 0.44180749E+03</pdfrwt>
<totfact> 0.70013182E+04</totfact>
</mgrwt>
</event>
<event>
 7    0  0.4705418E-002  0.4618343E+03  0.7546771E-02  0.1024251E+00
         21   -1    0    0  502  501  0.00000000000E+00  0.00000000000E+00  0.74099461806E+02  0.74099461806E+02  0.00000000000E+00 0. -1.
         21   -1    0    0  501  502 -0.00000000000E+00 -0.00000000000E+00 -0.71961014074E+03  0.71961014074E+03  0.00000000000E+00 0. -1.
      99926    2    1    2    0    0  0.00000000000E+00  0.00000000000E+00 -0.64551067894E+03  0.79370960255E+03  0.46183427391E+03 0.  0.
      99925    2    3    3    0    0  0.67064609577E+02 -0.35148562051E+02 -0.24642971467E+03  0.36868465338E+03  0.26356723259E+03 0.  0.
         25    1    4    4    0    0  0.12491318422E+02 -0.47967938538E+02 -0.14740420496E+03  0.19958072027E+03  0.12509000000E+03 0.  0.
         25    1    4    4    0    0  0.54573291156E+02  0.12819376487E+02 -0.99025509706E+02  0.16910393311E+03  0.12509000000E+03 0.  0.
         25    1    3    3    0    0 -0.67064609577E+02  0.35148562051E+02 -0.39908096427E+03  0.42502494917E+03  0.12509000000E+03 0.  0.
<mgrwt>
<rscale>  2 0.46183427E+03</rscale>
<asrwt>0</asrwt>
<pdfrwt beam="1">  1       21 0.10896980E-01 0.46183427E+03</pdfrwt>
<pdfrwt beam="2">  1       21 0.10582502E+00 0.46183427E+03</pdfrwt>
<totfact> 0.45576419E+04</totfact>
</mgrwt>
</event>
<event>
 7    0  0.4705418E-002  0.4570821E+03  0.7546771E-02  0.1025631E+00
         21   -1    0    0  502  501  0.00000000000E+00  0.00000000000E+00  0.13727474358E+04  0.13727474358E+04  0.00000000000E+00 0. -1.
         21   -1    0    0  501  502 -0.00000000000E+00 -0.00000000000E+00 -0.38048514792E+02  0.38048514792E+02  0.00000000000E+00 0. -1.
      99926    2    1    2    0    0 -0.14210854715E-13  0.71054273576E-14  0.13346989210E+04  0.14107959506E+04  0.45708205441E+03 0.  0.
      99925    2    3    3    0    0  0.70922253139E+02 -0.60496414383E+02  0.63040101339E+03  0.68942722870E+03  0.26308683709E+03 0.  0.
         25    1    4    4    0    0  0.68333742657E+02 -0.68021408451E+01  0.33751868146E+03  0.36644527277E+03  0.12509000000E+03 0.  0.
         25    1    4    4    0    0  0.25885104818E+01 -0.53694273538E+02  0.29288233193E+03  0.32298195593E+03  0.12509000000E+03 0.  0.
         25    1    3    3    0    0 -0.70922253139E+02  0.60496414383E+02  0.70429790761E+03  0.72136872188E+03  0.12509000000E+03 0.  0.
<mgrwt>
<rscale>  2 0.45708205E+03</rscale>
<asrwt>0</asrwt>
<pdfrwt beam="1">  1       21 0.20187459E+00 0.45708205E+03</pdfrwt>
<pdfrwt beam="2">  1       21 0.55953708E-02 0.45708205E+03</pdfrwt>
<totfact> 0.25628569E+04</totfact>
</mgrwt>
</event>
<event>
 7    0  0.4705418E-002  0.4351711E+03  0.7546771E-02  0.1032239E+00
         21   -1    0    0  502  501  0.00000000000E+00  0.00000000000E+00  0.36770279148E+03  0.36770279148E+03  0.00000000000E+00 0. -1.
         21   -1    0    0  501  502 -0.00000000000E+00 -0.00000000000E+00 -0.12875474976E+03  0.12875474976E+03  0.00000000000E+00 0. -1.
      99926    2    1    2    0    0  0.00000000000E+00  0.71054273576E-14  0.23894804172E+03  0.49645754124E+03  0.43517114290E+03 0.  0.
      99925    2    3    3    0    0 -0.85165846419E+02 -0.35640525827E+02  0.13678572778E+03  0.31042497697E+03  0.26292558363E+03 0.  0.
         25    1    3    3    0    0  0.85165846419E+02  0.35640525827E+02  0.10216231395E+03  0.18603256427E+03  0.12509000000E+03 0.  0.
         25    1    4    4    0    0 -0.41972437793E+02  0.22517549058E+02  0.59082908876E+02  0.14631139317E+03  0.12509000000E+03 0.  0.
         25    1    4    4    0    0 -0.43193408626E+02 -0.58158074885E+02  0.77702818899E+02  0.16411358380E+03  0.12509000000E+03 0.  0.
<mgrwt>
<rscale>  2 0.43517114E+03</rscale>
<asrwt>0</asrwt>
<pdfrwt beam="1">  1       21 0.54073939E-01 0.43517114E+03</pdfrwt>
<pdfrwt beam="2">  1       21 0.18934522E-01 0.43517114E+03</pdfrwt>
<totfact> 0.76933102E+04</totfact>
</mgrwt>
</event>
<event>
 7    0  0.4705418E-002  0.4523463E+03  0.7546771E-02  0.1027025E+00
         21   -1    0    0  502  501  0.00000000000E+00  0.00000000000E+00  0.18093229672E+04  0.18093229672E+04  0.00000000000E+00 0. -1.
         21   -1    0    0  501  502 -0.00000000000E+00 -0.00000000000E+00 -0.28272613213E+02  0.28272613213E+02  0.00000000000E+00 0. -1.
      99926    2    1    2    0    0  0.00000000000E+00  0.00000000000E+00  0.17810503540E+04  0.18375955804E+04  0.45234627634E+03 0.  0.
      99925    2    3    3    0    0  0.60370438617E+02  0.68976177210E+02  0.13753051315E+04  0.14032236240E+04  0.26300196050E+03 0.  0.
         25    1    3    3    0    0 -0.60370438617E+02 -0.68976177210E+02  0.40574522246E+03  0.43437195643E+03  0.12509000000E+03 0.  0.
         25    1    4    4    0    0  0.44817652081E+02  0.31667540277E+02  0.50940753133E+03  0.52740401602E+03  0.12509000000E+03 0.  0.
         25    1    4    4    0    0  0.15552786535E+02  0.37308636933E+02  0.86589760021E+03  0.87581960797E+03  0.12509000000E+03 0.  0.
<mgrwt>
<rscale>  2 0.45234628E+03</rscale>
<asrwt>0</asrwt>
<pdfrwt beam="1">  1       21 0.26607683E+00 0.45234628E+03</pdfrwt>
<pdfrwt beam="2">  1       21 0.41577385E-02 0.45234628E+03</pdfrwt>
<totfact> 0.16893130E+04</totfact>
</mgrwt>
</event>
<event>
 7    0  0.4705418E-002  0.4547592E+03  0.7546771E-02  0.1026312E+00
         21   -1    0    0  502  501  0.00000000000E+00  0.00000000000E+00  0.32744871717E+03  0.32744871717E+03  0.00000000000E+00 0.  1.
         21   -1    0    0  501  502 -0.00000000000E+00 -0.00000000000E+00 -0.15789181304E+03  0.15789181304E+03  0.00000000000E+00 0.  1.
      99926    2    1    2    0    0  0.71054273576E-14  0.00000000000E+00  0.16955690413E+03  0.48534053020E+03  0.45475915221E+03 0.  0.
      99925    2    3    3    0    0  0.43379414230E+02 -0.75042586784E+02  0.18401922310E+03  0.33246858974E+03  0.26298122610E+03 0.  0.
         25    1    4    4    0    0 -0.16625011664E+02 -0.37471956938E+02  0.70593599272E+02  0.14937035492E+03  0.12509000000E+03 0.  0.
         25    1    3    3    0    0 -0.43379414230E+02  0.75042586784E+02 -0.14462318973E+02  0.15287194046E+03  0.12509000000E+03 0.  0.
         25    1    4    4    0    0  0.60004425894E+02 -0.37570629847E+02  0.11342562383E+03  0.18309823482E+03  0.12509000000E+03 0.  0.
<mgrwt>
<rscale>  2 0.45475915E+03</rscale>
<asrwt>0</asrwt>
<pdfrwt beam="1">  1       21 0.48154223E-01 0.45475915E+03</pdfrwt>
<pdfrwt beam="2">  1       21 0.23219384E-01 0.45475915E+03</pdfrwt>
<totfact> 0.66440299E+04</totfact>
</mgrwt>
</event>
<event>
 7    0  0.4705418E-002  0.4515100E+03  0.7546771E-02  0.1027273E+00
         21   -1    0    0  502  501  0.00000000000E+00  0.00000000000E+00  0.13322019676E+04  0.13322019676E+04  0.00000000000E+00 0. -1.
         21   -1    0    0  501  502 -0.00000000000E+00 -0.00000000000E+00 -0.38256445588E+02  0.38256445588E+02  0.00000000000E+00 0. -1.
      99926    2    1    2    0    0  0.00000000000E+00  0.00000000000E+00  0.12939455220E+04  0.13704584132E+04  0.45150996484E+03 0.  0.
      99925    2    3    3    0    0  0.10538928817E+03 -0.16016427304E+02  0.89814198000E+03  0.94188942228E+03  0.26293200557E+03 0.  0.
         25    1    4    4    0    0  0.20977296421E+02  0.18972072013E+02  0.37746717831E+03  0.39865895862E+03  0.12509000000E+03 0.  0.
         25    1    3    3    0    0 -0.10538928817E+03  0.16016427304E+02  0.39580354203E+03  0.42856899094E+03  0.12509000000E+03 0.  0.
         25    1    4    4    0    0  0.84411991750E+02 -0.34988499316E+02  0.52067480169E+03  0.54323046366E+03  0.12509000000E+03 0.  0.
<mgrwt>
<rscale>  2 0.45150996E+03</rscale>
<asrwt>0</asrwt>
<pdfrwt beam="1">  1       21 0.19591202E+00 0.45150996E+03</pdfrwt>
<pdfrwt beam="2">  1       21 0.56259487E-02 0.45150996E+03</pdfrwt>
<totfact> 0.27878592E+04</totfact>
</mgrwt>
</event>
<event>
 7    0  0.4705418E-002  0.4547879E+03  0.7546771E-02  0.1026304E+00
         21   -1    0    0  502  501  0.00000000000E+00  0.00000000000E+00  0.34255537126E+02  0.34255537126E+02  0.00000000000E+00 0. -1.
         21   -1    0    0  501  502 -0.00000000000E+00 -0.00000000000E+00 -0.15094787948E+04  0.15094787948E+04  0.00000000000E+00 0. -1.
      99926    2    1    2    0    0  0.17763568394E-14 -0.35527136788E-14 -0.14752232576E+04  0.15437343319E+04  0.45478789295E+03 0.  0.
      99925    2    3    3    0    0 -0.12009586274E+02  0.20494164863E+02 -0.13034569125E+04  0.13299226709E+04  0.26292612434E+03 0.  0.
         25    1    4    4    0    0 -0.11116694347E+02 -0.25805670996E+02 -0.54955192483E+03  0.56430872733E+03  0.12509000000E+03 0.  0.
         25    1    3    3    0    0  0.12009586274E+02 -0.20494164863E+02 -0.17176634514E+03  0.21381166100E+03  0.12509000000E+03 0.  0.
         25    1    4    4    0    0 -0.89289192768E+00  0.46299835859E+02 -0.75390498766E+03  0.76561394356E+03  0.12509000000E+03 0.  0.
<mgrwt>
<rscale>  2 0.45478789E+03</rscale>
<asrwt>0</asrwt>
<pdfrwt beam="1">  1       21 0.50375801E-02 0.45478789E+03</pdfrwt>
<pdfrwt beam="2">  1       21 0.22198213E+00 0.45478789E+03</pdfrwt>
<totfact> 0.22764835E+04</totfact>
</mgrwt>
</event>
<event>
 7    0  0.4705418E-002  0.4566983E+03  0.7546771E-02  0.1025743E+00
         21   -1    0    0  502  501  0.00000000000E+00  0.00000000000E+00  0.41043635797E+02  0.41043635797E+02  0.00000000000E+00 0. -1.
         21   -1    0    0  501  502 -0.00000000000E+00 -0.00000000000E+00 -0.12704365598E+04  0.12704365598E+04  0.00000000000E+00 0. -1.
      99926    2    1    2    0    0  0.00000000000E+00  0.00000000000E+00 -0.12293929240E+04  0.13114801956E+04  0.45669830507E+03 0.  0.
      99925    2    3    3    0    0 -0.26843906308E+02  0.10421818448E+03 -0.65861153305E+03  0.71732455131E+03  0.26306526787E+03 0.  0.
         25    1    4    4    0    0  0.53108010333E+01  0.34077236721E+02 -0.22820326502E+03  0.26251419187E+03  0.12509000000E+03 0.  0.
         25    1    3    3    0    0  0.26843906308E+02 -0.10421818448E+03 -0.57078139091E+03  0.59415564425E+03  0.12509000000E+03 0.  0.
         25    1    4    4    0    0 -0.32154707341E+02  0.70140947762E+02 -0.43040826804E+03  0.45481035944E+03  0.12509000000E+03 0.  0.
<mgrwt>
<rscale>  2 0.45669831E+03</rscale>
<asrwt>0</asrwt>
<pdfrwt beam="1">  1       21 0.60358294E-02 0.45669831E+03</pdfrwt>
<pdfrwt beam="2">  1       21 0.18682889E+00 0.45669831E+03</pdfrwt>
<totfact> 0.28406084E+04</totfact>
</mgrwt>
</event>
<event>
 7    0  0.4705418E-002  0.4652176E+03  0.7546771E-02  0.1023279E+00
         21   -1    0    0  502  501  0.00000000000E+00  0.00000000000E+00  0.60839653594E+02  0.60839653594E+02  0.00000000000E+00 0. -1.
         21   -1    0    0  501  502 -0.00000000000E+00 -0.00000000000E+00 -0.88933549957E+03  0.88933549957E+03  0.00000000000E+00 0. -1.
      99926    2    1    2    0    0  0.00000000000E+00  0.14210854715E-13 -0.82849584598E+03  0.95017515316E+03  0.46521764250E+03 0.  0.
      99925    2    3    3    0    0  0.90456007818E+02 -0.67230397195E+02 -0.61465337148E+03  0.67800181197E+03  0.26303131811E+03 0.  0.
         25    1    4    4    0    0  0.28329048358E+02 -0.44019658066E+01 -0.22029577753E+03  0.25495028924E+03  0.12509000000E+03 0.  0.
         25    1    4    4    0    0  0.62126959460E+02 -0.62828431389E+02 -0.39435759395E+03  0.42305152273E+03  0.12509000000E+03 0.  0.
         25    1    3    3    0    0 -0.90456007818E+02  0.67230397195E+02 -0.21384247450E+03  0.27217334119E+03  0.12509000000E+03 0.  0.
<mgrwt>
<rscale>  2 0.46521764E+03</rscale>
<asrwt>0</asrwt>
<pdfrwt beam="1">  1       21 0.89470090E-02 0.46521764E+03</pdfrwt>
<pdfrwt beam="2">  1       21 0.13078462E+00 0.46521764E+03</pdfrwt>
<totfact> 0.38004752E+04</totfact>
</mgrwt>
</event>
<event>
 7    0  0.4705418E-002  0.4584395E+03  0.7546771E-02  0.1025235E+00
         21   -1    0    0  502  501  0.00000000000E+00  0.00000000000E+00  0.77118421006E+03  0.77118421006E+03  0.00000000000E+00 0.  1.
         21   -1    0    0  501  502 -0.00000000000E+00 -0.00000000000E+00 -0.68131176985E+02  0.68131176985E+02  0.00000000000E+00 0.  1.
      99926    2    1    2    0    0  0.14210854715E-13  0.26645352591E-14  0.70305303308E+03  0.83931538705E+03  0.45843947432E+03 0.  0.
      99925    2    3    3    0    0  0.99150075352E+02 -0.60734540525E+01  0.33040769575E+03  0.43387774718E+03  0.26308369353E+03 0.  0.
         25    1    4    4    0    0  0.34236625166E+02  0.30123568895E+02  0.12880001913E+03  0.18524721033E+03  0.12509000000E+03 0.  0.
         25    1    4    4    0    0  0.64913450186E+02 -0.36197022948E+02  0.20160767662E+03  0.24863053685E+03  0.12509000000E+03 0.  0.
         25    1    3    3    0    0 -0.99150075352E+02  0.60734540525E+01  0.37264533733E+03  0.40543763987E+03  0.12509000000E+03 0.  0.
<mgrwt>
<rscale>  2 0.45843947E+03</rscale>
<asrwt>0</asrwt>
<pdfrwt beam="1">  1       21 0.11340944E+00 0.45843947E+03</pdfrwt>
<pdfrwt beam="2">  1       21 0.10019291E-01 0.45843947E+03</pdfrwt>
<totfact> 0.44702654E+04</totfact>
</mgrwt>
</event>
<event>
 7    0  0.4705418E-002  0.4723706E+03  0.7546771E-02  0.1021253E+00
         21   -1    0    0  502  501  0.00000000000E+00  0.00000000000E+00  0.95512054866E+03  0.95512054866E+03  0.00000000000E+00 0. -1.
         21   -1    0    0  501  502 -0.00000000000E+00 -0.00000000000E+00 -0.58404667397E+02  0.58404667397E+02  0.00000000000E+00 0. -1.
      99926    2    1    2    0    0  0.71054273576E-14  0.14210854715E-13  0.89671588126E+03  0.10135252161E+04  0.47237060861E+03 0.  0.
      99925    2    3    3    0    0 -0.63964500154E+02 -0.66484890226E+02  0.36395912081E+03  0.45855767483E+03  0.26324361648E+03 0.  0.
         25    1    4    4    0    0 -0.56557018567E+02 -0.61697496578E+02  0.16459678485E+03  0.22303561849E+03  0.12509000000E+03 0.  0.
         25    1    3    3    0    0  0.63964500154E+02  0.66484890226E+02  0.53275676046E+03  0.55496754123E+03  0.12509000000E+03 0.  0.
         25    1    4    4    0    0 -0.74074815870E+01 -0.47873936482E+01  0.19936233596E+03  0.23552205634E+03  0.12509000000E+03 0.  0.
<mgrwt>
<rscale>  2 0.47237061E+03</rscale>
<asrwt>0</asrwt>
<pdfrwt beam="1">  1       21 0.14045889E+00 0.47237061E+03</pdfrwt>
<pdfrwt beam="2">  1       21 0.85889223E-02 0.47237061E+03</pdfrwt>
<totfact> 0.33819259E+04</totfact>
</mgrwt>
</event>
<event>
 6    0  0.4705418E-002  0.4545110E+03  0.7546771E-02  0.1026385E+00
         21   -1    0    0  502  501  0.00000000000E+00  0.00000000000E+00  0.58068195855E+03  0.58068195855E+03  0.00000000000E+00 0. -1.
         21   -1    0    0  501  502 -0.00000000000E+00 -0.00000000000E+00 -0.88938654187E+02  0.88938654187E+02  0.00000000000E+00 0. -1.
      99926    2    1    2    0    0 -0.35527136788E-14  0.00000000000E+00  0.49174330436E+03  0.66962061274E+03  0.45451104235E+03 0.  0.
         25    1    3    3    0    0  0.30990850821E+01 -0.15527316751E+02  0.27349775688E+03  0.30116313355E+03  0.12509000000E+03 0.  0.
         25    1    3    3    0    0 -0.27319078946E+02 -0.44336235909E+02  0.39907182913E+02  0.14125199198E+03  0.12509000000E+03 0.  0.
         25    1    3    3    0    0  0.24219993864E+02  0.59863552660E+02  0.17833836457E+03  0.22720548721E+03  0.12509000000E+03 0.  0.
<mgrwt>
<rscale>  2 0.45451104E+03</rscale>
<asrwt>0</asrwt>
<pdfrwt beam="1">  1       21 0.85394404E-01 0.45451104E+03</pdfrwt>
<pdfrwt beam="2">  1       21 0.13079214E-01 0.45451104E+03</pdfrwt>
<totfact> 0.54794552E+04</totfact>
</mgrwt>
</event>
<event>
 7    0  0.4705418E-002  0.4566166E+03  0.7546771E-02  0.1025767E+00
         21   -1    0    0  502  501  0.00000000000E+00  0.00000000000E+00  0.12921297848E+03  0.12921297848E+03  0.00000000000E+00 0.  1.
         21   -1    0    0  501  502 -0.00000000000E+00 -0.00000000000E+00 -0.40340131931E+03  0.40340131931E+03  0.00000000000E+00 0.  1.
      99926    2    1    2    0    0  0.00000000000E+00  0.00000000000E+00 -0.27418834083E+03  0.53261429780E+03  0.45661662691E+03 0.  0.
      99925    2    3    3    0    0  0.72600267955E+02  0.74090314157E+02 -0.11519365709E+03  0.30526656608E+03  0.26297894245E+03 0.  0.
         25    1    4    4    0    0  0.14475032448E+02  0.49667555802E+02 -0.22316304230E+02  0.13719299617E+03  0.12509000000E+03 0.  0.
         25    1    4    4    0    0  0.58125235507E+02  0.24422758355E+02 -0.92877352861E+02  0.16807356991E+03  0.12509000000E+03 0.  0.
         25    1    3    3    0    0 -0.72600267955E+02 -0.74090314157E+02 -0.15899468374E+03  0.22734773171E+03  0.12509000000E+03 0.  0.
<mgrwt>
<rscale>  2 0.45661663E+03</rscale>
<asrwt>0</asrwt>
<pdfrwt beam="1">  1       21 0.19001909E-01 0.45661663E+03</pdfrwt>
<pdfrwt beam="2">  1       21 0.59323723E-01 0.45661663E+03</pdfrwt>
<totfact> 0.62228729E+04</totfact>
</mgrwt>
</event>
<event>
 7    0  0.4705418E-002  0.4492510E+03  0.7546771E-02  0.1027946E+00
         21   -1    0    0  502  501  0.00000000000E+00  0.00000000000E+00  0.10539619952E+04  0.10539619952E+04  0.00000000000E+00 0. -1.
         21   -1    0    0  501  502 -0.00000000000E+00 -0.00000000000E+00 -0.47873276405E+02  0.47873276405E+02  0.00000000000E+00 0. -1.
      99926    2    1    2    0    0 -0.71054273576E-14  0.14210854715E-13  0.10060887188E+04  0.11018352716E+04  0.44925099406E+03 0.  0.
      99925    2    3    3    0    0 -0.59956801084E+02  0.89320297629E+02  0.64604904231E+03  0.70579359411E+03  0.26304429067E+03 0.  0.
         25    1    4    4    0    0 -0.34947798846E+02  0.26591034560E+02  0.40275617779E+03  0.42401471509E+03  0.12509000000E+03 0.  0.
         25    1    3    3    0    0  0.59956801084E+02 -0.89320297629E+02  0.36003967645E+03  0.39604167746E+03  0.12509000000E+03 0.  0.
         25    1    4    4    0    0 -0.25009002237E+02  0.62729263069E+02  0.24329286452E+03  0.28177887902E+03  0.12509000000E+03 0.  0.
<mgrwt>
<rscale>  2 0.44925099E+03</rscale>
<asrwt>0</asrwt>
<pdfrwt beam="1">  1       21 0.15499440E+00 0.44925099E+03</pdfrwt>
<pdfrwt beam="2">  1       21 0.70401884E-02 0.44925099E+03</pdfrwt>
<totfact> 0.37065196E+04</totfact>
</mgrwt>
</event>
<event>
 7    0  0.4705418E-002  0.4575424E+03  0.7546771E-02  0.1025496E+00
         21   -1    0    0  502  501  0.00000000000E+00  0.00000000000E+00  0.77169897466E+02  0.77169897466E+02  0.00000000000E+00 0. -1.
         21   -1    0    0  501  502 -0.00000000000E+00 -0.00000000000E+00 -0.67819541992E+03  0.67819541992E+03  0.00000000000E+00 0. -1.
      99926    2    1    2    0    0  0.00000000000E+00 -0.14210854715E-13 -0.60102552245E+03  0.75536531739E+03  0.45754243964E+03 0.  0.
      99925    2    3    3    0    0 -0.39205309056E+02  0.49748785972E+02 -0.21781543806E+03  0.34730959221E+03  0.26299883996E+03 0.  0.
         25    1    4    4    0    0 -0.27152757117E+02 -0.15468061956E+02 -0.10346336294E+03  0.16531397016E+03  0.12509000000E+03 0.  0.
         25    1    4    4    0    0 -0.12052551939E+02  0.65216847928E+02 -0.11435207511E+03  0.18199562205E+03  0.12509000000E+03 0.  0.
         25    1    3    3    0    0  0.39205309056E+02 -0.49748785972E+02 -0.38321008440E+03  0.40805572517E+03  0.12509000000E+03 0.  0.
<mgrwt>
<rscale>  2 0.45754244E+03</rscale>
<asrwt>0</asrwt>
<pdfrwt beam="1">  1       21 0.11348514E-01 0.45754244E+03</pdfrwt>
<pdfrwt beam="2">  1       21 0.99734626E-01 0.45754244E+03</pdfrwt>
<totfact> 0.49011376E+04</totfact>
</mgrwt>
</event>
<event>
 7    0  0.4705418E-002  0.4485698E+03  0.7546771E-02  0.1028149E+00
         21   -1    0    0  502  501  0.00000000000E+00  0.00000000000E+00  0.19913894029E+02  0.19913894029E+02  0.00000000000E+00 0.  1.
         21   -1    0    0  501  502 -0.00000000000E+00 -0.00000000000E+00 -0.25260610647E+04  0.25260610647E+04  0.00000000000E+00 0.  1.
      99926    2    1    2    0    0  0.35527136788E-14  0.28421709430E-13 -0.25061471707E+04  0.25459749587E+04  0.44856978210E+03 0.  0.
      99925    2    3    3    0    0 -0.17014375737E+02 -0.10212901906E+03 -0.14321603689E+04  0.14597820735E+04  0.26298394295E+03 0.  0.
         25    1    4    4    0    0  0.82441863058E+00 -0.92320129163E+02 -0.82855946213E+03  0.84301955867E+03  0.12509000000E+03 0.  0.
         25    1    3    3    0    0  0.17014375737E+02  0.10212901906E+03 -0.10739868017E+04  0.10861928852E+04  0.12509000000E+03 0.  0.
         25    1    4    4    0    0 -0.17838794368E+02 -0.98088899012E+01 -0.60360090681E+03  0.61676251484E+03  0.12509000000E+03 0.  0.
<mgrwt>
<rscale>  2 0.44856978E+03</rscale>
<asrwt>0</asrwt>
<pdfrwt beam="1">  1       21 0.29285160E-02 0.44856978E+03</pdfrwt>
<pdfrwt beam="2">  1       21 0.37147929E+00 0.44856978E+03</pdfrwt>
<totfact> 0.70171302E+03</totfact>
</mgrwt>
</event>
<event>
 7    0  0.4705418E-002  0.4593922E+03  0.7546771E-02  0.1024958E+00
         21   -1    0    0  502  501  0.00000000000E+00  0.00000000000E+00  0.12826309159E+03  0.12826309159E+03  0.00000000000E+00 0.  1.
         21   -1    0    0  501  502 -0.00000000000E+00 -0.00000000000E+00 -0.41134431957E+03  0.41134431957E+03  0.00000000000E+00 0.  1.
      99926    2    1    2    0    0  0.14210854715E-13  0.00000000000E+00 -0.28308122798E+03  0.53960741116E+03  0.45939218163E+03 0.  0.
      99925    2    3    3    0    0  0.11164536559E+03  0.28557162443E+02 -0.20086643855E+03  0.35069743554E+03  0.26336508117E+03 0.  0.
         25    1    4    4    0    0  0.75594039612E+02  0.10936085661E+02 -0.60831926803E+02  0.15868865181E+03  0.12509000000E+03 0.  0.
         25    1    3    3    0    0 -0.11164536559E+03 -0.28557162443E+02 -0.82214789435E+02  0.18890997561E+03  0.12509000000E+03 0.  0.
         25    1    4    4    0    0  0.36051325977E+02  0.17621076783E+02 -0.14003451174E+03  0.19200878373E+03  0.12509000000E+03 0.  0.
<mgrwt>
<rscale>  2 0.45939218E+03</rscale>
<asrwt>0</asrwt>
<pdfrwt beam="1">  1       21 0.18862219E-01 0.45939218E+03</pdfrwt>
<pdfrwt beam="2">  1       21 0.60491813E-01 0.45939218E+03</pdfrwt>
<totfact> 0.60429802E+04</totfact>
</mgrwt>
</event>
<event>
 7    0  0.4705418E-002  0.4530250E+03  0.7546771E-02  0.1026824E+00
         21   -1    0    0  502  501  0.00000000000E+00  0.00000000000E+00  0.15582566066E+03  0.15582566066E+03  0.00000000000E+00 0.  1.
         21   -1    0    0  501  502 -0.00000000000E+00 -0.00000000000E+00 -0.32926483742E+03  0.32926483742E+03  0.00000000000E+00 0.  1.
      99926    2    1    2    0    0  0.00000000000E+00  0.00000000000E+00 -0.17343917676E+03  0.48509049808E+03  0.45302499191E+03 0.  0.
      99925    2    3    3    0    0  0.99823933447E+02  0.48698233903E+02 -0.10241702313E+03  0.30335445301E+03  0.26305577708E+03 0.  0.
         25    1    3    3    0    0 -0.99823933447E+02 -0.48698233903E+02 -0.71022153629E+02  0.18173604508E+03  0.12509000000E+03 0.  0.
         25    1    4    4    0    0  0.28684381921E+02  0.14746006029E+02 -0.11290990848E+02  0.12967356336E+03  0.12509000000E+03 0.  0.
         25    1    4    4    0    0  0.71139551526E+02  0.33952227873E+02 -0.91126032284E+02  0.17368088965E+03  0.12509000000E+03 0.  0.
<mgrwt>
<rscale>  2 0.45302499E+03</rscale>
<asrwt>0</asrwt>
<pdfrwt beam="1">  1       21 0.22915539E-01 0.45302499E+03</pdfrwt>
<pdfrwt beam="2">  1       21 0.48421299E-01 0.45302499E+03</pdfrwt>
<totfact> 0.67381646E+04</totfact>
</mgrwt>
</event>
<event>
 7    0  0.4705418E-002  0.4418872E+03  0.7546771E-02  0.1030169E+00
         21   -1    0    0  502  501  0.00000000000E+00  0.00000000000E+00  0.93801547338E+02  0.93801547338E+02  0.00000000000E+00 0. -1.
         21   -1    0    0  501  502 -0.00000000000E+00 -0.00000000000E+00 -0.52041872465E+03  0.52041872465E+03  0.00000000000E+00 0. -1.
      99926    2    1    2    0    0  0.00000000000E+00  0.00000000000E+00 -0.42661717732E+03  0.61422027199E+03  0.44188723284E+03 0.  0.
      99925    2    3    3    0    0 -0.17627990067E+02 -0.92991051709E+02 -0.23105277844E+03  0.36351920710E+03  0.26420209267E+03 0.  0.
         25    1    4    4    0    0 -0.51296550101E+02 -0.45176097478E+02 -0.11570029852E+03  0.18359270958E+03  0.12509000000E+03 0.  0.
         25    1    3    3    0    0  0.17627990067E+02  0.92991051709E+02 -0.19556439888E+03  0.25070106489E+03  0.12509000000E+03 0.  0.
         25    1    4    4    0    0  0.33668560034E+02 -0.47814954231E+02 -0.11535247992E+03  0.17992649751E+03  0.12509000000E+03 0.  0.
<mgrwt>
<rscale>  2 0.44188723E+03</rscale>
<asrwt>0</asrwt>
<pdfrwt beam="1">  1       21 0.13794345E-01 0.44188723E+03</pdfrwt>
<pdfrwt beam="2">  1       21 0.76532164E-01 0.44188723E+03</pdfrwt>
<totfact> 0.64206460E+04</totfact>
</mgrwt>
</event>
<event>
 7    0  0.4705418E-002  0.4539370E+03  0.7546771E-02  0.1026554E+00
         21   -1    0    0  502  501  0.00000000000E+00  0.00000000000E+00  0.26858138526E+03  0.26858138526E+03  0.00000000000E+00 0.  1.
         21   -1    0    0  501  502 -0.00000000000E+00 -0.00000000000E+00 -0.19180292261E+03  0.19180292261E+03  0.00000000000E+00 0.  1.
      99926    2    1    2    0    0  0.00000000000E+00  0.00000000000E+00  0.76778462648E+02  0.46038430786E+03  0.45393697646E+03 0.  0.
      99925    2    3    3    0    0 -0.68541272465E+02  0.72957265777E+02 -0.28929561720E+01  0.28145495941E+03  0.26303584608E+03 0.  0.
         25    1    3    3    0    0  0.68541272465E+02 -0.72957265777E+02  0.79671418820E+02  0.17892934845E+03  0.12509000000E+03 0.  0.
         25    1    4    4    0    0 -0.10365570188E+02  0.39588383637E+02  0.31674785383E+02  0.13537165617E+03  0.12509000000E+03 0.  0.
         25    1    4    4    0    0 -0.58175702277E+02  0.33368882140E+02 -0.34567741555E+02  0.14608330324E+03  0.12509000000E+03 0.  0.
<mgrwt>
<rscale>  2 0.45393698E+03</rscale>
<asrwt>0</asrwt>
<pdfrwt beam="1">  1       21 0.39497263E-01 0.45393698E+03</pdfrwt>
<pdfrwt beam="2">  1       21 0.28206312E-01 0.45393698E+03</pdfrwt>
<totfact> 0.68733075E+04</totfact>
</mgrwt>
</event>
<event>
 7    0  0.4705418E-002  0.4534780E+03  0.7546771E-02  0.1026690E+00
         21   -1    0    0  502  501  0.00000000000E+00  0.00000000000E+00  0.63167195609E+03  0.63167195609E+03  0.00000000000E+00 0.  1.
         21   -1    0    0  501  502 -0.00000000000E+00 -0.00000000000E+00 -0.81388103261E+02  0.81388103261E+02  0.00000000000E+00 0.  1.
      99926    2    1    2    0    0  0.35527136788E-14  0.00000000000E+00  0.55028385283E+03  0.71306005935E+03  0.45347803647E+03 0.  0.
      99925    2    3    3    0    0  0.29479302535E+02  0.36587842624E+02  0.50611629226E+03  0.57232633556E+03  0.26305138961E+03 0.  0.
         25    1    4    4    0    0  0.12008509961E+02 -0.14580729424E+02  0.19209773769E+03  0.23001271901E+03  0.12509000000E+03 0.  0.
         25    1    3    3    0    0 -0.29479302535E+02 -0.36587842624E+02  0.44167560569E+02  0.14073372379E+03  0.12509000000E+03 0.  0.
         25    1    4    4    0    0  0.17470792575E+02  0.51168572048E+02  0.31401855457E+03  0.34231361655E+03  0.12509000000E+03 0.  0.
<mgrwt>
<rscale>  2 0.45347804E+03</rscale>
<asrwt>0</asrwt>
<pdfrwt beam="1">  1       21 0.92892932E-01 0.45347804E+03</pdfrwt>
<pdfrwt beam="2">  1       21 0.11968839E-01 0.45347804E+03</pdfrwt>
<totfact> 0.52829337E+04</totfact>
</mgrwt>
</event>
<event>
 7    0  0.4705418E-002  0.4523604E+03  0.7546771E-02  0.1027020E+00
         21   -1    0    0  502  501  0.00000000000E+00  0.00000000000E+00  0.61001958353E+02  0.61001958353E+02  0.00000000000E+00 0. -1.
         21   -1    0    0  501  502 -0.00000000000E+00 -0.00000000000E+00 -0.83862019948E+03  0.83862019948E+03  0.00000000000E+00 0. -1.
      99926    2    1    2    0    0  0.71054273576E-14 -0.17763568394E-14 -0.77761824113E+03  0.89962215784E+03  0.45236036291E+03 0.  0.
      99925    2    3    3    0    0 -0.59352357196E+02  0.45412143646E+01 -0.30531679347E+03  0.40742352873E+03  0.26312024334E+03 0.  0.
         25    1    4    4    0    0 -0.54479565112E+02 -0.26565909234E+02 -0.13496034283E+03  0.19374099407E+03  0.12509000000E+03 0.  0.
         25    1    4    4    0    0 -0.48727920845E+01  0.31107123599E+02 -0.17035645064E+03  0.21368253465E+03  0.12509000000E+03 0.  0.
         25    1    3    3    0    0  0.59352357196E+02 -0.45412143646E+01 -0.47230144766E+03  0.49219862911E+03  0.12509000000E+03 0.  0.
<mgrwt>
<rscale>  2 0.45236036E+03</rscale>
<asrwt>0</asrwt>
<pdfrwt beam="1">  1       21 0.89708761E-02 0.45236036E+03</pdfrwt>
<pdfrwt beam="2">  1       21 0.12332650E+00 0.45236036E+03</pdfrwt>
<totfact> 0.44155541E+04</totfact>
</mgrwt>
</event>
<event>
 7    0  0.4705418E-002  0.4557922E+03  0.7546771E-02  0.1026009E+00
         21   -1    0    0  502  501  0.00000000000E+00  0.00000000000E+00  0.23349066416E+02  0.23349066416E+02  0.00000000000E+00 0.  1.
         21   -1    0    0  501  502 -0.00000000000E+00 -0.00000000000E+00 -0.22243556352E+04  0.22243556352E+04  0.00000000000E+00 0.  1.
      99926    2    1    2    0    0  0.00000000000E+00 -0.17763568394E-14 -0.22010065688E+04  0.22477047016E+04  0.45579217834E+03 0.  0.
      99925    2    3    3    0    0  0.99121273362E+02  0.15343920344E+02 -0.11161577981E+04  0.11510712961E+04  0.26286200892E+03 0.  0.
         25    1    4    4    0    0  0.82312332771E+01  0.15938447137E+02 -0.53080992933E+03  0.54564500958E+03  0.12509000000E+03 0.  0.
         25    1    3    3    0    0 -0.99121273362E+02 -0.15343920344E+02 -0.10848487707E+04  0.10966334056E+04  0.12509000000E+03 0.  0.
         25    1    4    4    0    0  0.90890040084E+02 -0.59452679264E+00 -0.58534786873E+03  0.60542628649E+03  0.12509000000E+03 0.  0.
<mgrwt>
<rscale>  2 0.45579218E+03</rscale>
<asrwt>0</asrwt>
<pdfrwt beam="1">  1       21 0.34336876E-02 0.45579218E+03</pdfrwt>
<pdfrwt beam="2">  1       21 0.32711099E+00 0.45579218E+03</pdfrwt>
<totfact> 0.10008981E+04</totfact>
</mgrwt>
</event>
<event>
 7    0  0.4705418E-002  0.4547726E+03  0.7546771E-02  0.1026308E+00
         21   -1    0    0  502  501  0.00000000000E+00  0.00000000000E+00  0.11985730711E+03  0.11985730711E+03  0.00000000000E+00 0.  1.
         21   -1    0    0  501  502 -0.00000000000E+00 -0.00000000000E+00 -0.43138407574E+03  0.43138407574E+03  0.00000000000E+00 0.  1.
      99926    2    1    2    0    0  0.00000000000E+00 -0.13322676296E-14 -0.31152676862E+03  0.55124138285E+03  0.45477261857E+03 0.  0.
      99925    2    3    3    0    0  0.88597670283E+02 -0.14501387887E+01 -0.11117936134E+03  0.29897517071E+03  0.26300884440E+03 0.  0.
         25    1    4    4    0    0  0.31428527807E+02  0.37131516164E+02 -0.62595245699E+02  0.14809515433E+03  0.12509000000E+03 0.  0.
         25    1    3    3    0    0 -0.88597670283E+02  0.14501387887E+01 -0.20034740728E+03  0.25226621214E+03  0.12509000000E+03 0.  0.
         25    1    4    4    0    0  0.57169142476E+02 -0.38581654953E+02 -0.48584115643E+02  0.15088001638E+03  0.12509000000E+03 0.  0.
<mgrwt>
<rscale>  2 0.45477262E+03</rscale>
<asrwt>0</asrwt>
<pdfrwt beam="1">  1       21 0.17626074E-01 0.45477262E+03</pdfrwt>
<pdfrwt beam="2">  1       21 0.63438835E-01 0.45477262E+03</pdfrwt>
<totfact> 0.61895828E+04</totfact>
</mgrwt>
</event>
<event>
 7    0  0.4705418E-002  0.4480648E+03  0.7546771E-02  0.1028301E+00
         21   -1    0    0  502  501  0.00000000000E+00  0.00000000000E+00  0.29487189684E+04  0.29487189684E+04  0.00000000000E+00 0. -1.
         21   -1    0    0  501  502 -0.00000000000E+00 -0.00000000000E+00 -0.17021126471E+02  0.17021126471E+02  0.00000000000E+00 0. -1.
      99926    2    1    2    0    0  0.35527136788E-14  0.00000000000E+00  0.29316978419E+04  0.29657400949E+04  0.44806480999E+03 0.  0.
      99925    2    3    3    0    0 -0.16230418145E+02 -0.94677261838E+02  0.15448098037E+04  0.15699130465E+04  0.26260699432E+03 0.  0.
         25    1    4    4    0    0 -0.34210062333E+02 -0.15810836915E+02  0.71372467335E+03  0.72558302652E+03  0.12509000000E+03 0.  0.
         25    1    3    3    0    0  0.16230418145E+02  0.94677261838E+02  0.13868880382E+04  0.13958270484E+04  0.12509000000E+03 0.  0.
         25    1    4    4    0    0  0.17979644188E+02 -0.78866424923E+02  0.83108513036E+03  0.84433001995E+03  0.12509000000E+03 0.  0.
<mgrwt>
<rscale>  2 0.44806481E+03</rscale>
<asrwt>0</asrwt>
<pdfrwt beam="1">  1       21 0.43363479E+00 0.44806481E+03</pdfrwt>
<pdfrwt beam="2">  1       21 0.25031089E-02 0.44806481E+03</pdfrwt>
<totfact> 0.36347550E+03</totfact>
</mgrwt>
</event>
<event>
 7    0  0.4705418E-002  0.4585988E+03  0.7546771E-02  0.1025188E+00
         21   -1    0    0  502  501  0.00000000000E+00  0.00000000000E+00  0.15805421364E+03  0.15805421364E+03  0.00000000000E+00 0.  1.
         21   -1    0    0  501  502 -0.00000000000E+00 -0.00000000000E+00 -0.33265939820E+03  0.33265939820E+03  0.00000000000E+00 0.  1.
      99926    2    1    2    0    0  0.14210854715E-13 -0.35527136788E-14 -0.17460518457E+03  0.49071361184E+03  0.45859882072E+03 0.  0.
      99925    2    3    3    0    0  0.83051758573E+02  0.24767760923E+02 -0.19293017121E+03  0.33743494464E+03  0.26292442701E+03 0.  0.
         25    1    4    4    0    0  0.27579964824E+02 -0.21362748625E+02 -0.11435786209E+03  0.17303829117E+03  0.12509000000E+03 0.  0.
         25    1    4    4    0    0  0.55471793749E+02  0.46130509548E+02 -0.78572309120E+02  0.16439665347E+03  0.12509000000E+03 0.  0.
         25    1    3    3    0    0 -0.83051758573E+02 -0.24767760923E+02  0.18324986643E+02  0.15327866720E+03  0.12509000000E+03 0.  0.
<mgrwt>
<rscale>  2 0.45859882E+03</rscale>
<asrwt>0</asrwt>
<pdfrwt beam="1">  1       21 0.23243267E-01 0.45859882E+03</pdfrwt>
<pdfrwt beam="2">  1       21 0.48920500E-01 0.45859882E+03</pdfrwt>
<totfact> 0.64077766E+04</totfact>
</mgrwt>
</event>
<event>
 7    0  0.4705418E-002  0.4520740E+03  0.7546771E-02  0.1027105E+00
         21   -1    0    0  502  501  0.00000000000E+00  0.00000000000E+00  0.56134677022E+03  0.56134677022E+03  0.00000000000E+00 0.  1.
         21   -1    0    0  501  502 -0.00000000000E+00 -0.00000000000E+00 -0.91018127264E+02  0.91018127264E+02  0.00000000000E+00 0.  1.
      99926    2    1    2    0    0  0.00000000000E+00 -0.14210854715E-13  0.47032864295E+03  0.65236489748E+03  0.45207402832E+03 0.  0.
      99925    2    3    3    0    0 -0.19102731246E+02 -0.10161272271E+03  0.35250835760E+03  0.45181767736E+03  0.26303424043E+03 0.  0.
         25    1    4    4    0    0 -0.16327143866E+02 -0.15285015477E+02  0.19639867575E+03  0.23392339614E+03  0.12509000000E+03 0.  0.
         25    1    3    3    0    0  0.19102731246E+02  0.10161272271E+03  0.11782028535E+03  0.20054722012E+03  0.12509000000E+03 0.  0.
         25    1    4    4    0    0 -0.27755873797E+01 -0.86327707234E+02  0.15610968185E+03  0.21789428122E+03  0.12509000000E+03 0.  0.
<mgrwt>
<rscale>  2 0.45207403E+03</rscale>
<asrwt>0</asrwt>
<pdfrwt beam="1">  1       21 0.82550994E-01 0.45207403E+03</pdfrwt>
<pdfrwt beam="2">  1       21 0.13385019E-01 0.45207403E+03</pdfrwt>
<totfact> 0.56866644E+04</totfact>
</mgrwt>
</event>
<event>
 7    0  0.4705418E-002  0.4568068E+03  0.7546771E-02  0.1025711E+00
         21   -1    0    0  502  501  0.00000000000E+00  0.00000000000E+00  0.78500399832E+03  0.78500399832E+03  0.00000000000E+00 0. -1.
         21   -1    0    0  501  502 -0.00000000000E+00 -0.00000000000E+00 -0.66455868790E+02  0.66455868790E+02  0.00000000000E+00 0. -1.
      99926    2    1    2    0    0  0.00000000000E+00  0.00000000000E+00  0.71854812953E+03  0.85145986711E+03  0.45680684194E+03 0.  0.
      99925    2    3    3    0    0 -0.68003696435E+02  0.40216636307E+02  0.60642002694E+03  0.66582016216E+03  0.26330468795E+03 0.  0.
         25    1    4    4    0    0 -0.55581413756E+02 -0.73393894888E+00  0.24018422635E+03  0.27645217110E+03  0.12509000000E+03 0.  0.
         25    1    4    4    0    0 -0.12422282678E+02  0.40950575256E+02  0.36623580059E+03  0.38936799105E+03  0.12509000000E+03 0.  0.
         25    1    3    3    0    0  0.68003696435E+02 -0.40216636307E+02  0.11212810259E+03  0.18563970495E+03  0.12509000000E+03 0.  0.
<mgrwt>
<rscale>  2 0.45680684E+03</rscale>
<asrwt>0</asrwt>
<pdfrwt beam="1">  1       21 0.11544176E+00 0.45680684E+03</pdfrwt>
<pdfrwt beam="2">  1       21 0.97729223E-02 0.45680684E+03</pdfrwt>
<totfact> 0.44736680E+04</totfact>
</mgrwt>
</event>
<event>
 7    0  0.4705418E-002  0.4596263E+03  0.7546771E-02  0.1024890E+00
         21   -1    0    0  502  501  0.00000000000E+00  0.00000000000E+00  0.15634431495E+03  0.15634431495E+03  0.00000000000E+00 0.  1.
         21   -1    0    0  501  502 -0.00000000000E+00 -0.00000000000E+00 -0.33780626313E+03  0.33780626313E+03  0.00000000000E+00 0.  1.
      99926    2    1    2    0    0 -0.31086244690E-14  0.00000000000E+00 -0.18146194818E+03  0.49415057809E+03  0.45962632125E+03 0.  0.
      99925    2    3    3    0    0  0.20696431595E+01 -0.89473644882E+02 -0.31707341492E+02  0.27947927848E+03  0.26285641526E+03 0.  0.
         25    1    3    3    0    0 -0.20696431595E+01  0.89473644882E+02 -0.14975460669E+03  0.21467129961E+03  0.12509000000E+03 0.  0.
         25    1    4    4    0    0  0.38274686089E+02 -0.34761778474E+02 -0.27770385537E+02  0.13817393115E+03  0.12509000000E+03 0.  0.
         25    1    4    4    0    0 -0.36205042930E+02 -0.54711866409E+02 -0.39369559550E+01  0.14130534732E+03  0.12509000000E+03 0.  0.
<mgrwt>
<rscale>  2 0.45962632E+03</rscale>
<asrwt>0</asrwt>
<pdfrwt beam="1">  1       21 0.22991811E-01 0.45962632E+03</pdfrwt>
<pdfrwt beam="2">  1       21 0.49677391E-01 0.45962632E+03</pdfrwt>
<totfact> 0.63325681E+04</totfact>
</mgrwt>
</event>
<event>
 7    0  0.4705418E-002  0.4476028E+03  0.7546771E-02  0.1028439E+00
         21   -1    0    0  502  501  0.00000000000E+00  0.00000000000E+00  0.69219878184E+03  0.69219878184E+03  0.00000000000E+00 0. -1.
         21   -1    0    0  501  502 -0.00000000000E+00 -0.00000000000E+00 -0.72359366790E+02  0.72359366790E+02  0.00000000000E+00 0. -1.
      99926    2    1    2    0    0 -0.17763568394E-14  0.00000000000E+00  0.61983941506E+03  0.76455814863E+03  0.44760279511E+03 0.  0.
      99925    2    3    3    0    0  0.10722180008E+02  0.66716592001E+02  0.53253431383E+03  0.59771763319E+03  0.26288306304E+03 0.  0.
         25    1    4    4    0    0  0.14371173072E+02  0.61390132972E+02  0.21762081413E+03  0.25880804834E+03  0.12509000000E+03 0.  0.
         25    1    3    3    0    0 -0.10722180008E+02 -0.66716592001E+02  0.87305101230E+02  0.16684051544E+03  0.12509000000E+03 0.  0.
         25    1    4    4    0    0 -0.36489930637E+01  0.53264590295E+01  0.31491349969E+03  0.33890958485E+03  0.12509000000E+03 0.  0.
<mgrwt>
<rscale>  2 0.44760280E+03</rscale>
<asrwt>0</asrwt>
<pdfrwt beam="1">  1       21 0.10179394E+00 0.44760280E+03</pdfrwt>
<pdfrwt beam="2">  1       21 0.10641084E-01 0.44760280E+03</pdfrwt>
<totfact> 0.52510386E+04</totfact>
</mgrwt>
</event>
<event>
 7    0  0.4705418E-002  0.4569688E+03  0.7546771E-02  0.1025664E+00
         21   -1    0    0  502  501  0.00000000000E+00  0.00000000000E+00  0.11886121272E+03  0.11886121272E+03  0.00000000000E+00 0. -1.
         21   -1    0    0  501  502 -0.00000000000E+00 -0.00000000000E+00 -0.43921073321E+03  0.43921073321E+03  0.00000000000E+00 0. -1.
      99926    2    1    2    0    0  0.00000000000E+00  0.14210854715E-13 -0.32034952049E+03  0.55807194592E+03  0.45696879713E+03 0.  0.
      99925    2    3    3    0    0 -0.58137290799E+02  0.81422654818E+02 -0.27037355806E+03  0.39027832799E+03  0.26306979891E+03 0.  0.
         25    1    3    3    0    0  0.58137290799E+02 -0.81422654818E+02 -0.49975962425E+02  0.16779361793E+03  0.12509000000E+03 0.  0.
         25    1    4    4    0    0 -0.33620763336E+02 -0.91164311361E+00 -0.13131038902E+03  0.18444813142E+03  0.12509000000E+03 0.  0.
         25    1    4    4    0    0 -0.24516527463E+02  0.82334297932E+02 -0.13906316904E+03  0.20583019657E+03  0.12509000000E+03 0.  0.
<mgrwt>
<rscale>  2 0.45696880E+03</rscale>
<asrwt>0</asrwt>
<pdfrwt beam="1">  1       21 0.17479590E-01 0.45696880E+03</pdfrwt>
<pdfrwt beam="2">  1       21 0.64589813E-01 0.45696880E+03</pdfrwt>
<totfact> 0.60390228E+04</totfact>
</mgrwt>
</event>
<event>
 7    0  0.4705418E-002  0.4581984E+03  0.7546771E-02  0.1025305E+00
         21   -1    0    0  502  501  0.00000000000E+00  0.00000000000E+00  0.20044306343E+03  0.20044306343E+03  0.00000000000E+00 0. -1.
         21   -1    0    0  501  502 -0.00000000000E+00 -0.00000000000E+00 -0.26185216383E+03  0.26185216383E+03  0.00000000000E+00 0. -1.
      99926    2    1    2    0    0  0.00000000000E+00 -0.71054273576E-14 -0.61409100399E+02  0.46229522726E+03  0.45819842813E+03 0.  0.
      99925    2    3    3    0    0 -0.10251088874E+03  0.47177277382E+02 -0.65789607187E+02  0.29376963648E+03  0.26313142931E+03 0.  0.
         25    1    4    4    0    0 -0.49657208664E+02 -0.17263983799E+02 -0.38013646734E+02  0.14091284167E+03  0.12509000000E+03 0.  0.
         25    1    4    4    0    0 -0.52853680072E+02  0.64441261180E+02 -0.27775960452E+02  0.15285679481E+03  0.12509000000E+03 0.  0.
         25    1    3    3    0    0  0.10251088874E+03 -0.47177277382E+02  0.43805067874E+01  0.16852559079E+03  0.12509000000E+03 0.  0.
<mgrwt>
<rscale>  2 0.45819843E+03</rscale>
<asrwt>0</asrwt>
<pdfrwt beam="1">  1       21 0.29476921E-01 0.45819843E+03</pdfrwt>
<pdfrwt beam="2">  1       21 0.38507671E-01 0.45819843E+03</pdfrwt>
<totfact> 0.66306147E+04</totfact>
</mgrwt>
</event>
<event>
 7    0  0.4705418E-002  0.4568438E+03  0.7546771E-02  0.1025701E+00
         21   -1    0    0  502  501  0.00000000000E+00  0.00000000000E+00  0.23526834844E+03  0.23526834844E+03  0.00000000000E+00 0. -1.
         21   -1    0    0  501  502 -0.00000000000E+00 -0.00000000000E+00 -0.22177468065E+03  0.22177468065E+03  0.00000000000E+00 0. -1.
      99926    2    1    2    0    0 -0.14210854715E-13  0.71054273576E-14  0.13493667789E+02  0.45704302909E+03  0.45684379318E+03 0.  0.
      99925    2    3    3    0    0  0.10140621017E+03 -0.23414789642E+02 -0.40320058742E+02  0.28565196427E+03  0.26294460580E+03 0.  0.
         25    1    4    4    0    0  0.27622889993E+02  0.13993777875E+02 -0.42418810267E+02  0.13566765803E+03  0.12509000000E+03 0.  0.
         25    1    3    3    0    0 -0.10140621017E+03  0.23414789642E+02  0.53813726531E+02  0.17139106482E+03  0.12509000000E+03 0.  0.
         25    1    4    4    0    0  0.73783320182E+02 -0.37408567517E+02  0.20987515251E+01  0.14998430624E+03  0.12509000000E+03 0.  0.
<mgrwt>
<rscale>  2 0.45684379E+03</rscale>
<asrwt>0</asrwt>
<pdfrwt beam="1">  1       21 0.34598286E-01 0.45684379E+03</pdfrwt>
<pdfrwt beam="2">  1       21 0.32613924E-01 0.45684379E+03</pdfrwt>
<totfact> 0.67399374E+04</totfact>
</mgrwt>
</event>
<event>
 7    0  0.4705418E-002  0.4539657E+03  0.7546771E-02  0.1026546E+00
         21   -1    0    0  502  501  0.00000000000E+00  0.00000000000E+00  0.22389399189E+03  0.22389399189E+03  0.00000000000E+00 0. -1.
         21   -1    0    0  501  502 -0.00000000000E+00 -0.00000000000E+00 -0.23011434449E+03  0.23011434449E+03  0.00000000000E+00 0. -1.
      99926    2    1    2    0    0  0.00000000000E+00  0.00000000000E+00 -0.62203525975E+01  0.45400833638E+03  0.45396572196E+03 0.  0.
      99925    2    3    3    0    0 -0.26248393128E+02 -0.47573937252E+02  0.94123190707E+02  0.28469031481E+03  0.26312951691E+03 0.  0.
         25    1    3    3    0    0  0.26248393128E+02  0.47573937252E+02 -0.10034354330E+03  0.16931802158E+03  0.12509000000E+03 0.  0.
         25    1    4    4    0    0 -0.40424209100E+02 -0.14708738514E+02  0.78054540884E+02  0.15359193704E+03  0.12509000000E+03 0.  0.
         25    1    4    4    0    0  0.14175815972E+02 -0.32865198738E+02  0.16068649823E+02  0.13109837777E+03  0.12509000000E+03 0.  0.
<mgrwt>
<rscale>  2 0.45396572E+03</rscale>
<asrwt>0</asrwt>
<pdfrwt beam="1">  1       21 0.32925587E-01 0.45396572E+03</pdfrwt>
<pdfrwt beam="2">  1       21 0.33840345E-01 0.45396572E+03</pdfrwt>
<totfact> 0.69187710E+04</totfact>
</mgrwt>
</event>
<event>
 7    0  0.4705418E-002  0.4492155E+03  0.7546771E-02  0.1027956E+00
         21   -1    0    0  502  501  0.00000000000E+00  0.00000000000E+00  0.25110864583E+03  0.25110864583E+03  0.00000000000E+00 0.  1.
         21   -1    0    0  501  502 -0.00000000000E+00 -0.00000000000E+00 -0.20090362568E+03  0.20090362568E+03  0.00000000000E+00 0.  1.
      99926    2    1    2    0    0  0.00000000000E+00  0.00000000000E+00  0.50205020148E+02  0.45201227151E+03  0.44921548231E+03 0.  0.
      99925    2    3    3    0    0 -0.25895953274E+02 -0.41580965892E+02 -0.64686078639E+02  0.27524392083E+03  0.26301207209E+03 0.  0.
         25    1    4    4    0    0  0.17193175666E+02 -0.47560507770E+02 -0.27736313188E+02  0.13774766190E+03  0.12509000000E+03 0.  0.
         25    1    4    4    0    0 -0.43089128940E+02  0.59795418772E+01 -0.36949765452E+02  0.13749625893E+03  0.12509000000E+03 0.  0.
         25    1    3    3    0    0  0.25895953274E+02  0.41580965892E+02  0.11489109879E+03  0.17676835068E+03  0.12509000000E+03 0.  0.
<mgrwt>
<rscale>  2 0.44921548E+03</rscale>
<asrwt>0</asrwt>
<pdfrwt beam="1">  1       21 0.36927742E-01 0.44921548E+03</pdfrwt>
<pdfrwt beam="2">  1       21 0.29544651E-01 0.44921548E+03</pdfrwt>
<totfact> 0.72032616E+04</totfact>
</mgrwt>
</event>
<event>
 7    0  0.4705418E-002  0.4524285E+03  0.7546771E-02  0.1027000E+00
         21   -1    0    0  502  501  0.00000000000E+00  0.00000000000E+00  0.13432035058E+03  0.13432035058E+03  0.00000000000E+00 0.  1.
         21   -1    0    0  501  502 -0.00000000000E+00 -0.00000000000E+00 -0.38097639216E+03  0.38097639216E+03  0.00000000000E+00 0.  1.
      99926    2    1    2    0    0  0.00000000000E+00  0.00000000000E+00 -0.24665604158E+03  0.51529674274E+03  0.45242848079E+03 0.  0.
      99925    2    3    3    0    0  0.83055758898E+02 -0.72568669923E+02 -0.16620328740E+03  0.33013566504E+03  0.26306188179E+03 0.  0.
         25    1    4    4    0    0  0.55378638267E+01 -0.14935871023E+02 -0.88239563574E+02  0.15390736454E+03  0.12509000000E+03 0.  0.
         25    1    3    3    0    0 -0.83055758898E+02  0.72568669923E+02 -0.80452754176E+02  0.18516107770E+03  0.12509000000E+03 0.  0.
         25    1    4    4    0    0  0.77517895072E+02 -0.57632798900E+02 -0.77963723826E+02  0.17622830050E+03  0.12509000000E+03 0.  0.
<mgrwt>
<rscale>  2 0.45242848E+03</rscale>
<asrwt>0</asrwt>
<pdfrwt beam="1">  1       21 0.19752993E-01 0.45242848E+03</pdfrwt>
<pdfrwt beam="2">  1       21 0.56025939E-01 0.45242848E+03</pdfrwt>
<totfact> 0.65535861E+04</totfact>
</mgrwt>
</event>
<event>
 7    0  0.4705418E-002  0.4646389E+03  0.7546771E-02  0.1023444E+00
         21   -1    0    0  502  501  0.00000000000E+00  0.00000000000E+00  0.15438972401E+03  0.15438972401E+03  0.00000000000E+00 0.  1.
         21   -1    0    0  501  502 -0.00000000000E+00 -0.00000000000E+00 -0.34958498152E+03  0.34958498152E+03  0.00000000000E+00 0.  1.
      99926    2    1    2    0    0  0.00000000000E+00  0.00000000000E+00 -0.19519525751E+03  0.50397470554E+03  0.46463890847E+03 0.  0.
      99925    2    3    3    0    0 -0.23962559434E+02 -0.41697390117E+02 -0.25390043772E+00  0.26741072393E+03  0.26305047844E+03 0.  0.
         25    1    4    4    0    0 -0.49428159280E+02 -0.15856361587E+02  0.15063698396E+02  0.13626808226E+03  0.12509000000E+03 0.  0.
         25    1    3    3    0    0  0.23962559434E+02  0.41697390117E+02 -0.19494135707E+03  0.23656398161E+03  0.12509000000E+03 0.  0.
         25    1    4    4    0    0  0.25465599846E+02 -0.25841028530E+02 -0.15317598833E+02  0.13114264167E+03  0.12509000000E+03 0.  0.
<mgrwt>
<rscale>  2 0.46463891E+03</rscale>
<asrwt>0</asrwt>
<pdfrwt beam="1">  1       21 0.22704371E-01 0.46463891E+03</pdfrwt>
<pdfrwt beam="2">  1       21 0.51409555E-01 0.46463891E+03</pdfrwt>
<totfact> 0.60248703E+04</totfact>
</mgrwt>
</event>
<event>
 7    0  0.4705418E-002  0.4561178E+03  0.7546771E-02  0.1025913E+00
         21   -1    0    0  502  501  0.00000000000E+00  0.00000000000E+00  0.41214839850E+03  0.41214839850E+03  0.00000000000E+00 0. -1.
         21   -1    0    0  501  502 -0.00000000000E+00 -0.00000000000E+00 -0.12619452299E+03  0.12619452299E+03  0.00000000000E+00 0. -1.
      99926    2    1    2    0    0  0.14210854715E-13  0.00000000000E+00  0.28595387551E+03  0.53834292149E+03  0.45611783805E+03 0.  0.
      99925    2    3    3    0    0 -0.81722558433E+02 -0.15922502542E+02  0.27210119394E+03  0.38744061027E+03  0.26294308147E+03 0.  0.
         25    1    3    3    0    0  0.81722558433E+02  0.15922502542E+02  0.13852681570E+02  0.15090231122E+03  0.12509000000E+03 0.  0.
         25    1    4    4    0    0 -0.66141422265E+02 -0.20848086327E+02  0.10203436622E+03  0.17569248826E+03  0.12509000000E+03 0.  0.
         25    1    4    4    0    0 -0.15581136168E+02  0.49255837845E+01  0.17006682772E+03  0.21174812200E+03  0.12509000000E+03 0.  0.
<mgrwt>
<rscale>  2 0.45611784E+03</rscale>
<asrwt>0</asrwt>
<pdfrwt beam="1">  1       21 0.60610058E-01 0.45611784E+03</pdfrwt>
<pdfrwt beam="2">  1       21 0.18558018E-01 0.45611784E+03</pdfrwt>
<totfact> 0.62092306E+04</totfact>
</mgrwt>
</event>
<event>
 7    0  0.4705418E-002  0.4541419E+03  0.7546771E-02  0.1026494E+00
         21   -1    0    0  502  501  0.00000000000E+00  0.00000000000E+00  0.41645774491E+02  0.41645774491E+02  0.00000000000E+00 0. -1.
         21   -1    0    0  501  502 -0.00000000000E+00 -0.00000000000E+00 -0.12380897449E+04  0.12380897449E+04  0.00000000000E+00 0. -1.
      99926    2    1    2    0    0  0.00000000000E+00  0.71054273576E-14 -0.11964439704E+04  0.12797355194E+04  0.45414185588E+03 0.  0.
      99925    2    3    3    0    0 -0.77962922732E+02  0.44811412866E+02 -0.56366731913E+03  0.62847514247E+03  0.26300927360E+03 0.  0.
         25    1    3    3    0    0  0.77962922732E+02 -0.44811412866E+02 -0.63277665126E+03  0.65126037690E+03  0.12509000000E+03 0.  0.
         25    1    4    4    0    0 -0.78822761369E+02  0.12490403604E+02 -0.28494477537E+03  0.32126324254E+03  0.12509000000E+03 0.  0.
         25    1    4    4    0    0  0.85983863720E+00  0.32321009262E+02 -0.27872254375E+03  0.30721189993E+03  0.12509000000E+03 0.  0.
<mgrwt>
<rscale>  2 0.45414186E+03</rscale>
<asrwt>0</asrwt>
<pdfrwt beam="1">  1       21 0.61243781E-02 0.45414186E+03</pdfrwt>
<pdfrwt beam="2">  1       21 0.18207203E+00 0.45414186E+03</pdfrwt>
<totfact> 0.29908220E+04</totfact>
</mgrwt>
</event>
<event>
 7    0  0.4705418E-002  0.4533463E+03  0.7546771E-02  0.1026729E+00
         21   -1    0    0  502  501  0.00000000000E+00  0.00000000000E+00  0.31586873058E+03  0.31586873058E+03  0.00000000000E+00 0. -1.
         21   -1    0    0  501  502 -0.00000000000E+00 -0.00000000000E+00 -0.16266477449E+03  0.16266477449E+03  0.00000000000E+00 0. -1.
      99926    2    1    2    0    0  0.00000000000E+00  0.17763568394E-14  0.15320395608E+03  0.47853350507E+03  0.45334629514E+03 0.  0.
      99925    2    3    3    0    0  0.41986114713E+02 -0.12124410950E+02  0.20496335010E+03  0.33627888076E+03  0.26298987735E+03 0.  0.
         25    1    4    4    0    0  0.29005119957E+02 -0.20518229076E+02  0.15071213151E+03  0.19905765344E+03  0.12509000000E+03 0.  0.
         25    1    3    3    0    0 -0.41986114713E+02  0.12124410950E+02 -0.51759394020E+02  0.14225462431E+03  0.12509000000E+03 0.  0.
         25    1    4    4    0    0  0.12980994756E+02  0.83938181263E+01  0.54251218589E+02  0.13722122732E+03  0.12509000000E+03 0.  0.
<mgrwt>
<rscale>  2 0.45334630E+03</rscale>
<asrwt>0</asrwt>
<pdfrwt beam="1">  1       21 0.46451284E-01 0.45334630E+03</pdfrwt>
<pdfrwt beam="2">  1       21 0.23921290E-01 0.45334630E+03</pdfrwt>
<totfact> 0.67691159E+04</totfact>
</mgrwt>
</event>
<event>
 7    0  0.4705418E-002  0.4746003E+03  0.7546771E-02  0.1020630E+00
         21   -1    0    0  502  501  0.00000000000E+00  0.00000000000E+00  0.36918208192E+03  0.36918208192E+03  0.00000000000E+00 0. -1.
         21   -1    0    0  501  502 -0.00000000000E+00 -0.00000000000E+00 -0.15253002143E+03  0.15253002143E+03  0.00000000000E+00 0. -1.
      99926    2    1    2    0    0  0.00000000000E+00 -0.17763568394E-14  0.21665206050E+03  0.52171210335E+03  0.47460025649E+03 0.  0.
      99925    2    3    3    0    0  0.95149800173E+02  0.13645432873E+02  0.36661504589E+02  0.28237177948E+03  0.26296401583E+03 0.  0.
         25    1    4    4    0    0  0.60508665782E+02  0.41328080982E+02  0.11123573884E+01  0.14497604751E+03  0.12509000000E+03 0.  0.
         25    1    3    3    0    0 -0.95149800173E+02 -0.13645432873E+02  0.17999055591E+03  0.23934032387E+03  0.12509000000E+03 0.  0.
         25    1    4    4    0    0  0.34641134391E+02 -0.27682648109E+02  0.35549147201E+02  0.13739573198E+03  0.12509000000E+03 0.  0.
<mgrwt>
<rscale>  2 0.47460026E+03</rscale>
<asrwt>0</asrwt>
<pdfrwt beam="1">  1       21 0.54291483E-01 0.47460026E+03</pdfrwt>
<pdfrwt beam="2">  1       21 0.22430885E-01 0.47460026E+03</pdfrwt>
<totfact> 0.54746395E+04</totfact>
</mgrwt>
</event>
<event>
 7    0  0.4705418E-002  0.4354315E+03  0.7546771E-02  0.1032158E+00
         21   -1    0    0  502  501  0.00000000000E+00  0.00000000000E+00  0.29153609378E+03  0.29153609378E+03  0.00000000000E+00 0.  1.
         21   -1    0    0  501  502 -0.00000000000E+00 -0.00000000000E+00 -0.16258756062E+03  0.16258756062E+03  0.00000000000E+00 0.  1.
      99926    2    1    2    0    0  0.14210854715E-13 -0.71054273576E-14  0.12894853317E+03  0.45412365440E+03  0.43543147484E+03 0.  0.
      99925    2    3    3    0    0  0.80484609154E+02 -0.47601920264E+02  0.76967527889E+02  0.28952338668E+03  0.26297542844E+03 0.  0.
         25    1    4    4    0    0  0.72767277860E+02 -0.15000885249E+02  0.65384363315E+02  0.15950776267E+03  0.12509000000E+03 0.  0.
         25    1    3    3    0    0 -0.80484609154E+02  0.47601920264E+02  0.51981005276E+02  0.16460026772E+03  0.12509000000E+03 0.  0.
         25    1    4    4    0    0  0.77173312937E+01 -0.32601035016E+02  0.11583164574E+02  0.13001562401E+03  0.12509000000E+03 0.  0.
<mgrwt>
<rscale>  2 0.43543147E+03</rscale>
<asrwt>0</asrwt>
<pdfrwt beam="1">  1       21 0.42872955E-01 0.43543147E+03</pdfrwt>
<pdfrwt beam="2">  1       21 0.23909935E-01 0.43543147E+03</pdfrwt>
<totfact> 0.80411267E+04</totfact>
</mgrwt>
</event>
<event>
 7    0  0.4705418E-002  0.4700248E+03  0.7546771E-02  0.1021913E+00
         21   -1    0    0  502  501  0.00000000000E+00  0.00000000000E+00  0.54234024005E+02  0.54234024005E+02  0.00000000000E+00 0.  1.
         21   -1    0    0  501  502 -0.00000000000E+00 -0.00000000000E+00 -0.10183797382E+04  0.10183797382E+04  0.00000000000E+00 0.  1.
      99926    2    1    2    0    0  0.44408920985E-14  0.00000000000E+00 -0.96414571416E+03  0.10726137622E+04  0.47002481282E+03 0.  0.
      99925    2    3    3    0    0  0.69494876198E+01 -0.35861432505E+02 -0.32212109207E+03  0.41749738993E+03  0.26307363022E+03 0.  0.
         25    1    4    4    0    0  0.39201386208E+02 -0.35356246140E+02 -0.15053911211E+03  0.20272233522E+03  0.12509000000E+03 0.  0.
         25    1    4    4    0    0 -0.32251898588E+02 -0.50518636531E+00 -0.17158197996E+03  0.21477505471E+03  0.12509000000E+03 0.  0.
         25    1    3    3    0    0 -0.69494876198E+01  0.35861432505E+02 -0.64202462209E+03  0.65511637225E+03  0.12509000000E+03 0.  0.
<mgrwt>
<rscale>  2 0.47002481E+03</rscale>
<asrwt>0</asrwt>
<pdfrwt beam="1">  1       21 0.79755919E-02 0.47002481E+03</pdfrwt>
<pdfrwt beam="2">  1       21 0.14976172E+00 0.47002481E+03</pdfrwt>
<totfact> 0.32479823E+04</totfact>
</mgrwt>
</event>
<event>
 7    0  0.4705418E-002  0.4521781E+03  0.7546771E-02  0.1027075E+00
         21   -1    0    0  502  501  0.00000000000E+00  0.00000000000E+00  0.74700263553E+02  0.74700263553E+02  0.00000000000E+00 0.  1.
         21   -1    0    0  501  502 -0.00000000000E+00 -0.00000000000E+00 -0.68428475942E+03  0.68428475942E+03  0.00000000000E+00 0.  1.
      99926    2    1    2    0    0  0.00000000000E+00  0.00000000000E+00 -0.60958449586E+03  0.75898502297E+03  0.45217807056E+03 0.  0.
      99925    2    3    3    0    0 -0.92723222236E+02  0.50460413926E+02 -0.43913911015E+03  0.52267381518E+03  0.26306065783E+03 0.  0.
         25    1    3    3    0    0  0.92723222236E+02 -0.50460413926E+02 -0.17044538571E+03  0.23631120779E+03  0.12509000000E+03 0.  0.
         25    1    4    4    0    0 -0.49809463517E+02  0.57239916119E+02 -0.18267229581E+03  0.23403860026E+03  0.12509000000E+03 0.  0.
         25    1    4    4    0    0 -0.42913758719E+02 -0.67795021934E+01 -0.25646681434E+03  0.28863521492E+03  0.12509000000E+03 0.  0.
<mgrwt>
<rscale>  2 0.45217807E+03</rscale>
<asrwt>0</asrwt>
<pdfrwt beam="1">  1       21 0.10985333E-01 0.45217807E+03</pdfrwt>
<pdfrwt beam="2">  1       21 0.10063011E+00 0.45217807E+03</pdfrwt>
<totfact> 0.50931221E+04</totfact>
</mgrwt>
</event>
<event>
 7    0  0.4705418E-002  0.4222746E+03  0.7546771E-02  0.1036329E+00
         21   -1    0    0  502  501  0.00000000000E+00  0.00000000000E+00  0.13726704899E+04  0.13726704899E+04  0.00000000000E+00 0. -1.
         21   -1    0    0  501  502 -0.00000000000E+00 -0.00000000000E+00 -0.32476078891E+02  0.32476078891E+02  0.00000000000E+00 0. -1.
      99926    2    1    2    0    0  0.44408920985E-15  0.00000000000E+00  0.13401944110E+04  0.14051465688E+04  0.42227457950E+03 0.  0.
      99925    2    3    3    0    0  0.65009860256E+00 -0.33387611946E+02  0.11082430479E+04  0.11395075313E+04  0.26298213923E+03 0.  0.
         25    1    4    4    0    0 -0.21631673124E+02 -0.32891383038E+02  0.69151460898E+03  0.70383928200E+03  0.12509000000E+03 0.  0.
         25    1    3    3    0    0 -0.65009860256E+00  0.33387611946E+02  0.23195136314E+03  0.26563903746E+03  0.12509000000E+03 0.  0.
         25    1    4    4    0    0  0.22281771727E+02 -0.49622890849E+00  0.41672843890E+03  0.43566824934E+03  0.12509000000E+03 0.  0.
<mgrwt>
<rscale>  2 0.42227458E+03</rscale>
<asrwt>0</asrwt>
<pdfrwt beam="1">  1       21 0.20186327E+00 0.42227458E+03</pdfrwt>
<pdfrwt beam="2">  1       21 0.47758949E-02 0.42227458E+03</pdfrwt>
<totfact> 0.34071054E+04</totfact>
</mgrwt>
</event>
<event>
 7    0  0.4705418E-002  0.4525529E+03  0.7546771E-02  0.1026963E+00
         21   -1    0    0  502  501  0.00000000000E+00  0.00000000000E+00  0.83267582410E+03  0.83267582410E+03  0.00000000000E+00 0.  1.
         21   -1    0    0  501  502 -0.00000000000E+00 -0.00000000000E+00 -0.61489757565E+02  0.61489757565E+02  0.00000000000E+00 0.  1.
      99926    2    1    2    0    0  0.88817841970E-15  0.00000000000E+00  0.77118606654E+03  0.89416558167E+03  0.45255291206E+03 0.  0.
      99925    2    3    3    0    0  0.46003648452E+01 -0.28991606560E+02  0.69747935125E+03  0.74603771600E+03  0.26312193309E+03 0.  0.
         25    1    3    3    0    0 -0.46003648452E+01  0.28991606560E+02  0.73706715292E+02  0.14812786567E+03  0.12509000000E+03 0.  0.
         25    1    4    4    0    0 -0.68819057545E+01  0.25187975606E+02  0.35007693160E+03  0.37267031124E+03  0.12509000000E+03 0.  0.
         25    1    4    4    0    0  0.11482270600E+02 -0.54179582167E+02  0.34740241965E+03  0.37336740476E+03  0.12509000000E+03 0.  0.
<mgrwt>
<rscale>  2 0.45255291E+03</rscale>
<asrwt>0</asrwt>
<pdfrwt beam="1">  1       21 0.12245232E+00 0.45255291E+03</pdfrwt>
<pdfrwt beam="2">  1       21 0.90426119E-02 0.45255291E+03</pdfrwt>
<totfact> 0.44330233E+04</totfact>
</mgrwt>
</event>
<event>
 7    0  0.4705418E-002  0.4249261E+03  0.7546771E-02  0.1035475E+00
         21   -1    0    0  502  501  0.00000000000E+00  0.00000000000E+00  0.13547998362E+03  0.13547998362E+03  0.00000000000E+00 0.  1.
         21   -1    0    0  501  502 -0.00000000000E+00 -0.00000000000E+00 -0.33318974349E+03  0.33318974349E+03  0.00000000000E+00 0.  1.
      99926    2    1    2    0    0  0.00000000000E+00 -0.35527136788E-14 -0.19770975987E+03  0.46866972711E+03  0.42492606881E+03 0.  0.
      99925    2    3    3    0    0  0.76078138718E+02 -0.29540075402E+02 -0.12346869745E+03  0.30187721320E+03  0.26310612565E+03 0.  0.
         25    1    3    3    0    0 -0.76078138718E+02  0.29540075402E+02 -0.74241062424E+02  0.16679251391E+03  0.12509000000E+03 0.  0.
         25    1    4    4    0    0  0.69653596143E+02 -0.39321855597E+02 -0.81755732936E+02  0.16949731488E+03  0.12509000000E+03 0.  0.
         25    1    4    4    0    0  0.64245425748E+01  0.97817801958E+01 -0.41712964510E+02  0.13237989832E+03  0.12509000000E+03 0.  0.
<mgrwt>
<rscale>  2 0.42492607E+03</rscale>
<asrwt>0</asrwt>
<pdfrwt beam="1">  1       21 0.19923527E-01 0.42492607E+03</pdfrwt>
<pdfrwt beam="2">  1       21 0.48998491E-01 0.42492607E+03</pdfrwt>
<totfact> 0.86387320E+04</totfact>
</mgrwt>
</event>
<event>
 7    0  0.4705418E-002  0.4522710E+03  0.7546771E-02  0.1027047E+00
         21   -1    0    0  502  501  0.00000000000E+00  0.00000000000E+00  0.42715537439E+02  0.42715537439E+02  0.00000000000E+00 0.  1.
         21   -1    0    0  501  502 -0.00000000000E+00 -0.00000000000E+00 -0.11971583931E+04  0.11971583931E+04  0.00000000000E+00 0.  1.
      99926    2    1    2    0    0  0.00000000000E+00  0.00000000000E+00 -0.11544428557E+04  0.12398739306E+04  0.45227099912E+03 0.  0.
      99925    2    3    3    0    0 -0.36077967674E+02 -0.27622934931E+02 -0.10046602891E+04  0.10395068384E+04  0.26299719433E+03 0.  0.
         25    1    3    3    0    0  0.36077967674E+02  0.27622934931E+02 -0.14978256661E+03  0.20036709223E+03  0.12509000000E+03 0.  0.
         25    1    4    4    0    0 -0.30038778166E+02 -0.26028631041E+02 -0.36959042617E+03  0.39220455001E+03  0.12509000000E+03 0.  0.
         25    1    4    4    0    0 -0.60391895083E+01 -0.15943038900E+01 -0.63506986292E+03  0.64730228835E+03  0.12509000000E+03 0.  0.
<mgrwt>
<rscale>  2 0.45227100E+03</rscale>
<asrwt>0</asrwt>
<pdfrwt beam="1">  1       21 0.62816981E-02 0.45227100E+03</pdfrwt>
<pdfrwt beam="2">  1       21 0.17605267E+00 0.45227100E+03</pdfrwt>
<totfact> 0.31577668E+04</totfact>
</mgrwt>
</event>
<event>
 7    0  0.4705418E-002  0.4572042E+03  0.7546771E-02  0.1025595E+00
         21   -1    0    0  502  501  0.00000000000E+00  0.00000000000E+00  0.44532787824E+03  0.44532787824E+03  0.00000000000E+00 0.  1.
         21   -1    0    0  501  502 -0.00000000000E+00 -0.00000000000E+00 -0.11734929298E+03  0.11734929298E+03  0.00000000000E+00 0.  1.
      99926    2    1    2    0    0  0.35527136788E-14  0.00000000000E+00  0.32797858526E+03  0.56267717122E+03  0.45720416295E+03 0.  0.
      99925    2    3    3    0    0  0.22046650021E+02  0.82980488723E+02  0.11132526110E+03  0.29818144865E+03  0.26295825957E+03 0.  0.
         25    1    4    4    0    0 -0.11182138459E+02  0.72345215851E+02  0.75725426755E+02  0.16352589653E+03  0.12509000000E+03 0.  0.
         25    1    4    4    0    0  0.33228788480E+02  0.10635272872E+02  0.35599834342E+02  0.13465555213E+03  0.12509000000E+03 0.  0.
         25    1    3    3    0    0 -0.22046650021E+02 -0.82980488723E+02  0.21665332416E+03  0.26449572257E+03  0.12509000000E+03 0.  0.
<mgrwt>
<rscale>  2 0.45720416E+03</rscale>
<asrwt>0</asrwt>
<pdfrwt beam="1">  1       21 0.65489393E-01 0.45720416E+03</pdfrwt>
<pdfrwt beam="2">  1       21 0.17257249E-01 0.45720416E+03</pdfrwt>
<totfact> 0.59983894E+04</totfact>
</mgrwt>
</event>
<event>
 7    0  0.4705418E-002  0.4561096E+03  0.7546771E-02  0.1025916E+00
         21   -1    0    0  502  501  0.00000000000E+00  0.00000000000E+00  0.31328472968E+03  0.31328472968E+03  0.00000000000E+00 0.  1.
         21   -1    0    0  501  502 -0.00000000000E+00 -0.00000000000E+00 -0.16601192788E+03  0.16601192788E+03  0.00000000000E+00 0.  1.
      99926    2    1    2    0    0  0.00000000000E+00  0.00000000000E+00  0.14727280180E+03  0.47929665756E+03  0.45610964449E+03 0.  0.
      99925    2    3    3    0    0 -0.11446629383E+02 -0.50639090557E+01 -0.26302391367E+02  0.26497791297E+03  0.26337199941E+03 0.  0.
         25    1    4    4    0    0  0.13785212870E+01 -0.62082040170E+00 -0.53811274881E+02  0.13618166963E+03  0.12509000000E+03 0.  0.
         25    1    4    4    0    0 -0.12825150670E+02 -0.44430886540E+01  0.27508883513E+02  0.12879624334E+03  0.12509000000E+03 0.  0.
         25    1    3    3    0    0  0.11446629383E+02  0.50639090557E+01  0.17357519316E+03  0.21431874459E+03  0.12509000000E+03 0.  0.
<mgrwt>
<rscale>  2 0.45610964E+03</rscale>
<asrwt>0</asrwt>
<pdfrwt beam="1">  1       21 0.46071284E-01 0.45610964E+03</pdfrwt>
<pdfrwt beam="2">  1       21 0.24413519E-01 0.45610964E+03</pdfrwt>
<totfact> 0.66166654E+04</totfact>
</mgrwt>
</event>
<event>
 7    0  0.4705418E-002  0.4544182E+03  0.7546771E-02  0.1026413E+00
         21   -1    0    0  502  501  0.00000000000E+00  0.00000000000E+00  0.54306878028E+02  0.54306878028E+02  0.00000000000E+00 0. -1.
         21   -1    0    0  501  502 -0.00000000000E+00 -0.00000000000E+00 -0.95059723085E+03  0.95059723085E+03  0.00000000000E+00 0. -1.
      99926    2    1    2    0    0  0.00000000000E+00 -0.14210854715E-13 -0.89629035282E+03  0.10049041089E+04  0.45441816808E+03 0.  0.
      99925    2    3    3    0    0  0.91457176350E+02  0.65828447768E+02 -0.55310519591E+03  0.62264587199E+03  0.26280168288E+03 0.  0.
         25    1    4    4    0    0  0.30038602351E+02  0.59675148068E+02 -0.33460472128E+03  0.36341610934E+03  0.12509000000E+03 0.  0.
         25    1    4    4    0    0  0.61418574000E+02  0.61532997003E+01 -0.21850047463E+03  0.25922976265E+03  0.12509000000E+03 0.  0.
         25    1    3    3    0    0 -0.91457176350E+02 -0.65828447768E+02 -0.34318515691E+03  0.38225823688E+03  0.12509000000E+03 0.  0.
<mgrwt>
<rscale>  2 0.45441817E+03</rscale>
<asrwt>0</asrwt>
<pdfrwt beam="1">  1       21 0.79863066E-02 0.45441817E+03</pdfrwt>
<pdfrwt beam="2">  1       21 0.13979369E+00 0.45441817E+03</pdfrwt>
<totfact> 0.39154192E+04</totfact>
</mgrwt>
</event>
<event>
 7    0  0.4705418E-002  0.4349800E+03  0.7546771E-02  0.1032298E+00
         21   -1    0    0  502  501  0.00000000000E+00  0.00000000000E+00  0.11071546642E+03  0.11071546642E+03  0.00000000000E+00 0. -1.
         21   -1    0    0  501  502 -0.00000000000E+00 -0.00000000000E+00 -0.42723849017E+03  0.42723849017E+03  0.00000000000E+00 0. -1.
      99926    2    1    2    0    0  0.00000000000E+00  0.71054273576E-14 -0.31652302374E+03  0.53795395659E+03  0.43498003961E+03 0.  0.
      99925    2    3    3    0    0 -0.38053441167E+02  0.58544944528E+02 -0.27935281150E+03  0.38995156576E+03  0.26296131927E+03 0.  0.
         25    1    3    3    0    0  0.38053441167E+02 -0.58544944528E+02 -0.37170212243E+02  0.14800239083E+03  0.12509000000E+03 0.  0.
         25    1    4    4    0    0 -0.23204814104E+02 -0.57188919810E+01 -0.10227571285E+03  0.16333707069E+03  0.12509000000E+03 0.  0.
         25    1    4    4    0    0 -0.14848627063E+02  0.64263836509E+02 -0.17707709865E+03  0.22661449507E+03  0.12509000000E+03 0.  0.
<mgrwt>
<rscale>  2 0.43498004E+03</rscale>
<asrwt>0</asrwt>
<pdfrwt beam="1">  1       21 0.16281686E-01 0.43498004E+03</pdfrwt>
<pdfrwt beam="2">  1       21 0.62829190E-01 0.43498004E+03</pdfrwt>
<totfact> 0.73665805E+04</totfact>
</mgrwt>
</event>
<event>
 7    0  0.4705418E-002  0.4541766E+03  0.7546771E-02  0.1026484E+00
         21   -1    0    0  502  501  0.00000000000E+00  0.00000000000E+00  0.28478012494E+02  0.28478012494E+02  0.00000000000E+00 0.  1.
         21   -1    0    0  501  502 -0.00000000000E+00 -0.00000000000E+00 -0.18108392028E+04  0.18108392028E+04  0.00000000000E+00 0.  1.
      99926    2    1    2    0    0  0.00000000000E+00  0.00000000000E+00 -0.17823611903E+04  0.18393172153E+04  0.45417662397E+03 0.  0.
      99925    2    3    3    0    0  0.44265013734E+02  0.82957889527E+02 -0.13718248268E+04  0.13999665391E+04  0.26298584009E+03 0.  0.
         25    1    4    4    0    0  0.38097823223E+02  0.16648767929E+02 -0.80344171614E+03  0.81418347131E+03  0.12509000000E+03 0.  0.
         25    1    3    3    0    0 -0.44265013734E+02 -0.82957889527E+02 -0.41053636345E+03  0.43935067622E+03  0.12509000000E+03 0.  0.
         25    1    4    4    0    0  0.61671905113E+01  0.66309121598E+02 -0.56838311069E+03  0.58578306775E+03  0.12509000000E+03 0.  0.
<mgrwt>
<rscale>  2 0.45417662E+03</rscale>
<asrwt>0</asrwt>
<pdfrwt beam="1">  1       21 0.41879456E-02 0.45417662E+03</pdfrwt>
<pdfrwt beam="2">  1       21 0.26629972E+00 0.45417662E+03</pdfrwt>
<totfact> 0.16621749E+04</totfact>
</mgrwt>
</event>
<event>
 7    0  0.4705418E-002  0.4511506E+03  0.7546771E-02  0.1027379E+00
         21   -1    0    0  502  501  0.00000000000E+00  0.00000000000E+00  0.56609664643E+02  0.56609664643E+02  0.00000000000E+00 0. -1.
         21   -1    0    0  501  502 -0.00000000000E+00 -0.00000000000E+00 -0.89886076885E+03  0.89886076885E+03  0.00000000000E+00 0. -1.
      99926    2    1    2    0    0 -0.14210854715E-13  0.00000000000E+00 -0.84225110420E+03  0.95547043349E+03  0.45115055884E+03 0.  0.
      99925    2    3    3    0    0 -0.98288991027E+02 -0.46974008940E+02 -0.55673933898E+03  0.62527085831E+03  0.26294043318E+03 0.  0.
         25    1    3    3    0    0  0.98288991027E+02  0.46974008940E+02 -0.28551176522E+03  0.33019957518E+03  0.12509000000E+03 0.  0.
         25    1    4    4    0    0 -0.72226501949E+02 -0.47127394348E+02 -0.35914472051E+03  0.38996166126E+03  0.12509000000E+03 0.  0.
         25    1    4    4    0    0 -0.26062489079E+02  0.15338540812E+00 -0.19759461847E+03  0.23530919704E+03  0.12509000000E+03 0.  0.
<mgrwt>
<rscale>  2 0.45115056E+03</rscale>
<asrwt>0</asrwt>
<pdfrwt beam="1">  1       21 0.83249503E-02 0.45115056E+03</pdfrwt>
<pdfrwt beam="2">  1       21 0.13218541E+00 0.45115056E+03</pdfrwt>
<totfact> 0.42175324E+04</totfact>
</mgrwt>
</event>
<event>
 7    0  0.4705418E-002  0.4575093E+03  0.7546771E-02  0.1025506E+00
         21   -1    0    0  502  501  0.00000000000E+00  0.00000000000E+00  0.11865881969E+03  0.11865881969E+03  0.00000000000E+00 0. -1.
         21   -1    0    0  501  502 -0.00000000000E+00 -0.00000000000E+00 -0.44100124123E+03  0.44100124123E+03  0.00000000000E+00 0. -1.
      99926    2    1    2    0    0  0.00000000000E+00 -0.35527136788E-14 -0.32234242154E+03  0.55966006093E+03  0.45750928632E+03 0.  0.
      99925    2    3    3    0    0  0.87399260238E+02  0.13569754925E+02 -0.29315506121E+03  0.40370436516E+03  0.26308659334E+03 0.  0.
         25    1    4    4    0    0  0.43399625696E+02  0.36341676798E+02 -0.10727132125E+03  0.17423802526E+03  0.12509000000E+03 0.  0.
         25    1    3    3    0    0 -0.87399260238E+02 -0.13569754925E+02 -0.29187360327E+02  0.15595569577E+03  0.12509000000E+03 0.  0.
         25    1    4    4    0    0  0.43999634543E+02 -0.22771921873E+02 -0.18588373996E+03  0.22946633990E+03  0.12509000000E+03 0.  0.
<mgrwt>
<rscale>  2 0.45750929E+03</rscale>
<asrwt>0</asrwt>
<pdfrwt beam="1">  1       21 0.17449826E-01 0.45750929E+03</pdfrwt>
<pdfrwt beam="2">  1       21 0.64853125E-01 0.45750929E+03</pdfrwt>
<totfact> 0.60032196E+04</totfact>
</mgrwt>
</event>
<event>
 7    0  0.4705418E-002  0.4533678E+03  0.7546771E-02  0.1026722E+00
         21   -1    0    0  502  501  0.00000000000E+00  0.00000000000E+00  0.78430830917E+03  0.78430830917E+03  0.00000000000E+00 0.  1.
         21   -1    0    0  501  502 -0.00000000000E+00 -0.00000000000E+00 -0.65517093193E+02  0.65517093193E+02  0.00000000000E+00 0.  1.
      99926    2    1    2    0    0 -0.14210854715E-13  0.00000000000E+00  0.71879121597E+03  0.84982540236E+03  0.45336784440E+03 0.  0.
      99925    2    3    3    0    0 -0.98320686225E+02 -0.49132450656E+02  0.48997306250E+03  0.56683033084E+03  0.26294879147E+03 0.  0.
         25    1    3    3    0    0  0.98320686225E+02  0.49132450656E+02  0.22881815348E+03  0.28299507152E+03  0.12509000000E+03 0.  0.
         25    1    4    4    0    0 -0.18475842245E+02 -0.51326183759E+02  0.22675161556E+03  0.26464983874E+03  0.12509000000E+03 0.  0.
         25    1    4    4    0    0 -0.79844843980E+02  0.21937331028E+01  0.26322144694E+03  0.30218049210E+03  0.12509000000E+03 0.  0.
<mgrwt>
<rscale>  2 0.45336784E+03</rscale>
<asrwt>0</asrwt>
<pdfrwt beam="1">  1       21 0.11533945E+00 0.45336784E+03</pdfrwt>
<pdfrwt beam="2">  1       21 0.96348671E-02 0.45336784E+03</pdfrwt>
<totfact> 0.46033758E+04</totfact>
</mgrwt>
</event>
<event>
 7    0  0.4705418E-002  0.4545022E+03  0.7546771E-02  0.1026388E+00
         21   -1    0    0  502  501  0.00000000000E+00  0.00000000000E+00  0.75798545492E+03  0.75798545492E+03  0.00000000000E+00 0.  1.
         21   -1    0    0  501  502 -0.00000000000E+00 -0.00000000000E+00 -0.68132003012E+02  0.68132003012E+02  0.00000000000E+00 0.  1.
      99926    2    1    2    0    0  0.00000000000E+00  0.00000000000E+00  0.68985345191E+03  0.82611745793E+03  0.45450222133E+03 0.  0.
      99925    2    3    3    0    0 -0.86130814588E+02  0.28238936152E+02  0.31339097588E+03  0.41919306853E+03  0.26323557928E+03 0.  0.
         25    1    3    3    0    0  0.86130814588E+02 -0.28238936152E+02  0.37646247603E+03  0.40692438941E+03  0.12509000000E+03 0.  0.
         25    1    4    4    0    0 -0.19490626662E+02 -0.77929522408E+01  0.10529169945E+03  0.16484679161E+03  0.12509000000E+03 0.  0.
         25    1    4    4    0    0 -0.66640187926E+02  0.36031888392E+02  0.20809927643E+03  0.25434627691E+03  0.12509000000E+03 0.  0.
<mgrwt>
<rscale>  2 0.45450222E+03</rscale>
<asrwt>0</asrwt>
<pdfrwt beam="1">  1       21 0.11146844E+00 0.45450222E+03</pdfrwt>
<pdfrwt beam="2">  1       21 0.10019413E-01 0.45450222E+03</pdfrwt>
<totfact> 0.46709517E+04</totfact>
</mgrwt>
</event>
<event>
 7    0  0.4705418E-002  0.4612169E+03  0.7546771E-02  0.1024429E+00
         21   -1    0    0  502  501  0.00000000000E+00  0.00000000000E+00  0.56656674277E+03  0.56656674277E+03  0.00000000000E+00 0.  1.
         21   -1    0    0  501  502 -0.00000000000E+00 -0.00000000000E+00 -0.93864058933E+02  0.93864058933E+02  0.00000000000E+00 0.  1.
      99926    2    1    2    0    0 -0.71054273576E-14 -0.17763568394E-14  0.47270268384E+03  0.66043080171E+03  0.46121688665E+03 0.  0.
      99925    2    3    3    0    0  0.53792815906E+02 -0.30881162427E+01  0.14406078429E+03  0.30468340573E+03  0.26301190971E+03 0.  0.
         25    1    4    4    0    0 -0.44220335836E+01  0.24520374326E+02  0.74649347329E+02  0.14778645505E+03  0.12509000000E+03 0.  0.
         25    1    3    3    0    0 -0.53792815906E+02  0.30881162427E+01  0.32864189955E+03  0.35574739598E+03  0.12509000000E+03 0.  0.
         25    1    4    4    0    0  0.58214849490E+02 -0.27608490568E+02  0.69411436959E+02  0.15689695068E+03  0.12509000000E+03 0.  0.
<mgrwt>
<rscale>  2 0.46121689E+03</rscale>
<asrwt>0</asrwt>
<pdfrwt beam="1">  1       21 0.83318637E-01 0.46121689E+03</pdfrwt>
<pdfrwt beam="2">  1       21 0.13803538E-01 0.46121689E+03</pdfrwt>
<totfact> 0.52483337E+04</totfact>
</mgrwt>
</event>
<event>
 7    0  0.4705418E-002  0.4426212E+03  0.7546771E-02  0.1029946E+00
         21   -1    0    0  502  501  0.00000000000E+00  0.00000000000E+00  0.16140458921E+03  0.16140458921E+03  0.00000000000E+00 0. -1.
         21   -1    0    0  501  502 -0.00000000000E+00 -0.00000000000E+00 -0.30345100499E+03  0.30345100499E+03  0.00000000000E+00 0. -1.
      99926    2    1    2    0    0  0.00000000000E+00  0.00000000000E+00 -0.14204641578E+03  0.46485559420E+03  0.44262121416E+03 0.  0.
      99925    2    3    3    0    0  0.41271263137E+02  0.30856574287E+02  0.92490980376E+00  0.26802126443E+03  0.26301919586E+03 0.  0.
         25    1    4    4    0    0  0.31569550308E+02  0.48150226081E+02  0.22542731574E+02  0.13953767816E+03  0.12509000000E+03 0.  0.
         25    1    4    4    0    0  0.97017128295E+01 -0.17293651794E+02 -0.21617821770E+02  0.12848358628E+03  0.12509000000E+03 0.  0.
         25    1    3    3    0    0 -0.41271263137E+02 -0.30856574287E+02 -0.14297132558E+03  0.19683432977E+03  0.12509000000E+03 0.  0.
<mgrwt>
<rscale>  2 0.44262121E+03</rscale>
<asrwt>0</asrwt>
<pdfrwt beam="1">  1       21 0.23735970E-01 0.44262121E+03</pdfrwt>
<pdfrwt beam="2">  1       21 0.44625147E-01 0.44262121E+03</pdfrwt>
<totfact> 0.74912038E+04</totfact>
</mgrwt>
</event>
<event>
 7    0  0.4705418E-002  0.4343835E+03  0.7546771E-02  0.1032484E+00
         21   -1    0    0  502  501  0.00000000000E+00  0.00000000000E+00  0.10162026106E+03  0.10162026106E+03  0.00000000000E+00 0.  1.
         21   -1    0    0  501  502 -0.00000000000E+00 -0.00000000000E+00 -0.46420119120E+03  0.46420119120E+03  0.00000000000E+00 0.  1.
      99926    2    1    2    0    0  0.14210854715E-13 -0.35527136788E-14 -0.36258093014E+03  0.56582145225E+03  0.43438345380E+03 0.  0.
      99925    2    3    3    0    0  0.85155395113E+02  0.18912042655E+02 -0.27306212640E+03  0.38898754431E+03  0.26294348839E+03 0.  0.
         25    1    4    4    0    0  0.44330930777E+01 -0.87655232223E+01 -0.11771428109E+03  0.17204838501E+03  0.12509000000E+03 0.  0.
         25    1    4    4    0    0  0.80722302036E+02  0.27677565877E+02 -0.15534784530E+03  0.21693915930E+03  0.12509000000E+03 0.  0.
         25    1    3    3    0    0 -0.85155395113E+02 -0.18912042655E+02 -0.89518803742E+02  0.17683390794E+03  0.12509000000E+03 0.  0.
<mgrwt>
<rscale>  2 0.43438345E+03</rscale>
<asrwt>0</asrwt>
<pdfrwt beam="1">  1       21 0.14944156E-01 0.43438345E+03</pdfrwt>
<pdfrwt beam="2">  1       21 0.68264881E-01 0.43438345E+03</pdfrwt>
<totfact> 0.71850496E+04</totfact>
</mgrwt>
</event>
<event>
 7    0  0.4705418E-002  0.4605466E+03  0.7546771E-02  0.1024623E+00
         21   -1    0    0  502  501  0.00000000000E+00  0.00000000000E+00  0.22197138878E+03  0.22197138878E+03  0.00000000000E+00 0. -1.
         21   -1    0    0  501  502 -0.00000000000E+00 -0.00000000000E+00 -0.23888573312E+03  0.23888573312E+03  0.00000000000E+00 0. -1.
      99926    2    1    2    0    0 -0.14210854715E-13 -0.71054273576E-14 -0.16914344341E+02  0.46085712191E+03  0.46054662280E+03 0.  0.
      99925    2    3    3    0    0  0.97397489832E+02  0.60385543383E+02  0.19279864338E+02  0.28739181207E+03  0.26284911185E+03 0.  0.
         25    1    4    4    0    0  0.67031234570E+02  0.55546310801E+02  0.38405543006E+02  0.15716574972E+03  0.12509000000E+03 0.  0.
         25    1    4    4    0    0  0.30366255263E+02  0.48392325822E+01 -0.19125678667E+02  0.13022606235E+03  0.12509000000E+03 0.  0.
         25    1    3    3    0    0 -0.97397489832E+02 -0.60385543383E+02 -0.36194208679E+02  0.17346530984E+03  0.12509000000E+03 0.  0.
<mgrwt>
<rscale>  2 0.46054662E+03</rscale>
<asrwt>0</asrwt>
<pdfrwt beam="1">  1       21 0.32642851E-01 0.46054662E+03</pdfrwt>
<pdfrwt beam="2">  1       21 0.35130255E-01 0.46054662E+03</pdfrwt>
<totfact> 0.65185850E+04</totfact>
</mgrwt>
</event>
<event>
 7    0  0.4705418E-002  0.4515311E+03  0.7546771E-02  0.1027266E+00
         21   -1    0    0  502  501  0.00000000000E+00  0.00000000000E+00  0.30973782945E+03  0.30973782945E+03  0.00000000000E+00 0.  1.
         21   -1    0    0  501  502 -0.00000000000E+00 -0.00000000000E+00 -0.16455878279E+03  0.16455878279E+03  0.00000000000E+00 0.  1.
      99926    2    1    2    0    0 -0.14210854715E-13  0.00000000000E+00  0.14517904666E+03  0.47429661224E+03  0.45153108508E+03 0.  0.
      99925    2    3    3    0    0  0.88671616197E+02  0.46519249942E+02  0.44941166760E+02  0.28529439849E+03  0.26333721576E+03 0.  0.
         25    1    4    4    0    0  0.33205809889E+02  0.32345954907E+02 -0.16893940077E+02  0.13446858340E+03  0.12509000000E+03 0.  0.
         25    1    4    4    0    0  0.55465806308E+02  0.14173295035E+02  0.61835106837E+02  0.15082581510E+03  0.12509000000E+03 0.  0.
         25    1    3    3    0    0 -0.88671616197E+02 -0.46519249942E+02  0.10023787990E+03  0.18900221375E+03  0.12509000000E+03 0.  0.
<mgrwt>
<rscale>  2 0.45153109E+03</rscale>
<asrwt>0</asrwt>
<pdfrwt beam="1">  1       21 0.45549681E-01 0.45153109E+03</pdfrwt>
<pdfrwt beam="2">  1       21 0.24199821E-01 0.45153109E+03</pdfrwt>
<totfact> 0.68997724E+04</totfact>
</mgrwt>
</event>
<event>
 7    0  0.4705418E-002  0.4273012E+03  0.7546771E-02  0.1034716E+00
         21   -1    0    0  502  501  0.00000000000E+00  0.00000000000E+00  0.58458043244E+02  0.58458043244E+02  0.00000000000E+00 0. -1.
         21   -1    0    0  501  502 -0.00000000000E+00 -0.00000000000E+00 -0.78084333291E+03  0.78084333291E+03  0.00000000000E+00 0. -1.
      99926    2    1    2    0    0  0.35527136788E-14  0.00000000000E+00 -0.72238528967E+03  0.83930137616E+03  0.42730117399E+03 0.  0.
      99925    2    3    3    0    0 -0.29604448086E+02  0.69836206514E+02 -0.54064008535E+03  0.60599396847E+03  0.26302750589E+03 0.  0.
         25    1    4    4    0    0 -0.51951224382E+02  0.53389547707E+02 -0.29159842489E+03  0.32592410622E+03  0.12509000000E+03 0.  0.
         25    1    3    3    0    0  0.29604448086E+02 -0.69836206514E+02 -0.18174520432E+03  0.23330740768E+03  0.12509000000E+03 0.  0.
         25    1    4    4    0    0  0.22346776296E+02  0.16446658807E+02 -0.24904166046E+03  0.28006986225E+03  0.12509000000E+03 0.  0.
<mgrwt>
<rscale>  2 0.42730117E+03</rscale>
<asrwt>0</asrwt>
<pdfrwt beam="1">  1       21 0.85967716E-02 0.42730117E+03</pdfrwt>
<pdfrwt beam="2">  1       21 0.11482989E+00 0.42730117E+03</pdfrwt>
<totfact> 0.57416524E+04</totfact>
</mgrwt>
</event>
<event>
 7    0  0.4705418E-002  0.4553428E+03  0.7546771E-02  0.1026141E+00
         21   -1    0    0  502  501  0.00000000000E+00  0.00000000000E+00  0.33535388314E+02  0.33535388314E+02  0.00000000000E+00 0. -1.
         21   -1    0    0  501  502 -0.00000000000E+00 -0.00000000000E+00 -0.15456590579E+04  0.15456590579E+04  0.00000000000E+00 0. -1.
      99926    2    1    2    0    0  0.71054273576E-14 -0.35527136788E-14 -0.15121236696E+04  0.15791944462E+04  0.45534284537E+03 0.  0.
      99925    2    3    3    0    0  0.50587705265E+02 -0.82550654113E+01 -0.13023493007E+04  0.13296347220E+04  0.26303522725E+03 0.  0.
         25    1    4    4    0    0  0.35566841983E+02 -0.43338035189E+02 -0.68648921115E+03  0.70004152068E+03  0.12509000000E+03 0.  0.
         25    1    4    4    0    0  0.15020863283E+02  0.35082969777E+02 -0.61586008955E+03  0.62959320128E+03  0.12509000000E+03 0.  0.
         25    1    3    3    0    0 -0.50587705265E+02  0.82550654113E+01 -0.20977436888E+03  0.24955972425E+03  0.12509000000E+03 0.  0.
<mgrwt>
<rscale>  2 0.45534285E+03</rscale>
<asrwt>0</asrwt>
<pdfrwt beam="1">  1       21 0.49316740E-02 0.45534285E+03</pdfrwt>
<pdfrwt beam="2">  1       21 0.22730284E+00 0.45534285E+03</pdfrwt>
<totfact> 0.21844967E+04</totfact>
</mgrwt>
</event>
<event>
 7    0  0.4705418E-002  0.4456386E+03  0.7546771E-02  0.1029031E+00
         21   -1    0    0  502  501  0.00000000000E+00  0.00000000000E+00  0.42791152436E+02  0.42791152436E+02  0.00000000000E+00 0. -1.
         21   -1    0    0  501  502 -0.00000000000E+00 -0.00000000000E+00 -0.11602500940E+04  0.11602500940E+04  0.00000000000E+00 0. -1.
      99926    2    1    2    0    0  0.00000000000E+00  0.00000000000E+00 -0.11174589416E+04  0.12030412464E+04  0.44563859185E+03 0.  0.
      99925    2    3    3    0    0  0.15590113596E+02 -0.10260737301E+03 -0.67676915703E+03  0.73333248675E+03  0.26265703792E+03 0.  0.
         25    1    3    3    0    0 -0.15590113596E+02  0.10260737301E+03 -0.44068978454E+03  0.46970875970E+03  0.12509000000E+03 0.  0.
         25    1    4    4    0    0 -0.27420284465E+02 -0.70395956600E+02 -0.36195007435E+03  0.39033681242E+03  0.12509000000E+03 0.  0.
         25    1    4    4    0    0  0.43010398061E+02 -0.32211416411E+02 -0.31481908268E+03  0.34299567433E+03  0.12509000000E+03 0.  0.
<mgrwt>
<rscale>  2 0.44563859E+03</rscale>
<asrwt>0</asrwt>
<pdfrwt beam="1">  1       21 0.62928173E-02 0.44563859E+03</pdfrwt>
<pdfrwt beam="2">  1       21 0.17062499E+00 0.44563859E+03</pdfrwt>
<totfact> 0.34508283E+04</totfact>
</mgrwt>
</event>
<event>
 7    0  0.4705418E-002  0.4557901E+03  0.7546771E-02  0.1026009E+00
         21   -1    0    0  502  501  0.00000000000E+00  0.00000000000E+00  0.32509222602E+03  0.32509222602E+03  0.00000000000E+00 0.  1.
         21   -1    0    0  501  502 -0.00000000000E+00 -0.00000000000E+00 -0.15975818500E+03  0.15975818500E+03  0.00000000000E+00 0.  1.
      99926    2    1    2    0    0  0.00000000000E+00 -0.35527136788E-14  0.16533404102E+03  0.48485041102E+03  0.45579005688E+03 0.  0.
      99925    2    3    3    0    0  0.10346670345E+03 -0.17862610501E+02  0.57348178165E+02  0.28906255069E+03  0.26314238179E+03 0.  0.
         25    1    4    4    0    0  0.68023068821E+02 -0.37786252271E+02  0.55770922707E+02  0.15752092773E+03  0.12509000000E+03 0.  0.
         25    1    3    3    0    0 -0.10346670345E+03  0.17862610501E+02  0.10798586286E+03  0.19578786033E+03  0.12509000000E+03 0.  0.
         25    1    4    4    0    0  0.35443634627E+02  0.19923641770E+02  0.15772554584E+01  0.13154162296E+03  0.12509000000E+03 0.  0.
<mgrwt>
<rscale>  2 0.45579006E+03</rscale>
<asrwt>0</asrwt>
<pdfrwt beam="1">  1       21 0.47807680E-01 0.45579006E+03</pdfrwt>
<pdfrwt beam="2">  1       21 0.23493851E-01 0.45579006E+03</pdfrwt>
<totfact> 0.65934199E+04</totfact>
</mgrwt>
</event>
<event>
 7    0  0.4705418E-002  0.4656799E+03  0.7546771E-02  0.1023147E+00
         21   -1    0    0  502  501  0.00000000000E+00  0.00000000000E+00  0.80131953423E+02  0.80131953423E+02  0.00000000000E+00 0.  1.
         21   -1    0    0  501  502 -0.00000000000E+00 -0.00000000000E+00 -0.67656448903E+03  0.67656448903E+03  0.00000000000E+00 0.  1.
      99926    2    1    2    0    0 -0.71054273576E-14  0.00000000000E+00 -0.59643253561E+03  0.75669644246E+03  0.46567986481E+03 0.  0.
      99925    2    3    3    0    0 -0.36995604665E+02  0.97932680644E+02 -0.26767890398E+03  0.38970060718E+03  0.26316360481E+03 0.  0.
         25    1    4    4    0    0  0.17394883145E+02  0.30564552697E+02 -0.14087976890E+03  0.19165435353E+03  0.12509000000E+03 0.  0.
         25    1    3    3    0    0  0.36995604665E+02 -0.97932680644E+02 -0.32875363162E+03  0.36699583527E+03  0.12509000000E+03 0.  0.
         25    1    4    4    0    0 -0.54390487811E+02  0.67368127947E+02 -0.12679913509E+03  0.19804625365E+03  0.12509000000E+03 0.  0.
<mgrwt>
<rscale>  2 0.46567986E+03</rscale>
<asrwt>0</asrwt>
<pdfrwt beam="1">  1       21 0.11784112E-01 0.46567986E+03</pdfrwt>
<pdfrwt beam="2">  1       21 0.99494768E-01 0.46567986E+03</pdfrwt>
<totfact> 0.45950919E+04</totfact>
</mgrwt>
</event>
<event>
 7    0  0.4705418E-002  0.4470196E+03  0.7546771E-02  0.1028615E+00
         21   -1    0    0  502  501  0.00000000000E+00  0.00000000000E+00  0.73898905194E+02  0.73898905194E+02  0.00000000000E+00 0.  1.
         21   -1    0    0  501  502 -0.00000000000E+00 -0.00000000000E+00 -0.67601311041E+03  0.67601311041E+03  0.00000000000E+00 0.  1.
      99926    2    1    2    0    0  0.00000000000E+00 -0.17763568394E-14 -0.60211420521E+03  0.74991201560E+03  0.44701959132E+03 0.  0.
      99925    2    3    3    0    0 -0.96719860184E+02  0.12416357365E+02 -0.44943423028E+03  0.52975847798E+03  0.26295250589E+03 0.  0.
         25    1    4    4    0    0 -0.70225015001E+02 -0.24404713186E+02 -0.20408180766E+03  0.25064723233E+03  0.12509000000E+03 0.  0.
         25    1    4    4    0    0 -0.26494845183E+02  0.36821070551E+02 -0.24535242262E+03  0.27911124564E+03  0.12509000000E+03 0.  0.
         25    1    3    3    0    0  0.96719860184E+02 -0.12416357365E+02 -0.15267997493E+03  0.22015353762E+03  0.12509000000E+03 0.  0.
<mgrwt>
<rscale>  2 0.44701959E+03</rscale>
<asrwt>0</asrwt>
<pdfrwt beam="1">  1       21 0.10867486E-01 0.44701959E+03</pdfrwt>
<pdfrwt beam="2">  1       21 0.99413696E-01 0.44701959E+03</pdfrwt>
<totfact> 0.53556329E+04</totfact>
</mgrwt>
</event>
<event>
 7    0  0.4705418E-002  0.4565857E+03  0.7546771E-02  0.1025776E+00
         21   -1    0    0  502  501  0.00000000000E+00  0.00000000000E+00  0.91665283389E+02  0.91665283389E+02  0.00000000000E+00 0.  1.
         21   -1    0    0  501  502 -0.00000000000E+00 -0.00000000000E+00 -0.56856441345E+03  0.56856441345E+03  0.00000000000E+00 0.  1.
      99926    2    1    2    0    0  0.00000000000E+00  0.00000000000E+00 -0.47689913007E+03  0.66022969684E+03  0.45658566812E+03 0.  0.
      99925    2    3    3    0    0 -0.43620486214E+02  0.10381208702E+03 -0.33106701781E+03  0.43753212323E+03  0.26296253031E+03 0.  0.
         25    1    3    3    0    0  0.43620486214E+02 -0.10381208702E+03 -0.14583211226E+03  0.22269757362E+03  0.12509000000E+03 0.  0.
         25    1    4    4    0    0 -0.37432223326E+01  0.41442074787E+02 -0.21195847292E+03  0.24961041569E+03  0.12509000000E+03 0.  0.
         25    1    4    4    0    0 -0.39877263881E+02  0.62370012232E+02 -0.11910854488E+03  0.18792170754E+03  0.12509000000E+03 0.  0.
<mgrwt>
<rscale>  2 0.45658567E+03</rscale>
<asrwt>0</asrwt>
<pdfrwt beam="1">  1       21 0.13480189E-01 0.45658567E+03</pdfrwt>
<pdfrwt beam="2">  1       21 0.83612414E-01 0.45658567E+03</pdfrwt>
<totfact> 0.54431717E+04</totfact>
</mgrwt>
</event>
<event>
 7    0  0.4705418E-002  0.4576211E+03  0.7546771E-02  0.1025473E+00
         21   -1    0    0  502  501  0.00000000000E+00  0.00000000000E+00  0.11804166198E+03  0.11804166198E+03  0.00000000000E+00 0.  1.
         21   -1    0    0  501  502 -0.00000000000E+00 -0.00000000000E+00 -0.44352356652E+03  0.44352356652E+03  0.00000000000E+00 0.  1.
      99926    2    1    2    0    0  0.00000000000E+00 -0.35527136788E-14 -0.32548190454E+03  0.56156522850E+03  0.45762106122E+03 0.  0.
      99925    2    3    3    0    0 -0.80419445825E+02  0.25476996866E+02 -0.10718541400E+03  0.29620277727E+03  0.26292776128E+03 0.  0.
         25    1    4    4    0    0 -0.37059622265E+02 -0.94709842903E+01 -0.16209116298E+02  0.13180803730E+03  0.12509000000E+03 0.  0.
         25    1    3    3    0    0  0.80419445825E+02 -0.25476996866E+02 -0.21829649055E+03  0.26536245123E+03  0.12509000000E+03 0.  0.
         25    1    4    4    0    0 -0.43359823559E+02  0.34947981156E+02 -0.90976297697E+02  0.16439473997E+03  0.12509000000E+03 0.  0.
<mgrwt>
<rscale>  2 0.45762106E+03</rscale>
<asrwt>0</asrwt>
<pdfrwt beam="1">  1       21 0.17359068E-01 0.45762106E+03</pdfrwt>
<pdfrwt beam="2">  1       21 0.65224053E-01 0.45762106E+03</pdfrwt>
<totfact> 0.59858043E+04</totfact>
</mgrwt>
</event>
<event>
 7    0  0.4705418E-002  0.4574479E+03  0.7546771E-02  0.1025524E+00
         21   -1    0    0  502  501  0.00000000000E+00  0.00000000000E+00  0.77646424879E+03  0.77646424879E+03  0.00000000000E+00 0.  1.
         21   -1    0    0  501  502 -0.00000000000E+00 -0.00000000000E+00 -0.67375462610E+02  0.67375462610E+02  0.00000000000E+00 0.  1.
      99926    2    1    2    0    0  0.00000000000E+00 -0.17763568394E-14  0.70908878618E+03  0.84383971140E+03  0.45744786790E+03 0.  0.
      99925    2    3    3    0    0  0.48958401808E+02 -0.99414918253E+01  0.63725213681E+03  0.69118398547E+03  0.26296246410E+03 0.  0.
         25    1    4    4    0    0  0.19844477458E+02 -0.24984391977E+02  0.22826462624E+03  0.26224086413E+03  0.12509000000E+03 0.  0.
         25    1    3    3    0    0 -0.48958401808E+02  0.99414918253E+01  0.71836649365E+02  0.15265572593E+03  0.12509000000E+03 0.  0.
         25    1    4    4    0    0  0.29113924350E+02  0.15042900152E+02  0.40898751057E+03  0.42894312134E+03  0.12509000000E+03 0.  0.
<mgrwt>
<rscale>  2 0.45744787E+03</rscale>
<asrwt>0</asrwt>
<pdfrwt beam="1">  1       21 0.11418591E+00 0.45744787E+03</pdfrwt>
<pdfrwt beam="2">  1       21 0.99081567E-02 0.45744787E+03</pdfrwt>
<totfact> 0.44848730E+04</totfact>
</mgrwt>
</event>
<event>
 7    0  0.4705418E-002  0.4502153E+03  0.7546771E-02  0.1027658E+00
         21   -1    0    0  502  501  0.00000000000E+00  0.00000000000E+00  0.88962089631E+03  0.88962089631E+03  0.00000000000E+00 0.  1.
         21   -1    0    0  501  502 -0.00000000000E+00 -0.00000000000E+00 -0.56960716858E+02  0.56960716858E+02  0.00000000000E+00 0.  1.
      99926    2    1    2    0    0  0.00000000000E+00  0.00000000000E+00  0.83266017945E+03  0.94658161317E+03  0.45021525512E+03 0.  0.
      99925    2    3    3    0    0  0.41354750572E+02 -0.44069039806E+02  0.33647628286E+03  0.43131637758E+03  0.26299283827E+03 0.  0.
         25    1    4    4    0    0  0.20948473536E+02 -0.49060118324E+02  0.12496591743E+03  0.18468817605E+03  0.12509000000E+03 0.  0.
         25    1    4    4    0    0  0.20406277036E+02  0.49910785177E+01  0.21151036543E+03  0.24662820153E+03  0.12509000000E+03 0.  0.
         25    1    3    3    0    0 -0.41354750572E+02  0.44069039806E+02  0.49618389659E+03  0.51526523558E+03  0.12509000000E+03 0.  0.
<mgrwt>
<rscale>  2 0.45021526E+03</rscale>
<asrwt>0</asrwt>
<pdfrwt beam="1">  1       21 0.13082659E+00 0.45021526E+03</pdfrwt>
<pdfrwt beam="2">  1       21 0.83765765E-02 0.45021526E+03</pdfrwt>
<totfact> 0.42860918E+04</totfact>
</mgrwt>
</event>
<event>
 7    0  0.4705418E-002  0.4556941E+03  0.7546771E-02  0.1026037E+00
         21   -1    0    0  502  501  0.00000000000E+00  0.00000000000E+00  0.15047137047E+03  0.15047137047E+03  0.00000000000E+00 0. -1.
         21   -1    0    0  501  502 -0.00000000000E+00 -0.00000000000E+00 -0.34501104454E+03  0.34501104454E+03  0.00000000000E+00 0. -1.
      99926    2    1    2    0    0  0.00000000000E+00  0.00000000000E+00 -0.19453967407E+03  0.49548241501E+03  0.45569412855E+03 0.  0.
      99925    2    3    3    0    0 -0.74686353860E+02  0.22745527631E+02 -0.21197603536E+03  0.34700027711E+03  0.26340072564E+03 0.  0.
         25    1    3    3    0    0  0.74686353860E+02 -0.22745527631E+02  0.17436361282E+02  0.14848213790E+03  0.12509000000E+03 0.  0.
         25    1    4    4    0    0 -0.21118262409E+01  0.22293937164E+02 -0.12493896076E+03  0.17820979619E+03  0.12509000000E+03 0.  0.
         25    1    4    4    0    0 -0.72574527619E+02  0.45159046710E+00 -0.87037074600E+02  0.16879048092E+03  0.12509000000E+03 0.  0.
<mgrwt>
<rscale>  2 0.45569413E+03</rscale>
<asrwt>0</asrwt>
<pdfrwt beam="1">  1       21 0.22128143E-01 0.45569413E+03</pdfrwt>
<pdfrwt beam="2">  1       21 0.50736918E-01 0.45569413E+03</pdfrwt>
<totfact> 0.65229033E+04</totfact>
</mgrwt>
</event>
<event>
 7    0  0.4705418E-002  0.4808324E+03  0.7546771E-02  0.1018907E+00
         21   -1    0    0  502  501  0.00000000000E+00  0.00000000000E+00  0.78017528345E+02  0.78017528345E+02  0.00000000000E+00 0.  1.
         21   -1    0    0  501  502 -0.00000000000E+00 -0.00000000000E+00 -0.74085855046E+03  0.74085855046E+03  0.00000000000E+00 0.  1.
      99926    2    1    2    0    0  0.00000000000E+00 -0.14210854715E-13 -0.66284102212E+03  0.81887607881E+03  0.48083241555E+03 0.  0.
      99925    2    3    3    0    0  0.79847775856E+02 -0.97751251141E+02 -0.32244992347E+03  0.43489094557E+03  0.26310683568E+03 0.  0.
         25    1    4    4    0    0  0.40384262395E+02 -0.90147667994E+02 -0.19488290042E+03  0.25176247470E+03  0.12509000000E+03 0.  0.
         25    1    4    4    0    0  0.39463513460E+02 -0.76035831476E+01 -0.12756702306E+03  0.18312847087E+03  0.12509000000E+03 0.  0.
         25    1    3    3    0    0 -0.79847775856E+02  0.97751251141E+02 -0.34039109864E+03  0.38398513323E+03  0.12509000000E+03 0.  0.
<mgrwt>
<rscale>  2 0.48083242E+03</rscale>
<asrwt>0</asrwt>
<pdfrwt beam="1">  1       21 0.11473166E-01 0.48083242E+03</pdfrwt>
<pdfrwt beam="2">  1       21 0.10894978E+00 0.48083242E+03</pdfrwt>
<totfact> 0.38456938E+04</totfact>
</mgrwt>
</event>
<event>
 7    0  0.4705418E-002  0.4537642E+03  0.7546771E-02  0.1026605E+00
         21   -1    0    0  502  501  0.00000000000E+00  0.00000000000E+00  0.12985446903E+03  0.12985446903E+03  0.00000000000E+00 0. -1.
         21   -1    0    0  501  502 -0.00000000000E+00 -0.00000000000E+00 -0.39640901733E+03  0.39640901733E+03  0.00000000000E+00 0. -1.
      99926    2    1    2    0    0  0.00000000000E+00  0.00000000000E+00 -0.26655454830E+03  0.52626348635E+03  0.45376417868E+03 0.  0.
      99925    2    3    3    0    0  0.45550358583E+02  0.73853874841E+02 -0.25004848780E+03  0.37313220892E+03  0.26300982697E+03 0.  0.
         25    1    4    4    0    0 -0.52156400305E+01  0.81112024001E+01 -0.13216526658E+03  0.18223106293E+03  0.12509000000E+03 0.  0.
         25    1    4    4    0    0  0.50765998613E+02  0.65742672441E+02 -0.11788322122E+03  0.19090114599E+03  0.12509000000E+03 0.  0.
         25    1    3    3    0    0 -0.45550358583E+02 -0.73853874841E+02 -0.16506060497E+02  0.15313127744E+03  0.12509000000E+03 0.  0.
<mgrwt>
<rscale>  2 0.45376418E+03</rscale>
<asrwt>0</asrwt>
<pdfrwt beam="1">  1       21 0.19096245E-01 0.45376418E+03</pdfrwt>
<pdfrwt beam="2">  1       21 0.58295444E-01 0.45376418E+03</pdfrwt>
<totfact> 0.64085673E+04</totfact>
</mgrwt>
</event>
<event>
 7    0  0.4705418E-002  0.4554474E+03  0.7546771E-02  0.1026110E+00
         21   -1    0    0  502  501  0.00000000000E+00  0.00000000000E+00  0.57468935820E+03  0.57468935820E+03  0.00000000000E+00 0. -1.
         21   -1    0    0  501  502 -0.00000000000E+00 -0.00000000000E+00 -0.90236726875E+02  0.90236726875E+02  0.00000000000E+00 0. -1.
      99926    2    1    2    0    0  0.00000000000E+00  0.00000000000E+00  0.48445263133E+03  0.66492608507E+03  0.45544741367E+03 0.  0.
      99925    2    3    3    0    0 -0.99496339118E+02  0.72544936178E+01  0.38355859820E+03  0.47577201244E+03  0.26322929242E+03 0.  0.
         25    1    3    3    0    0  0.99496339118E+02 -0.72544936178E+01  0.10089403312E+03  0.18915407264E+03  0.12509000000E+03 0.  0.
         25    1    4    4    0    0 -0.67077519480E+01 -0.11324697896E+01  0.16089245077E+03  0.20391215079E+03  0.12509000000E+03 0.  0.
         25    1    4    4    0    0 -0.92788587170E+02  0.83869634074E+01  0.22266614743E+03  0.27185986165E+03  0.12509000000E+03 0.  0.
<mgrwt>
<rscale>  2 0.45544741E+03</rscale>
<asrwt>0</asrwt>
<pdfrwt beam="1">  1       21 0.84513139E-01 0.45544741E+03</pdfrwt>
<pdfrwt beam="2">  1       21 0.13270107E-01 0.45544741E+03</pdfrwt>
<totfact> 0.54655683E+04</totfact>
</mgrwt>
</event>
<event>
 7    0  0.4705418E-002  0.4567698E+03  0.7546771E-02  0.1025722E+00
         21   -1    0    0  502  501  0.00000000000E+00  0.00000000000E+00  0.10050120733E+04  0.10050120733E+04  0.00000000000E+00 0.  1.
         21   -1    0    0  501  502 -0.00000000000E+00 -0.00000000000E+00 -0.51899537280E+02  0.51899537280E+02  0.00000000000E+00 0.  1.
      99926    2    1    2    0    0  0.00000000000E+00  0.00000000000E+00  0.95311253602E+03  0.10569116106E+04  0.45676979570E+03 0.  0.
      99925    2    3    3    0    0  0.93441964135E+01 -0.97259017269E+02  0.45963676767E+03  0.53853677275E+03  0.26307654202E+03 0.  0.
         25    1    4    4    0    0 -0.12402127040E+02 -0.14965907776E+02  0.24717436184E+03  0.27770571547E+03  0.12509000000E+03 0.  0.
         25    1    4    4    0    0  0.21746323453E+02 -0.82293109493E+02  0.21246240583E+03  0.26083105729E+03  0.12509000000E+03 0.  0.
         25    1    3    3    0    0 -0.93441964135E+01  0.97259017269E+02  0.49347576835E+03  0.51837483783E+03  0.12509000000E+03 0.  0.
<mgrwt>
<rscale>  2 0.45676980E+03</rscale>
<asrwt>0</asrwt>
<pdfrwt beam="1">  1       21 0.14779588E+00 0.45676980E+03</pdfrwt>
<pdfrwt beam="2">  1       21 0.76322855E-02 0.45676980E+03</pdfrwt>
<totfact> 0.36517776E+04</totfact>
</mgrwt>
</event>
<event>
 7    0  0.4705418E-002  0.4538995E+03  0.7546771E-02  0.1026566E+00
         21   -1    0    0  502  501  0.00000000000E+00  0.00000000000E+00  0.21578864684E+03  0.21578864684E+03  0.00000000000E+00 0.  1.
         21   -1    0    0  501  502 -0.00000000000E+00 -0.00000000000E+00 -0.23868816262E+03  0.23868816262E+03  0.00000000000E+00 0.  1.
      99926    2    1    2    0    0  0.00000000000E+00  0.00000000000E+00 -0.22899515785E+02  0.45447680946E+03  0.45389952910E+03 0.  0.
      99925    2    3    3    0    0  0.75682486883E+02  0.12601362378E+02  0.67435147905E+02  0.28215590905E+03  0.26301677643E+03 0.  0.
         25    1    4    4    0    0  0.70775202972E+02 -0.14565276005E+02  0.50032729363E+02  0.15287922922E+03  0.12509000000E+03 0.  0.
         25    1    3    3    0    0 -0.75682486883E+02 -0.12601362378E+02 -0.90334663690E+02  0.17232090041E+03  0.12509000000E+03 0.  0.
         25    1    4    4    0    0  0.49072839110E+01  0.27166638383E+02  0.17402418542E+02  0.12927667983E+03  0.12509000000E+03 0.  0.
<mgrwt>
<rscale>  2 0.45389953E+03</rscale>
<asrwt>0</asrwt>
<pdfrwt beam="1">  1       21 0.31733625E-01 0.45389953E+03</pdfrwt>
<pdfrwt beam="2">  1       21 0.35101200E-01 0.45389953E+03</pdfrwt>
<totfact> 0.69189693E+04</totfact>
</mgrwt>
</event>
<event>
 7    0  0.4705418E-002  0.4445229E+03  0.7546771E-02  0.1029368E+00
         21   -1    0    0  502  501  0.00000000000E+00  0.00000000000E+00  0.28073545707E+03  0.28073545707E+03  0.00000000000E+00 0.  1.
         21   -1    0    0  501  502 -0.00000000000E+00 -0.00000000000E+00 -0.17596694860E+03  0.17596694860E+03  0.00000000000E+00 0.  1.
      99926    2    1    2    0    0  0.00000000000E+00 -0.11102230246E-14  0.10476850847E+03  0.45670240567E+03  0.44452294314E+03 0.  0.
      99925    2    3    3    0    0 -0.74929703069E+02 -0.60701183380E+00  0.13931730953E+03  0.30684928886E+03  0.26293030345E+03 0.  0.
         25    1    4    4    0    0 -0.32804504371E+02  0.37002006234E+02  0.85763660479E+02  0.15952491195E+03  0.12509000000E+03 0.  0.
         25    1    3    3    0    0  0.74929703069E+02  0.60701183380E+00 -0.34548801059E+02  0.14985311682E+03  0.12509000000E+03 0.  0.
         25    1    4    4    0    0 -0.42125198698E+02 -0.37609018068E+02  0.53553649053E+02  0.14732437691E+03  0.12509000000E+03 0.  0.
<mgrwt>
<rscale>  2 0.44452294E+03</rscale>
<asrwt>0</asrwt>
<pdfrwt beam="1">  1       21 0.41284626E-01 0.44452294E+03</pdfrwt>
<pdfrwt beam="2">  1       21 0.25877492E-01 0.44452294E+03</pdfrwt>
<totfact> 0.74433859E+04</totfact>
</mgrwt>
</event>
<event>
 7    0  0.4705418E-002  0.4638324E+03  0.7546771E-02  0.1023676E+00
         21   -1    0    0  502  501  0.00000000000E+00  0.00000000000E+00  0.58698076892E+03  0.58698076892E+03  0.00000000000E+00 0.  1.
         21   -1    0    0  501  502 -0.00000000000E+00 -0.00000000000E+00 -0.91630147378E+02  0.91630147378E+02  0.00000000000E+00 0.  1.
      99926    2    1    2    0    0  0.71054273576E-14  0.44408920985E-15  0.49535062154E+03  0.67861091630E+03  0.46383244545E+03 0.  0.
      99925    2    3    3    0    0 -0.47431252557E+02 -0.21166969103E+01  0.47255005098E+03  0.54288480148E+03  0.26299458715E+03 0.  0.
         25    1    4    4    0    0 -0.20622688367E+02  0.32908963637E+02  0.27939729154E+03  0.30857519307E+03  0.12509000000E+03 0.  0.
         25    1    4    4    0    0 -0.26808564189E+02 -0.35025660547E+02  0.19315275944E+03  0.23430960841E+03  0.12509000000E+03 0.  0.
         25    1    3    3    0    0  0.47431252557E+02  0.21166969103E+01  0.22800570559E+02  0.13572611481E+03  0.12509000000E+03 0.  0.
<mgrwt>
<rscale>  2 0.46383245E+03</rscale>
<asrwt>0</asrwt>
<pdfrwt beam="1">  1       21 0.86320700E-01 0.46383245E+03</pdfrwt>
<pdfrwt beam="2">  1       21 0.13475022E-01 0.46383245E+03</pdfrwt>
<totfact> 0.50473911E+04</totfact>
</mgrwt>
</event>
<event>
 7    0  0.4705418E-002  0.4639822E+03  0.7546771E-02  0.1023633E+00
         21   -1    0    0  502  501  0.00000000000E+00  0.00000000000E+00  0.17047523030E+03  0.17047523030E+03  0.00000000000E+00 0.  1.
         21   -1    0    0  501  502 -0.00000000000E+00 -0.00000000000E+00 -0.31570495995E+03  0.31570495995E+03  0.00000000000E+00 0.  1.
      99926    2    1    2    0    0  0.00000000000E+00 -0.71054273576E-14 -0.14522972965E+03  0.48618019025E+03  0.46398222274E+03 0.  0.
      99925    2    3    3    0    0  0.11014094874E+03 -0.34827441454E+02 -0.51993721603E+02  0.29205538358E+03  0.26315208668E+03 0.  0.
         25    1    4    4    0    0  0.41295050262E+02  0.96817854528E+01 -0.53444058157E+02  0.14248787176E+03  0.12509000000E+03 0.  0.
         25    1    4    4    0    0  0.68845898474E+02 -0.44509226907E+02  0.14503365536E+01  0.14956751182E+03  0.12509000000E+03 0.  0.
         25    1    3    3    0    0 -0.11014094874E+03  0.34827441454E+02 -0.93236008052E+02  0.19412480667E+03  0.12509000000E+03 0.  0.
<mgrwt>
<rscale>  2 0.46398222E+03</rscale>
<asrwt>0</asrwt>
<pdfrwt beam="1">  1       21 0.25069887E-01 0.46398222E+03</pdfrwt>
<pdfrwt beam="2">  1       21 0.46427200E-01 0.46398222E+03</pdfrwt>
<totfact> 0.61732716E+04</totfact>
</mgrwt>
</event>
<event>
 7    0  0.4705418E-002  0.4578299E+03  0.7546771E-02  0.1025413E+00
         21   -1    0    0  502  501  0.00000000000E+00  0.00000000000E+00  0.73275692862E+03  0.73275692862E+03  0.00000000000E+00 0.  1.
         21   -1    0    0  501  502 -0.00000000000E+00 -0.00000000000E+00 -0.71513543348E+02  0.71513543348E+02  0.00000000000E+00 0.  1.
      99926    2    1    2    0    0  0.00000000000E+00 -0.14210854715E-13  0.66124338527E+03  0.80427047197E+03  0.45782985651E+03 0.  0.
      99925    2    3    3    0    0 -0.41347179861E+02  0.10459475475E+03  0.36668826317E+03  0.46506569597E+03  0.26301362554E+03 0.  0.
         25    1    4    4    0    0 -0.12238860796E+02  0.11262186975E+02  0.18276930213E+03  0.22210077098E+03  0.12509000000E+03 0.  0.
         25    1    3    3    0    0  0.41347179861E+02 -0.10459475475E+03  0.29455512210E+03  0.33920477600E+03  0.12509000000E+03 0.  0.
         25    1    4    4    0    0 -0.29108319065E+02  0.93332567772E+02  0.18391896104E+03  0.24296492499E+03  0.12509000000E+03 0.  0.
<mgrwt>
<rscale>  2 0.45782986E+03</rscale>
<asrwt>0</asrwt>
<pdfrwt beam="1">  1       21 0.10775837E+00 0.45782986E+03</pdfrwt>
<pdfrwt beam="2">  1       21 0.10516698E-01 0.45782986E+03</pdfrwt>
<totfact> 0.46517280E+04</totfact>
</mgrwt>
</event>
<event>
 7    0  0.4705418E-002  0.4562151E+03  0.7546771E-02  0.1025885E+00
         21   -1    0    0  502  501  0.00000000000E+00  0.00000000000E+00  0.12966995167E+03  0.12966995167E+03  0.00000000000E+00 0.  1.
         21   -1    0    0  501  502 -0.00000000000E+00 -0.00000000000E+00 -0.40127309139E+03  0.40127309139E+03  0.00000000000E+00 0.  1.
      99926    2    1    2    0    0  0.00000000000E+00 -0.14210854715E-13 -0.27160313972E+03  0.53094304306E+03  0.45621513507E+03 0.  0.
      99925    2    3    3    0    0  0.26943128640E+01  0.11399703625E+03 -0.16184593866E+03  0.32920872550E+03  0.26302413100E+03 0.  0.
         25    1    4    4    0    0  0.10938406230E+02  0.16646684803E+02 -0.87417345843E+02  0.15390276573E+03  0.12509000000E+03 0.  0.
         25    1    4    4    0    0 -0.82440933660E+01  0.97350351446E+02 -0.74428592812E+02  0.17530595977E+03  0.12509000000E+03 0.  0.
         25    1    3    3    0    0 -0.26943128640E+01 -0.11399703625E+03 -0.10975720107E+03  0.20173431756E+03  0.12509000000E+03 0.  0.
<mgrwt>
<rscale>  2 0.45621514E+03</rscale>
<asrwt>0</asrwt>
<pdfrwt beam="1">  1       21 0.19069111E-01 0.45621514E+03</pdfrwt>
<pdfrwt beam="2">  1       21 0.59010749E-01 0.45621514E+03</pdfrwt>
<totfact> 0.62538248E+04</totfact>
</mgrwt>
</event>
<event>
 7    0  0.4705418E-002  0.4340918E+03  0.7546771E-02  0.1032575E+00
         21   -1    0    0  502  501  0.00000000000E+00  0.00000000000E+00  0.74663704644E+03  0.74663704644E+03  0.00000000000E+00 0.  1.
         21   -1    0    0  501  502 -0.00000000000E+00 -0.00000000000E+00 -0.63094805613E+02  0.63094805613E+02  0.00000000000E+00 0.  1.
      99926    2    1    2    0    0 -0.35527136788E-14  0.17763568394E-14  0.68354224083E+03  0.80973185205E+03  0.43409178434E+03 0.  0.
      99925    2    3    3    0    0  0.21819625974E+02 -0.14357919870E+02  0.60366564909E+03  0.65903339835E+03  0.26311700499E+03 0.  0.
         25    1    4    4    0    0  0.43166399534E+02  0.10264347702E+02  0.35021657291E+03  0.37452349849E+03  0.12509000000E+03 0.  0.
         25    1    3    3    0    0 -0.21819625974E+02  0.14357919870E+02  0.79876591739E+02  0.15069845370E+03  0.12509000000E+03 0.  0.
         25    1    4    4    0    0 -0.21346773560E+02 -0.24622267572E+02  0.25344907618E+03  0.28450989986E+03  0.12509000000E+03 0.  0.
<mgrwt>
<rscale>  2 0.43409178E+03</rscale>
<asrwt>0</asrwt>
<pdfrwt beam="1">  1       21 0.10979956E+00 0.43409178E+03</pdfrwt>
<pdfrwt beam="2">  1       21 0.92786483E-02 0.43409178E+03</pdfrwt>
<totfact> 0.55924179E+04</totfact>
</mgrwt>
</event>
<event>
 7    0  0.4705418E-002  0.4670397E+03  0.7546771E-02  0.1022759E+00
         21   -1    0    0  502  501  0.00000000000E+00  0.00000000000E+00  0.56348732567E+03  0.56348732567E+03  0.00000000000E+00 0.  1.
         21   -1    0    0  501  502 -0.00000000000E+00 -0.00000000000E+00 -0.96775044913E+02  0.96775044913E+02  0.00000000000E+00 0.  1.
      99926    2    1    2    0    0 -0.17763568394E-14  0.00000000000E+00  0.46671228076E+03  0.66026237059E+03  0.46703966106E+03 0.  0.
      99925    2    3    3    0    0  0.97954133673E+01  0.20797585291E+02  0.11818205465E+03  0.28925116282E+03  0.26300332217E+03 0.  0.
         25    1    4    4    0    0  0.23457455350E+02  0.46372610280E+02  0.65444490457E+02  0.15043656679E+03  0.12509000000E+03 0.  0.
         25    1    3    3    0    0 -0.97954133673E+01 -0.20797585291E+02  0.34853022611E+03  0.37101120777E+03  0.12509000000E+03 0.  0.
         25    1    4    4    0    0 -0.13662041983E+02 -0.25575024989E+02  0.52737564195E+02  0.13881459603E+03  0.12509000000E+03 0.  0.
<mgrwt>
<rscale>  2 0.46703966E+03</rscale>
<asrwt>0</asrwt>
<pdfrwt beam="1">  1       21 0.82865782E-01 0.46703966E+03</pdfrwt>
<pdfrwt beam="2">  1       21 0.14231625E-01 0.46703966E+03</pdfrwt>
<totfact> 0.50176928E+04</totfact>
</mgrwt>
</event>
<event>
 7    0  0.4705418E-002  0.4481095E+03  0.7546771E-02  0.1028287E+00
         21   -1    0    0  502  501  0.00000000000E+00  0.00000000000E+00  0.53899756125E+03  0.53899756125E+03  0.00000000000E+00 0.  1.
         21   -1    0    0  501  502 -0.00000000000E+00 -0.00000000000E+00 -0.93136823660E+02  0.93136823660E+02  0.00000000000E+00 0.  1.
      99926    2    1    2    0    0  0.00000000000E+00  0.00000000000E+00  0.44586073759E+03  0.63213438491E+03  0.44810945455E+03 0.  0.
      99925    2    3    3    0    0  0.99569899241E+02  0.30707656164E+02  0.25068342985E+03  0.37797141645E+03  0.26298875388E+03 0.  0.
         25    1    4    4    0    0  0.74247839451E+02  0.49743969793E+02  0.14137193234E+03  0.20885577691E+03  0.12509000000E+03 0.  0.
         25    1    4    4    0    0  0.25322059789E+02 -0.19036313629E+02  0.10931149751E+03  0.16911563954E+03  0.12509000000E+03 0.  0.
         25    1    3    3    0    0 -0.99569899241E+02 -0.30707656164E+02  0.19517730774E+03  0.25416296846E+03  0.12509000000E+03 0.  0.
<mgrwt>
<rscale>  2 0.44810945E+03</rscale>
<asrwt>0</asrwt>
<pdfrwt beam="1">  1       21 0.79264346E-01 0.44810945E+03</pdfrwt>
<pdfrwt beam="2">  1       21 0.13696592E-01 0.44810945E+03</pdfrwt>
<totfact> 0.59936562E+04</totfact>
</mgrwt>
</event>
<event>
 7    0  0.4705418E-002  0.4317742E+03  0.7546771E-02  0.1033301E+00
         21   -1    0    0  502  501  0.00000000000E+00  0.00000000000E+00  0.45056105021E+03  0.45056105021E+03  0.00000000000E+00 0.  1.
         21   -1    0    0  501  502 -0.00000000000E+00 -0.00000000000E+00 -0.10344265774E+03  0.10344265774E+03  0.00000000000E+00 0.  1.
      99926    2    1    2    0    0  0.00000000000E+00  0.00000000000E+00  0.34711839248E+03  0.55400370795E+03  0.43177416554E+03 0.  0.
      99925    2    3    3    0    0  0.49501598864E+02  0.71440132280E+02  0.25292401933E+03  0.37491102574E+03  0.26274249157E+03 0.  0.
         25    1    4    4    0    0  0.60925685043E+02  0.18285869275E+02  0.13027364153E+03  0.19148117894E+03  0.12509000000E+03 0.  0.
         25    1    3    3    0    0 -0.49501598864E+02 -0.71440132280E+02  0.94194373149E+02  0.17909268222E+03  0.12509000000E+03 0.  0.
         25    1    4    4    0    0 -0.11424086179E+02  0.53154263004E+02  0.12265037780E+03  0.18342984680E+03  0.12509000000E+03 0.  0.
<mgrwt>
<rscale>  2 0.43177417E+03</rscale>
<asrwt>0</asrwt>
<pdfrwt beam="1">  1       21 0.66258977E-01 0.43177417E+03</pdfrwt>
<pdfrwt beam="2">  1       21 0.15212156E-01 0.43177417E+03</pdfrwt>
<totfact> 0.74350640E+04</totfact>
</mgrwt>
</event>
<event>
 7    0  0.4705418E-002  0.4235019E+03  0.7546771E-02  0.1035933E+00
         21   -1    0    0  502  501  0.00000000000E+00  0.00000000000E+00  0.33521870362E+03  0.33521870362E+03  0.00000000000E+00 0. -1.
         21   -1    0    0  501  502 -0.00000000000E+00 -0.00000000000E+00 -0.13375884739E+03  0.13375884739E+03  0.00000000000E+00 0. -1.
      99926    2    1    2    0    0  0.00000000000E+00  0.00000000000E+00  0.20145985623E+03  0.46897755101E+03  0.42350191225E+03 0.  0.
      99925    2    3    3    0    0  0.53003506409E+02  0.54091101492E+02  0.15984522146E+03  0.31694299941E+03  0.26299648496E+03 0.  0.
         25    1    3    3    0    0 -0.53003506409E+02 -0.54091101492E+02  0.41614634770E+02  0.15203455160E+03  0.12509000000E+03 0.  0.
         25    1    4    4    0    0  0.50344462336E+02  0.33545054133E+02  0.12122270388E+03  0.18439709211E+03  0.12509000000E+03 0.  0.
         25    1    4    4    0    0  0.26590440723E+01  0.20546047359E+02  0.38622517586E+02  0.13254590730E+03  0.12509000000E+03 0.  0.
<mgrwt>
<rscale>  2 0.42350191E+03</rscale>
<asrwt>0</asrwt>
<pdfrwt beam="1">  1       21 0.49296868E-01 0.42350191E+03</pdfrwt>
<pdfrwt beam="2">  1       21 0.19670419E-01 0.42350191E+03</pdfrwt>
<totfact> 0.87404747E+04</totfact>
</mgrwt>
</event>
<event>
 7    0  0.4705418E-002  0.4574242E+03  0.7546771E-02  0.1025531E+00
         21   -1    0    0  502  501  0.00000000000E+00  0.00000000000E+00  0.18495795972E+04  0.18495795972E+04  0.00000000000E+00 0. -1.
         21   -1    0    0  501  502 -0.00000000000E+00 -0.00000000000E+00 -0.28281681669E+02  0.28281681669E+02  0.00000000000E+00 0. -1.
      99926    2    1    2    0    0 -0.35527136788E-14  0.00000000000E+00  0.18212979155E+04  0.18778612788E+04  0.45742418558E+03 0.  0.
      99925    2    3    3    0    0 -0.26670825969E+02  0.10060238745E+03  0.13479975315E+04  0.13773685867E+04  0.26308687786E+03 0.  0.
         25    1    3    3    0    0  0.26670825969E+02 -0.10060238745E+03  0.47330038400E+03  0.50049269216E+03  0.12509000000E+03 0.  0.
         25    1    4    4    0    0  0.25569031777E+02  0.57060234023E+02  0.71629896483E+03  0.72982282837E+03  0.12509000000E+03 0.  0.
         25    1    4    4    0    0 -0.52239857747E+02  0.43542153423E+02  0.63169856666E+03  0.64754575829E+03  0.12509000000E+03 0.  0.
<mgrwt>
<rscale>  2 0.45742419E+03</rscale>
<asrwt>0</asrwt>
<pdfrwt beam="1">  1       21 0.27199692E+00 0.45742419E+03</pdfrwt>
<pdfrwt beam="2">  1       21 0.41590721E-02 0.45742419E+03</pdfrwt>
<totfact> 0.15514253E+04</totfact>
</mgrwt>
</event>
<event>
 7    0  0.4705418E-002  0.4307064E+03  0.7546771E-02  0.1033637E+00
         21   -1    0    0  502  501  0.00000000000E+00  0.00000000000E+00  0.33528461298E+03  0.33528461298E+03  0.00000000000E+00 0. -1.
         21   -1    0    0  501  502 -0.00000000000E+00 -0.00000000000E+00 -0.13832128392E+03  0.13832128392E+03  0.00000000000E+00 0. -1.
      99926    2    1    2    0    0  0.00000000000E+00  0.71054273576E-14  0.19696332907E+03  0.47360589690E+03  0.43070638791E+03 0.  0.
      99925    2    3    3    0    0  0.32361219168E+02  0.35190130054E+02  0.45099542916E+02  0.27113191980E+03  0.26304553865E+03 0.  0.
         25    1    4    4    0    0  0.22681128732E+02 -0.13989474018E+02 -0.33161547339E+01  0.12794000143E+03  0.12509000000E+03 0.  0.
         25    1    4    4    0    0  0.96800904361E+01  0.49179604072E+02  0.48415697649E+02  0.14319191837E+03  0.12509000000E+03 0.  0.
         25    1    3    3    0    0 -0.32361219168E+02 -0.35190130054E+02  0.15186378615E+03  0.20247397710E+03  0.12509000000E+03 0.  0.
<mgrwt>
<rscale>  2 0.43070639E+03</rscale>
<asrwt>0</asrwt>
<pdfrwt beam="1">  1       21 0.49306560E-01 0.43070639E+03</pdfrwt>
<pdfrwt beam="2">  1       21 0.20341365E-01 0.43070639E+03</pdfrwt>
<totfact> 0.81850484E+04</totfact>
</mgrwt>
</event>
<event>
 7    0  0.4705418E-002  0.4522913E+03  0.7546771E-02  0.1027041E+00
         21   -1    0    0  502  501  0.00000000000E+00  0.00000000000E+00  0.27293403634E+04  0.27293403634E+04  0.00000000000E+00 0.  1.
         21   -1    0    0  501  502 -0.00000000000E+00 -0.00000000000E+00 -0.18737809879E+02  0.18737809879E+02  0.00000000000E+00 0.  1.
      99926    2    1    2    0    0  0.00000000000E+00  0.00000000000E+00  0.27106025536E+04  0.27480781733E+04  0.45229132570E+03 0.  0.
      99925    2    3    3    0    0  0.89625594976E+02  0.52036208985E+02  0.19451477950E+04  0.19655764098E+04  0.26296418819E+03 0.  0.
         25    1    3    3    0    0 -0.89625594976E+02 -0.52036208985E+02  0.76545475859E+03  0.78250176350E+03  0.12509000000E+03 0.  0.
         25    1    4    4    0    0  0.35548011504E+02  0.14363531094E+02  0.67331524273E+03  0.68590881051E+03  0.12509000000E+03 0.  0.
         25    1    4    4    0    0  0.54077583472E+02  0.37672677892E+02  0.12718325522E+04  0.12796675993E+04  0.12509000000E+03 0.  0.
<mgrwt>
<rscale>  2 0.45229133E+03</rscale>
<asrwt>0</asrwt>
<pdfrwt beam="1">  1       21 0.40137331E+00 0.45229133E+03</pdfrwt>
<pdfrwt beam="2">  1       21 0.27555622E-02 0.45229133E+03</pdfrwt>
<totfact> 0.50170274E+03</totfact>
</mgrwt>
</event>
<event>
 7    0  0.4705418E-002  0.4533684E+03  0.7546771E-02  0.1026722E+00
         21   -1    0    0  502  501  0.00000000000E+00  0.00000000000E+00  0.11713024350E+04  0.11713024350E+04  0.00000000000E+00 0. -1.
         21   -1    0    0  501  502 -0.00000000000E+00 -0.00000000000E+00 -0.43870585379E+02  0.43870585379E+02  0.00000000000E+00 0. -1.
      99926    2    1    2    0    0  0.00000000000E+00  0.14210854715E-13  0.11274318496E+04  0.12151730204E+04  0.45336838654E+03 0.  0.
      99925    2    3    3    0    0 -0.46425388723E+02  0.69571830200E+02  0.90855649082E+03  0.94956148624E+03  0.26305239567E+03 0.  0.
         25    1    3    3    0    0  0.46425388723E+02 -0.69571830200E+02  0.21887535880E+03  0.26561153413E+03  0.12509000000E+03 0.  0.
         25    1    4    4    0    0 -0.21159478642E+02 -0.57734317692E+01  0.45622967618E+03  0.47357584565E+03  0.12509000000E+03 0.  0.
         25    1    4    4    0    0 -0.25265910081E+02  0.75345261969E+02  0.45232681464E+03  0.47598564059E+03  0.12509000000E+03 0.  0.
<mgrwt>
<rscale>  2 0.45336839E+03</rscale>
<asrwt>0</asrwt>
<pdfrwt beam="1">  1       21 0.17225034E+00 0.45336839E+03</pdfrwt>
<pdfrwt beam="2">  1       21 0.64515574E-02 0.45336839E+03</pdfrwt>
<totfact> 0.32084519E+04</totfact>
</mgrwt>
</event>
<event>
 7    0  0.4705418E-002  0.4512882E+03  0.7546771E-02  0.1027339E+00
         21   -1    0    0  502  501  0.00000000000E+00  0.00000000000E+00  0.13077683743E+03  0.13077683743E+03  0.00000000000E+00 0.  1.
         21   -1    0    0  501  502 -0.00000000000E+00 -0.00000000000E+00 -0.38932935746E+03  0.38932935746E+03  0.00000000000E+00 0.  1.
      99926    2    1    2    0    0  0.71054273576E-14  0.00000000000E+00 -0.25855252003E+03  0.52010619489E+03  0.45128820985E+03 0.  0.
      99925    2    3    3    0    0  0.40890797533E+02  0.10017710669E+03 -0.18366342175E+03  0.33854795308E+03  0.26301131918E+03 0.  0.
         25    1    4    4    0    0  0.14609235384E+02  0.80009142527E+02 -0.13199677784E+03  0.19921232418E+03  0.12509000000E+03 0.  0.
         25    1    3    3    0    0 -0.40890797533E+02 -0.10017710669E+03 -0.74889098279E+02  0.18155824181E+03  0.12509000000E+03 0.  0.
         25    1    4    4    0    0  0.26281562149E+02  0.20167964162E+02 -0.51666643909E+02  0.13933562890E+03  0.12509000000E+03 0.  0.
<mgrwt>
<rscale>  2 0.45128821E+03</rscale>
<asrwt>0</asrwt>
<pdfrwt beam="1">  1       21 0.19231888E-01 0.45128821E+03</pdfrwt>
<pdfrwt beam="2">  1       21 0.57254317E-01 0.45128821E+03</pdfrwt>
<totfact> 0.65796139E+04</totfact>
</mgrwt>
</event>
<event>
 7    0  0.4705418E-002  0.4502793E+03  0.7546771E-02  0.1027639E+00
         21   -1    0    0  502  501  0.00000000000E+00  0.00000000000E+00  0.74057299969E+02  0.74057299969E+02  0.00000000000E+00 0. -1.
         21   -1    0    0  501  502 -0.00000000000E+00 -0.00000000000E+00 -0.68444105401E+03  0.68444105401E+03  0.00000000000E+00 0. -1.
      99926    2    1    2    0    0  0.71054273576E-14  0.00000000000E+00 -0.61038375405E+03  0.75849835398E+03  0.45027927533E+03 0.  0.
      99925    2    3    3    0    0  0.42241762460E+02  0.75978369953E+02 -0.27547395234E+03  0.39057286890E+03  0.26287675497E+03 0.  0.
         25    1    4    4    0    0  0.45824269631E+02  0.44559536946E+02 -0.98535308517E+02  0.17158709492E+03  0.12509000000E+03 0.  0.
         25    1    3    3    0    0 -0.42241762460E+02 -0.75978369953E+02 -0.33490980171E+03  0.36792548508E+03  0.12509000000E+03 0.  0.
         25    1    4    4    0    0 -0.35825071709E+01  0.31418833007E+02 -0.17693864382E+03  0.21898577397E+03  0.12509000000E+03 0.  0.
<mgrwt>
<rscale>  2 0.45027928E+03</rscale>
<asrwt>0</asrwt>
<pdfrwt beam="1">  1       21 0.10890780E-01 0.45027928E+03</pdfrwt>
<pdfrwt beam="2">  1       21 0.10065309E+00 0.45027928E+03</pdfrwt>
<totfact> 0.51727965E+04</totfact>
</mgrwt>
</event>
<event>
 7    0  0.4705418E-002  0.4520139E+03  0.7546771E-02  0.1027123E+00
         21   -1    0    0  502  501  0.00000000000E+00  0.00000000000E+00  0.78269857789E+02  0.78269857789E+02  0.00000000000E+00 0. -1.
         21   -1    0    0  501  502 -0.00000000000E+00 -0.00000000000E+00 -0.65260291151E+03  0.65260291151E+03  0.00000000000E+00 0. -1.
      99926    2    1    2    0    0  0.00000000000E+00  0.00000000000E+00 -0.57433305373E+03  0.73087276930E+03  0.45201388066E+03 0.  0.
      99925    2    3    3    0    0  0.87060396095E+02 -0.67435294916E+02 -0.35153004105E+03  0.45263595987E+03  0.26301884122E+03 0.  0.
         25    1    4    4    0    0  0.41065577514E+02 -0.38373136605E+02 -0.11231084692E+03  0.17725719649E+03  0.12509000000E+03 0.  0.
         25    1    3    3    0    0 -0.87060396095E+02  0.67435294916E+02 -0.22280301267E+03  0.27823680943E+03  0.12509000000E+03 0.  0.
         25    1    4    4    0    0  0.45994818581E+02 -0.29062158312E+02 -0.23921919413E+03  0.27537876338E+03  0.12509000000E+03 0.  0.
<mgrwt>
<rscale>  2 0.45201388E+03</rscale>
<asrwt>0</asrwt>
<pdfrwt beam="1">  1       21 0.11510273E-01 0.45201388E+03</pdfrwt>
<pdfrwt beam="2">  1       21 0.95971016E-01 0.45201388E+03</pdfrwt>
<totfact> 0.52480106E+04</totfact>
</mgrwt>
</event>
<event>
 7    0  0.4705418E-002  0.4162228E+03  0.7546771E-02  0.1038303E+00
         21   -1    0    0  502  501  0.00000000000E+00  0.00000000000E+00  0.30427177638E+02  0.30427177638E+02  0.00000000000E+00 0.  1.
         21   -1    0    0  501  502 -0.00000000000E+00 -0.00000000000E+00 -0.14234104891E+04  0.14234104891E+04  0.00000000000E+00 0.  1.
      99926    2    1    2    0    0  0.00000000000E+00  0.00000000000E+00 -0.13929833114E+04  0.14538376667E+04  0.41622284321E+03 0.  0.
      99925    2    3    3    0    0 -0.52131829274E+02  0.47873275187E+02 -0.91310095889E+03  0.95289439798E+03  0.26314405652E+03 0.  0.
         25    1    3    3    0    0  0.52131829274E+02 -0.47873275187E+02 -0.47988235254E+03  0.50094326872E+03  0.12509000000E+03 0.  0.
         25    1    4    4    0    0 -0.45394326267E+01 -0.37878651546E+01 -0.34726831209E+03  0.36915815453E+03  0.12509000000E+03 0.  0.
         25    1    4    4    0    0 -0.47592396647E+02  0.51661140341E+02 -0.56583264680E+03  0.58373624345E+03  0.12509000000E+03 0.  0.
<mgrwt>
<rscale>  2 0.41622284E+03</rscale>
<asrwt>0</asrwt>
<pdfrwt beam="1">  1       21 0.44745854E-02 0.41622284E+03</pdfrwt>
<pdfrwt beam="2">  1       21 0.20932505E+00 0.41622284E+03</pdfrwt>
<totfact> 0.34108728E+04</totfact>
</mgrwt>
</event>
<event>
 7    0  0.4705418E-002  0.4602346E+03  0.7546771E-02  0.1024713E+00
         21   -1    0    0  502  501  0.00000000000E+00  0.00000000000E+00  0.44497436711E+03  0.44497436711E+03  0.00000000000E+00 0.  1.
         21   -1    0    0  501  502 -0.00000000000E+00 -0.00000000000E+00 -0.11900456110E+03  0.11900456110E+03  0.00000000000E+00 0.  1.
      99926    2    1    2    0    0  0.00000000000E+00 -0.71054273576E-14  0.32596980601E+03  0.56397892821E+03  0.46023463259E+03 0.  0.
      99925    2    3    3    0    0 -0.73098274821E+02  0.37203628498E+02  0.10035914875E+03  0.29328510759E+03  0.26309072170E+03 0.  0.
         25    1    4    4    0    0 -0.12363470054E+02 -0.75372163155E+01  0.23063506469E+02  0.12801991428E+03  0.12509000000E+03 0.  0.
         25    1    3    3    0    0  0.73098274821E+02 -0.37203628498E+02  0.22561065725E+03  0.27069382062E+03  0.12509000000E+03 0.  0.
         25    1    4    4    0    0 -0.60734804767E+02  0.44740844814E+02  0.77295642285E+02  0.16526519331E+03  0.12509000000E+03 0.  0.
<mgrwt>
<rscale>  2 0.46023463E+03</rscale>
<asrwt>0</asrwt>
<pdfrwt beam="1">  1       21 0.65437406E-01 0.46023463E+03</pdfrwt>
<pdfrwt beam="2">  1       21 0.17500671E-01 0.46023463E+03</pdfrwt>
<totfact> 0.58492551E+04</totfact>
</mgrwt>
</event>
<event>
 7    0  0.4705418E-002  0.4603226E+03  0.7546771E-02  0.1024688E+00
         21   -1    0    0  502  501  0.00000000000E+00  0.00000000000E+00  0.26886305034E+03  0.26886305034E+03  0.00000000000E+00 0. -1.
         21   -1    0    0  501  502 -0.00000000000E+00 -0.00000000000E+00 -0.19703052807E+03  0.19703052807E+03  0.00000000000E+00 0. -1.
      99926    2    1    2    0    0  0.71054273576E-14  0.00000000000E+00  0.71832522273E+02  0.46589357841E+03  0.46032262072E+03 0.  0.
      99925    2    3    3    0    0  0.62099092552E+02 -0.24961559158E+02 -0.53608721652E+02  0.27651989886E+03  0.26288777586E+03 0.  0.
         25    1    4    4    0    0  0.50869647471E+02 -0.21347653264E+02 -0.62984127719E+02  0.15052558513E+03  0.12509000000E+03 0.  0.
         25    1    4    4    0    0  0.11229445081E+02 -0.36139058944E+01  0.93754060676E+01  0.12599431373E+03  0.12509000000E+03 0.  0.
         25    1    3    3    0    0 -0.62099092552E+02  0.24961559158E+02  0.12544124392E+03  0.18937367956E+03  0.12509000000E+03 0.  0.
<mgrwt>
<rscale>  2 0.46032262E+03</rscale>
<asrwt>0</asrwt>
<pdfrwt beam="1">  1       21 0.39538684E-01 0.46032262E+03</pdfrwt>
<pdfrwt beam="2">  1       21 0.28975078E-01 0.46032262E+03</pdfrwt>
<totfact> 0.64951789E+04</totfact>
</mgrwt>
</event>
<event>
 7    0  0.4705418E-002  0.4590674E+03  0.7546771E-02  0.1025052E+00
         21   -1    0    0  502  501  0.00000000000E+00  0.00000000000E+00  0.42060877527E+03  0.42060877527E+03  0.00000000000E+00 0. -1.
         21   -1    0    0  501  502 -0.00000000000E+00 -0.00000000000E+00 -0.12526063126E+03  0.12526063126E+03  0.00000000000E+00 0. -1.
      99926    2    1    2    0    0  0.00000000000E+00 -0.17763568394E-14  0.29534814401E+03  0.54586940652E+03  0.45906740552E+03 0.  0.
      99925    2    3    3    0    0  0.76153640641E+02 -0.10985446213E+02  0.28959718150E+03  0.39889784914E+03  0.26331143063E+03 0.  0.
         25    1    4    4    0    0  0.69544478448E+02  0.18499074215E+02  0.13347846197E+03  0.19657735917E+03  0.12509000000E+03 0.  0.
         25    1    3    3    0    0 -0.76153640641E+02  0.10985446213E+02  0.57509625083E+01  0.14697155739E+03  0.12509000000E+03 0.  0.
         25    1    4    4    0    0  0.66091621929E+01 -0.29484520427E+02  0.15611871954E+03  0.20232048997E+03  0.12509000000E+03 0.  0.
<mgrwt>
<rscale>  2 0.45906741E+03</rscale>
<asrwt>0</asrwt>
<pdfrwt beam="1">  1       21 0.61854231E-01 0.45906741E+03</pdfrwt>
<pdfrwt beam="2">  1       21 0.18420681E-01 0.45906741E+03</pdfrwt>
<totfact> 0.60179910E+04</totfact>
</mgrwt>
</event>
<event>
 7    0  0.4705418E-002  0.4545334E+03  0.7546771E-02  0.1026379E+00
         21   -1    0    0  502  501  0.00000000000E+00  0.00000000000E+00  0.13553229513E+04  0.13553229513E+04  0.00000000000E+00 0.  1.
         21   -1    0    0  501  502 -0.00000000000E+00 -0.00000000000E+00 -0.38109110424E+02  0.38109110424E+02  0.00000000000E+00 0.  1.
      99926    2    1    2    0    0  0.14210854715E-13  0.00000000000E+00  0.13172138409E+04  0.13934320617E+04  0.45453339597E+03 0.  0.
      99925    2    3    3    0    0  0.84916643779E+02 -0.73787912568E+02  0.80660454931E+03  0.85582174824E+03  0.26299139408E+03 0.  0.
         25    1    3    3    0    0 -0.84916643779E+02  0.73787912568E+02  0.51060929158E+03  0.53761031350E+03  0.12509000000E+03 0.  0.
         25    1    4    4    0    0  0.69535462267E+02 -0.52153255274E+02  0.35134167330E+03  0.38294075527E+03  0.12509000000E+03 0.  0.
         25    1    4    4    0    0  0.15381181512E+02 -0.21634657295E+02  0.45526287602E+03  0.47288099298E+03  0.12509000000E+03 0.  0.
<mgrwt>
<rscale>  2 0.45453340E+03</rscale>
<asrwt>0</asrwt>
<pdfrwt beam="1">  1       21 0.19931217E+00 0.45453340E+03</pdfrwt>
<pdfrwt beam="2">  1       21 0.56042818E-02 0.45453340E+03</pdfrwt>
<totfact> 0.26603894E+04</totfact>
</mgrwt>
</event>
<event>
 7    0  0.4705418E-002  0.4831283E+03  0.7546771E-02  0.1018279E+00
         21   -1    0    0  502  501  0.00000000000E+00  0.00000000000E+00  0.79867311055E+02  0.79867311055E+02  0.00000000000E+00 0. -1.
         21   -1    0    0  501  502 -0.00000000000E+00 -0.00000000000E+00 -0.73062730093E+03  0.73062730093E+03  0.00000000000E+00 0. -1.
      99926    2    1    2    0    0  0.00000000000E+00  0.00000000000E+00 -0.65075998988E+03  0.81049461199E+03  0.48312829728E+03 0.  0.
      99925    2    3    3    0    0  0.43359630870E+02 -0.80923459849E+02 -0.22711200148E+03  0.35932525341E+03  0.26288041498E+03 0.  0.
         25    1    4    4    0    0  0.51170588427E+02 -0.70369773721E+02 -0.11609873617E+03  0.19156398099E+03  0.12509000000E+03 0.  0.
         25    1    3    3    0    0 -0.43359630870E+02  0.80923459849E+02 -0.42364798840E+03  0.45116935858E+03  0.12509000000E+03 0.  0.
         25    1    4    4    0    0 -0.78109575566E+01 -0.10553686128E+02 -0.11101326530E+03  0.16776127241E+03  0.12509000000E+03 0.  0.
<mgrwt>
<rscale>  2 0.48312830E+03</rscale>
<asrwt>0</asrwt>
<pdfrwt beam="1">  1       21 0.11745193E-01 0.48312830E+03</pdfrwt>
<pdfrwt beam="2">  1       21 0.10744519E+00 0.48312830E+03</pdfrwt>
<totfact> 0.38123610E+04</totfact>
</mgrwt>
</event>
<event>
 7    0  0.4705418E-002  0.4295632E+03  0.7546771E-02  0.1033998E+00
         21   -1    0    0  502  501  0.00000000000E+00  0.00000000000E+00  0.10715893668E+03  0.10715893668E+03  0.00000000000E+00 0.  1.
         21   -1    0    0  501  502 -0.00000000000E+00 -0.00000000000E+00 -0.43049259210E+03  0.43049259210E+03  0.00000000000E+00 0.  1.
      99926    2    1    2    0    0 -0.14210854715E-13  0.35527136788E-14 -0.32333365542E+03  0.53765152879E+03  0.42956316611E+03 0.  0.
      99925    2    3    3    0    0  0.80511116638E+02  0.24789097020E+02 -0.23652321499E+03  0.36363974786E+03  0.26304770624E+03 0.  0.
         25    1    4    4    0    0  0.76121144808E+02 -0.65711833332E+01 -0.13764748629E+03  0.20107696964E+03  0.12509000000E+03 0.  0.
         25    1    4    4    0    0  0.43899718299E+01  0.31360280353E+02 -0.98875728697E+02  0.16256277822E+03  0.12509000000E+03 0.  0.
         25    1    3    3    0    0 -0.80511116638E+02 -0.24789097020E+02 -0.86810440429E+02  0.17401178093E+03  0.12509000000E+03 0.  0.
<mgrwt>
<rscale>  2 0.42956317E+03</rscale>
<asrwt>0</asrwt>
<pdfrwt beam="1">  1       21 0.15758667E-01 0.42956317E+03</pdfrwt>
<pdfrwt beam="2">  1       21 0.63307734E-01 0.42956317E+03</pdfrwt>
<totfact> 0.77073027E+04</totfact>
</mgrwt>
</event>
<event>
 7    0  0.4705418E-002  0.4381846E+03  0.7546771E-02  0.1031305E+00
         21   -1    0    0  502  501  0.00000000000E+00  0.00000000000E+00  0.15998118531E+03  0.15998118531E+03  0.00000000000E+00 0.  1.
         21   -1    0    0  501  502 -0.00000000000E+00 -0.00000000000E+00 -0.30004422714E+03  0.30004422714E+03  0.00000000000E+00 0.  1.
      99926    2    1    2    0    0  0.35527136788E-14 -0.35527136788E-14 -0.14006304184E+03  0.46002541245E+03  0.43818457801E+03 0.  0.
      99925    2    3    3    0    0  0.22557652902E+02 -0.23370358974E+02 -0.18492151676E+03  0.32322332088E+03  0.26310136149E+03 0.  0.
         25    1    4    4    0    0 -0.67823741395E+01 -0.34033670276E+02 -0.57581635437E+02  0.14201212677E+03  0.12509000000E+03 0.  0.
         25    1    4    4    0    0  0.29340027041E+02  0.10663311302E+02 -0.12733988133E+03  0.18121119411E+03  0.12509000000E+03 0.  0.
         25    1    3    3    0    0 -0.22557652902E+02  0.23370358974E+02  0.44858474928E+02  0.13680209156E+03  0.12509000000E+03 0.  0.
<mgrwt>
<rscale>  2 0.43818458E+03</rscale>
<asrwt>0</asrwt>
<pdfrwt beam="1">  1       21 0.23526645E-01 0.43818458E+03</pdfrwt>
<pdfrwt beam="2">  1       21 0.44124151E-01 0.43818458E+03</pdfrwt>
<totfact> 0.78095110E+04</totfact>
</mgrwt>
</event>
<event>
 7    0  0.4705418E-002  0.4457715E+03  0.7546771E-02  0.1028991E+00
         21   -1    0    0  502  501  0.00000000000E+00  0.00000000000E+00  0.14418514713E+03  0.14418514713E+03  0.00000000000E+00 0.  1.
         21   -1    0    0  501  502 -0.00000000000E+00 -0.00000000000E+00 -0.34454357194E+03  0.34454357194E+03  0.00000000000E+00 0.  1.
      99926    2    1    2    0    0  0.00000000000E+00  0.44408920985E-15 -0.20035842482E+03  0.48872871907E+03  0.44577153616E+03 0.  0.
      99925    2    3    3    0    0 -0.36420091360E+02  0.32376004497E+01 -0.23421334849E+03  0.35407891748E+03  0.26301916675E+03 0.  0.
         25    1    4    4    0    0 -0.24250183159E+02 -0.60608686460E+01 -0.17028989139E+03  0.21276973638E+03  0.12509000000E+03 0.  0.
         25    1    3    3    0    0  0.36420091360E+02 -0.32376004497E+01  0.33854923680E+02  0.13464980159E+03  0.12509000000E+03 0.  0.
         25    1    4    4    0    0 -0.12169908201E+02  0.92984690957E+01 -0.63923457106E+02  0.14130918109E+03  0.12509000000E+03 0.  0.
<mgrwt>
<rscale>  2 0.44577154E+03</rscale>
<asrwt>0</asrwt>
<pdfrwt beam="1">  1       21 0.21203698E-01 0.44577154E+03</pdfrwt>
<pdfrwt beam="2">  1       21 0.50668172E-01 0.44577154E+03</pdfrwt>
<totfact> 0.71140700E+04</totfact>
</mgrwt>
</event>
<event>
 7    0  0.4705418E-002  0.4546460E+03  0.7546771E-02  0.1026346E+00
         21   -1    0    0  502  501  0.00000000000E+00  0.00000000000E+00  0.60819009758E+02  0.60819009758E+02  0.00000000000E+00 0. -1.
         21   -1    0    0  501  502 -0.00000000000E+00 -0.00000000000E+00 -0.84966452564E+03  0.84966452564E+03  0.00000000000E+00 0. -1.
      99926    2    1    2    0    0  0.21094237468E-14 -0.35527136788E-14 -0.78884551588E+03  0.91048353539E+03  0.45464603848E+03 0.  0.
      99925    2    3    3    0    0 -0.68545439792E+00 -0.18097112057E+02 -0.27338665079E+03  0.37975448492E+03  0.26295481110E+03 0.  0.
         25    1    4    4    0    0  0.20884866387E+02  0.24621544336E+02 -0.12306731080E+03  0.17842496792E+03  0.12509000000E+03 0.  0.
         25    1    4    4    0    0 -0.21570320785E+02 -0.42718656393E+02 -0.15031933999E+03  0.20132951701E+03  0.12509000000E+03 0.  0.
         25    1    3    3    0    0  0.68545439792E+00  0.18097112057E+02 -0.51545886509E+03  0.53072905047E+03  0.12509000000E+03 0.  0.
<mgrwt>
<rscale>  2 0.45464604E+03</rscale>
<asrwt>0</asrwt>
<pdfrwt beam="1">  1       21 0.89439722E-02 0.45464604E+03</pdfrwt>
<pdfrwt beam="2">  1       21 0.12495066E+00 0.45464604E+03</pdfrwt>
<totfact> 0.42902333E+04</totfact>
</mgrwt>
</event>
<event>
 7    0  0.4705418E-002  0.4566336E+03  0.7546771E-02  0.1025762E+00
         21   -1    0    0  502  501  0.00000000000E+00  0.00000000000E+00  0.74182683987E+02  0.74182683987E+02  0.00000000000E+00 0. -1.
         21   -1    0    0  501  502 -0.00000000000E+00 -0.00000000000E+00 -0.70270531671E+03  0.70270531671E+03  0.00000000000E+00 0. -1.
      99926    2    1    2    0    0  0.00000000000E+00  0.00000000000E+00 -0.62852263273E+03  0.77688800070E+03  0.45663362314E+03 0.  0.
      99925    2    3    3    0    0  0.33095592984E+02 -0.95718692570E+02 -0.48626310351E+03  0.56207955548E+03  0.26310498756E+03 0.  0.
         25    1    4    4    0    0  0.30398876856E+02 -0.29208560644E+02 -0.30235932245E+03  0.32991801967E+03  0.12509000000E+03 0.  0.
         25    1    3    3    0    0 -0.33095592984E+02  0.95718692570E+02 -0.14225952922E+03  0.21480844522E+03  0.12509000000E+03 0.  0.
         25    1    4    4    0    0  0.26967161282E+01 -0.66510131926E+02 -0.18390378106E+03  0.23216153582E+03  0.12509000000E+03 0.  0.
<mgrwt>
<rscale>  2 0.45663362E+03</rscale>
<asrwt>0</asrwt>
<pdfrwt beam="1">  1       21 0.10909219E-01 0.45663362E+03</pdfrwt>
<pdfrwt beam="2">  1       21 0.10333901E+00 0.45663362E+03</pdfrwt>
<totfact> 0.48280964E+04</totfact>
</mgrwt>
</event>
<event>
 7    0  0.4705418E-002  0.4552160E+03  0.7546771E-02  0.1026178E+00
         21   -1    0    0  502  501  0.00000000000E+00  0.00000000000E+00  0.84124809809E+03  0.84124809809E+03  0.00000000000E+00 0.  1.
         21   -1    0    0  501  502 -0.00000000000E+00 -0.00000000000E+00 -0.61581604380E+02  0.61581604380E+02  0.00000000000E+00 0.  1.
      99926    2    1    2    0    0  0.00000000000E+00  0.00000000000E+00  0.77966649371E+03  0.90282970247E+03  0.45521602591E+03 0.  0.
      99925    2    3    3    0    0  0.74890524721E+02  0.23111815124E+02  0.32797424715E+03  0.42762854465E+03  0.26297588999E+03 0.  0.
         25    1    4    4    0    0  0.37815555922E+01  0.30275712107E+02  0.13199691141E+03  0.18439525924E+03  0.12509000000E+03 0.  0.
         25    1    3    3    0    0 -0.74890524721E+02 -0.23111815124E+02  0.45169224656E+03  0.47520115782E+03  0.12509000000E+03 0.  0.
         25    1    4    4    0    0  0.71108969129E+02 -0.71638969834E+01  0.19597733574E+03  0.24323328542E+03  0.12509000000E+03 0.  0.
<mgrwt>
<rscale>  2 0.45521603E+03</rscale>
<asrwt>0</asrwt>
<pdfrwt beam="1">  1       21 0.12371295E+00 0.45521603E+03</pdfrwt>
<pdfrwt beam="2">  1       21 0.90561188E-02 0.45521603E+03</pdfrwt>
<totfact> 0.43038739E+04</totfact>
</mgrwt>
</event>
<event>
 7    0  0.4705418E-002  0.4629363E+03  0.7546771E-02  0.1023933E+00
         21   -1    0    0  502  501  0.00000000000E+00  0.00000000000E+00  0.25695327469E+03  0.25695327469E+03  0.00000000000E+00 0. -1.
         21   -1    0    0  501  502 -0.00000000000E+00 -0.00000000000E+00 -0.20851065218E+03  0.20851065218E+03  0.00000000000E+00 0. -1.
      99926    2    1    2    0    0 -0.14210854715E-13 -0.71054273576E-14  0.48442622511E+02  0.46546392687E+03  0.46293625862E+03 0.  0.
      99925    2    3    3    0    0 -0.99153588533E+02 -0.49780777026E+02  0.77846422501E+02  0.29569452022E+03  0.26280339403E+03 0.  0.
         25    1    4    4    0    0 -0.31207072445E+02 -0.34231004979E+02  0.14671682130E+01  0.13339903956E+03  0.12509000000E+03 0.  0.
         25    1    4    4    0    0 -0.67946516088E+02 -0.15549772047E+02  0.76379254288E+02  0.16229548067E+03  0.12509000000E+03 0.  0.
         25    1    3    3    0    0  0.99153588533E+02  0.49780777026E+02 -0.29403799990E+02  0.16976940665E+03  0.12509000000E+03 0.  0.
<mgrwt>
<rscale>  2 0.46293626E+03</rscale>
<asrwt>0</asrwt>
<pdfrwt beam="1">  1       21 0.37787246E-01 0.46293626E+03</pdfrwt>
<pdfrwt beam="2">  1       21 0.30663331E-01 0.46293626E+03</pdfrwt>
<totfact> 0.63658538E+04</totfact>
</mgrwt>
</event>
<event>
 7    0  0.4705418E-002  0.4530274E+03  0.7546771E-02  0.1026823E+00
         21   -1    0    0  502  501  0.00000000000E+00  0.00000000000E+00  0.42819685488E+03  0.42819685488E+03  0.00000000000E+00 0.  1.
         21   -1    0    0  501  502 -0.00000000000E+00 -0.00000000000E+00 -0.11982444634E+03  0.11982444634E+03  0.00000000000E+00 0.  1.
      99926    2    1    2    0    0  0.00000000000E+00  0.00000000000E+00  0.30837240853E+03  0.54802130122E+03  0.45302737692E+03 0.  0.
      99925    2    3    3    0    0 -0.33092546844E+02  0.70560024201E+02  0.97297224537E+02  0.29058378439E+03  0.26248495609E+03 0.  0.
         25    1    4    4    0    0  0.14315140608E+02  0.32356505094E+02  0.20287246567E+02  0.13157107260E+03  0.12509000000E+03 0.  0.
         25    1    3    3    0    0  0.33092546844E+02 -0.70560024201E+02  0.21107518400E+03  0.25743751683E+03  0.12509000000E+03 0.  0.
         25    1    4    4    0    0 -0.47407687452E+02  0.38203519108E+02  0.77009977969E+02  0.15901271178E+03  0.12509000000E+03 0.  0.
<mgrwt>
<rscale>  2 0.45302738E+03</rscale>
<asrwt>0</asrwt>
<pdfrwt beam="1">  1       21 0.62970125E-01 0.45302738E+03</pdfrwt>
<pdfrwt beam="2">  1       21 0.17621242E-01 0.45302738E+03</pdfrwt>
<totfact> 0.62974618E+04</totfact>
</mgrwt>
</event>
<event>
 7    0  0.4705418E-002  0.4496875E+03  0.7546771E-02  0.1027815E+00
         21   -1    0    0  502  501  0.00000000000E+00  0.00000000000E+00  0.28598797558E+03  0.28598797558E+03  0.00000000000E+00 0.  1.
         21   -1    0    0  501  502 -0.00000000000E+00 -0.00000000000E+00 -0.17677211989E+03  0.17677211989E+03  0.00000000000E+00 0.  1.
      99926    2    1    2    0    0 -0.35527136788E-14  0.88817841970E-15  0.10921585569E+03  0.46276009547E+03  0.44968745015E+03 0.  0.
      99925    2    3    3    0    0 -0.17959418172E+02 -0.42830895859E+01 -0.40513378880E+02  0.26678245046E+03  0.26304116873E+03 0.  0.
         25    1    4    4    0    0 -0.35957936439E+02  0.26835727294E+02 -0.29767869196E+02  0.13618650296E+03  0.12509000000E+03 0.  0.
         25    1    3    3    0    0  0.17959418172E+02  0.42830895859E+01  0.14972923457E+03  0.19597764501E+03  0.12509000000E+03 0.  0.
         25    1    4    4    0    0  0.17998518267E+02 -0.31118816880E+02 -0.10745509684E+02  0.13059594750E+03  0.12509000000E+03 0.  0.
<mgrwt>
<rscale>  2 0.44968745E+03</rscale>
<asrwt>0</asrwt>
<pdfrwt beam="1">  1       21 0.42057055E-01 0.44968745E+03</pdfrwt>
<pdfrwt beam="2">  1       21 0.25995900E-01 0.44968745E+03</pdfrwt>
<totfact> 0.70919950E+04</totfact>
</mgrwt>
</event>
<event>
 7    0  0.4705418E-002  0.4539094E+03  0.7546771E-02  0.1026563E+00
         21   -1    0    0  502  501  0.00000000000E+00  0.00000000000E+00  0.42319360738E+02  0.42319360738E+02  0.00000000000E+00 0.  1.
         21   -1    0    0  501  502 -0.00000000000E+00 -0.00000000000E+00 -0.12171366274E+04  0.12171366274E+04  0.00000000000E+00 0.  1.
      99926    2    1    2    0    0  0.00000000000E+00  0.00000000000E+00 -0.11748172667E+04  0.12594559882E+04  0.45390943592E+03 0.  0.
      99925    2    3    3    0    0  0.68973816970E+02 -0.68014122544E+02 -0.89676295424E+03  0.93954191054E+03  0.26300550807E+03 0.  0.
         25    1    4    4    0    0  0.68777367905E+02 -0.16504665675E+02 -0.50687405448E+03  0.52685059128E+03  0.12509000000E+03 0.  0.
         25    1    3    3    0    0 -0.68973816970E+02  0.68014122544E+02 -0.27805431247E+03  0.31991407765E+03  0.12509000000E+03 0.  0.
         25    1    4    4    0    0  0.19644906482E+00 -0.51509456869E+02 -0.38988889976E+03  0.41269131926E+03  0.12509000000E+03 0.  0.
<mgrwt>
<rscale>  2 0.45390944E+03</rscale>
<asrwt>0</asrwt>
<pdfrwt beam="1">  1       21 0.62234358E-02 0.45390944E+03</pdfrwt>
<pdfrwt beam="2">  1       21 0.17899067E+00 0.45390944E+03</pdfrwt>
<totfact> 0.30573980E+04</totfact>
</mgrwt>
</event>
<event>
 7    0  0.4705418E-002  0.4546944E+03  0.7546771E-02  0.1026331E+00
         21   -1    0    0  502  501  0.00000000000E+00  0.00000000000E+00  0.29257256617E+03  0.29257256617E+03  0.00000000000E+00 0. -1.
         21   -1    0    0  501  502 -0.00000000000E+00 -0.00000000000E+00 -0.17666303508E+03  0.17666303508E+03  0.00000000000E+00 0. -1.
      99926    2    1    2    0    0 -0.71054273576E-14 -0.14210854715E-13  0.11590953109E+03  0.46923560126E+03  0.45469443596E+03 0.  0.
      99925    2    3    3    0    0  0.48521208498E+02  0.63847711250E+02  0.15499404152E+03  0.31559333832E+03  0.26295468122E+03 0.  0.
         25    1    3    3    0    0 -0.48521208498E+02 -0.63847711250E+02 -0.39084510431E+02  0.15364226294E+03  0.12509000000E+03 0.  0.
         25    1    4    4    0    0  0.99158626810E+01  0.60086210084E+02  0.10915913631E+03  0.17683863298E+03  0.12509000000E+03 0.  0.
         25    1    4    4    0    0  0.38605345817E+02  0.37615011657E+01  0.45834905215E+02  0.13875470534E+03  0.12509000000E+03 0.  0.
<mgrwt>
<rscale>  2 0.45469444E+03</rscale>
<asrwt>0</asrwt>
<pdfrwt beam="1">  1       21 0.43025378E-01 0.45469444E+03</pdfrwt>
<pdfrwt beam="2">  1       21 0.25979858E-01 0.45469444E+03</pdfrwt>
<totfact> 0.67656474E+04</totfact>
</mgrwt>
</event>
<event>
 7    0  0.4705418E-002  0.4556863E+03  0.7546771E-02  0.1026040E+00
         21   -1    0    0  502  501  0.00000000000E+00  0.00000000000E+00  0.25175112594E+02  0.25175112594E+02  0.00000000000E+00 0.  1.
         21   -1    0    0  501  502 -0.00000000000E+00 -0.00000000000E+00 -0.20620560490E+04  0.20620560490E+04  0.00000000000E+00 0.  1.
      99926    2    1    2    0    0  0.00000000000E+00  0.00000000000E+00 -0.20368809364E+04  0.20872311616E+04  0.45568626579E+03 0.  0.
      99925    2    3    3    0    0 -0.63617855260E+02 -0.22379711736E+02 -0.17008110442E+04  0.17223495869E+04  0.26302434946E+03 0.  0.
         25    1    3    3    0    0  0.63617855260E+02  0.22379711736E+02 -0.33606989221E+03  0.36488157470E+03  0.12509000000E+03 0.  0.
         25    1    4    4    0    0  0.49037312642E+01 -0.28426748769E+02 -0.85228748982E+03  0.86190115444E+03  0.12509000000E+03 0.  0.
         25    1    4    4    0    0 -0.68521586524E+02  0.60470370329E+01 -0.84852355438E+03  0.86044843245E+03  0.12509000000E+03 0.  0.
<mgrwt>
<rscale>  2 0.45568627E+03</rscale>
<asrwt>0</asrwt>
<pdfrwt beam="1">  1       21 0.37022216E-02 0.45568627E+03</pdfrwt>
<pdfrwt beam="2">  1       21 0.30324360E+00 0.45568627E+03</pdfrwt>
<totfact> 0.12271932E+04</totfact>
</mgrwt>
</event>
<event>
 7    0  0.4705418E-002  0.4531106E+03  0.7546771E-02  0.1026798E+00
         21   -1    0    0  502  501  0.00000000000E+00  0.00000000000E+00  0.97729053062E+02  0.97729053062E+02  0.00000000000E+00 0. -1.
         21   -1    0    0  501  502 -0.00000000000E+00 -0.00000000000E+00 -0.52520015798E+03  0.52520015798E+03  0.00000000000E+00 0. -1.
      99926    2    1    2    0    0  0.00000000000E+00  0.00000000000E+00 -0.42747110492E+03  0.62292921104E+03  0.45311064480E+03 0.  0.
      99925    2    3    3    0    0 -0.18147174784E+02 -0.90507065393E+02 -0.35520814642E+03  0.45149324017E+03  0.26296857187E+03 0.  0.
         25    1    4    4    0    0 -0.42151739796E+01 -0.91406990982E+01 -0.12758716192E+03  0.17896176144E+03  0.12509000000E+03 0.  0.
         25    1    3    3    0    0  0.18147174784E+02  0.90507065393E+02 -0.72262958493E+02  0.17143597087E+03  0.12509000000E+03 0.  0.
         25    1    4    4    0    0 -0.13932000804E+02 -0.81366366295E+02 -0.22762098450E+03  0.27253147872E+03  0.12509000000E+03 0.  0.
<mgrwt>
<rscale>  2 0.45311064E+03</rscale>
<asrwt>0</asrwt>
<pdfrwt beam="1">  1       21 0.14371920E-01 0.45311064E+03</pdfrwt>
<pdfrwt beam="2">  1       21 0.77235315E-01 0.45311064E+03</pdfrwt>
<totfact> 0.58151302E+04</totfact>
</mgrwt>
</event>
<event>
 7    0  0.4705418E-002  0.4571375E+03  0.7546771E-02  0.1025615E+00
         21   -1    0    0  502  501  0.00000000000E+00  0.00000000000E+00  0.99687876909E+02  0.99687876909E+02  0.00000000000E+00 0. -1.
         21   -1    0    0  501  502 -0.00000000000E+00 -0.00000000000E+00 -0.52407240002E+03  0.52407240002E+03  0.00000000000E+00 0. -1.
      99926    2    1    2    0    0  0.00000000000E+00  0.00000000000E+00 -0.42438452311E+03  0.62376027693E+03  0.45713746250E+03 0.  0.
      99925    2    3    3    0    0 -0.24224576766E+02 -0.50775139091E+02 -0.12928737351E+03  0.29834549442E+03  0.26292558686E+03 0.  0.
         25    1    4    4    0    0 -0.18950521256E+02  0.47231426915E+01 -0.32696991405E+02  0.13075944203E+03  0.12509000000E+03 0.  0.
         25    1    4    4    0    0 -0.52740555099E+01 -0.55498281783E+02 -0.96590382103E+02  0.16758605239E+03  0.12509000000E+03 0.  0.
         25    1    3    3    0    0  0.24224576766E+02  0.50775139091E+02 -0.29509714960E+03  0.32541478250E+03  0.12509000000E+03 0.  0.
<mgrwt>
<rscale>  2 0.45713746E+03</rscale>
<asrwt>0</asrwt>
<pdfrwt beam="1">  1       21 0.14659982E-01 0.45713746E+03</pdfrwt>
<pdfrwt beam="2">  1       21 0.77069471E-01 0.45713746E+03</pdfrwt>
<totfact> 0.56283175E+04</totfact>
</mgrwt>
</event>
<event>
 7    0  0.4705418E-002  0.4537603E+03  0.7546771E-02  0.1026607E+00
         21   -1    0    0  502  501  0.00000000000E+00  0.00000000000E+00  0.30682269997E+03  0.30682269997E+03  0.00000000000E+00 0. -1.
         21   -1    0    0  501  502 -0.00000000000E+00 -0.00000000000E+00 -0.16776658316E+03  0.16776658316E+03  0.00000000000E+00 0. -1.
      99926    2    1    2    0    0  0.00000000000E+00 -0.35527136788E-14  0.13905611681E+03  0.47458928314E+03  0.45376027156E+03 0.  0.
      99925    2    3    3    0    0 -0.31192997563E+02  0.31487867248E+02  0.19534029296E+03  0.33043691421E+03  0.26280455731E+03 0.  0.
         25    1    4    4    0    0 -0.28989076218E+02  0.17163710187E+02  0.51882167162E+02  0.13955008727E+03  0.12509000000E+03 0.  0.
         25    1    3    3    0    0  0.31192997563E+02 -0.31487867248E+02 -0.56284176148E+02  0.14415236892E+03  0.12509000000E+03 0.  0.
         25    1    4    4    0    0 -0.22039213449E+01  0.14324157061E+02  0.14345812580E+03  0.19088682695E+03  0.12509000000E+03 0.  0.
<mgrwt>
<rscale>  2 0.45376027E+03</rscale>
<asrwt>0</asrwt>
<pdfrwt beam="1">  1       21 0.45120985E-01 0.45376027E+03</pdfrwt>
<pdfrwt beam="2">  1       21 0.24671557E-01 0.45376027E+03</pdfrwt>
<totfact> 0.67760327E+04</totfact>
</mgrwt>
</event>
<event>
 7    0  0.4705418E-002  0.4534679E+03  0.7546771E-02  0.1026693E+00
         21   -1    0    0  502  501  0.00000000000E+00  0.00000000000E+00  0.44900832949E+02  0.44900832949E+02  0.00000000000E+00 0.  1.
         21   -1    0    0  501  502 -0.00000000000E+00 -0.00000000000E+00 -0.11449292537E+04  0.11449292537E+04  0.00000000000E+00 0.  1.
      99926    2    1    2    0    0  0.00000000000E+00 -0.71054273576E-14 -0.11000284207E+04  0.11898300866E+04  0.45346786946E+03 0.  0.
      99925    2    3    3    0    0 -0.92796616757E+02 -0.39394401313E+02 -0.56496856836E+03  0.63117125992E+03  0.26272522753E+03 0.  0.
         25    1    4    4    0    0 -0.81591106541E+02 -0.76677615570E+00 -0.32196884232E+03  0.35492131542E+03  0.12509000000E+03 0.  0.
         25    1    4    4    0    0 -0.11205510216E+02 -0.38627625157E+02 -0.24299972604E+03  0.27624994451E+03  0.12509000000E+03 0.  0.
         25    1    3    3    0    0  0.92796616757E+02  0.39394401313E+02 -0.53505985236E+03  0.55865882669E+03  0.12509000000E+03 0.  0.
<mgrwt>
<rscale>  2 0.45346787E+03</rscale>
<asrwt>0</asrwt>
<pdfrwt beam="1">  1       21 0.66030639E-02 0.45346787E+03</pdfrwt>
<pdfrwt beam="2">  1       21 0.16837194E+00 0.45346787E+03</pdfrwt>
<totfact> 0.32870549E+04</totfact>
</mgrwt>
</event>
<event>
 7    0  0.4705418E-002  0.4555327E+03  0.7546771E-02  0.1026085E+00
         21   -1    0    0  502  501  0.00000000000E+00  0.00000000000E+00  0.73811722954E+02  0.73811722954E+02  0.00000000000E+00 0.  1.
         21   -1    0    0  501  502 -0.00000000000E+00 -0.00000000000E+00 -0.70283550301E+03  0.70283550301E+03  0.00000000000E+00 0.  1.
      99926    2    1    2    0    0  0.00000000000E+00  0.00000000000E+00 -0.62902378006E+03  0.77664722597E+03  0.45553265275E+03 0.  0.
      99925    2    3    3    0    0 -0.66653452679E+02 -0.83283649182E+02 -0.46025528249E+03  0.54104339992E+03  0.26365543151E+03 0.  0.
         25    1    3    3    0    0  0.66653452679E+02  0.83283649182E+02 -0.16876849757E+03  0.23560382605E+03  0.12509000000E+03 0.  0.
         25    1    4    4    0    0  0.80288281098E+01 -0.37787581720E+02 -0.23371351796E+03  0.26788407939E+03  0.12509000000E+03 0.  0.
         25    1    4    4    0    0 -0.74682280789E+02 -0.45496067461E+02 -0.22654176453E+03  0.27315932054E+03  0.12509000000E+03 0.  0.
<mgrwt>
<rscale>  2 0.45553265E+03</rscale>
<asrwt>0</asrwt>
<pdfrwt beam="1">  1       21 0.10854664E-01 0.45553265E+03</pdfrwt>
<pdfrwt beam="2">  1       21 0.10335817E+00 0.45553265E+03</pdfrwt>
<totfact> 0.48711140E+04</totfact>
</mgrwt>
</event>
<event>
 7    0  0.4705418E-002  0.4524033E+03  0.7546771E-02  0.1027008E+00
         21   -1    0    0  502  501  0.00000000000E+00  0.00000000000E+00  0.96372534241E+03  0.96372534241E+03  0.00000000000E+00 0.  1.
         21   -1    0    0  501  502 -0.00000000000E+00 -0.00000000000E+00 -0.53093128497E+02  0.53093128497E+02  0.00000000000E+00 0.  1.
      99926    2    1    2    0    0  0.14210854715E-13  0.00000000000E+00  0.91063221391E+03  0.10168184709E+04  0.45240333085E+03 0.  0.
      99925    2    3    3    0    0  0.69120944483E+02 -0.72307511958E+02  0.68143243645E+03  0.73720064719E+03  0.26288504621E+03 0.  0.
         25    1    3    3    0    0 -0.69120944483E+02  0.72307511958E+02  0.22919977746E+03  0.27961782372E+03  0.12509000000E+03 0.  0.
         25    1    4    4    0    0  0.74568184302E+02 -0.41324896303E+02  0.39727329539E+03  0.42513731957E+03  0.12509000000E+03 0.  0.
         25    1    4    4    0    0 -0.54472398186E+01 -0.30982615655E+02  0.28415914106E+03  0.31206332761E+03  0.12509000000E+03 0.  0.
<mgrwt>
<rscale>  2 0.45240333E+03</rscale>
<asrwt>0</asrwt>
<pdfrwt beam="1">  1       21 0.14172430E+00 0.45240333E+03</pdfrwt>
<pdfrwt beam="2">  1       21 0.78078136E-02 0.45240333E+03</pdfrwt>
<totfact> 0.39309906E+04</totfact>
</mgrwt>
</event>
<event>
 7    0  0.4705418E-002  0.4348407E+03  0.7546771E-02  0.1032342E+00
         21   -1    0    0  502  501  0.00000000000E+00  0.00000000000E+00  0.15603131173E+04  0.15603131173E+04  0.00000000000E+00 0. -1.
         21   -1    0    0  501  502 -0.00000000000E+00 -0.00000000000E+00 -0.30296233870E+02  0.30296233870E+02  0.00000000000E+00 0. -1.
      99926    2    1    2    0    0  0.00000000000E+00  0.35527136788E-14  0.15300168834E+04  0.15906093512E+04  0.43484071158E+03 0.  0.
      99925    2    3    3    0    0  0.63263403125E+02  0.19457153229E+02  0.74233734937E+03  0.79031728232E+03  0.26297495599E+03 0.  0.
         25    1    4    4    0    0  0.23536669641E+02  0.49437205893E+02  0.37455147730E+03  0.39866568625E+03  0.12509000000E+03 0.  0.
         25    1    4    4    0    0  0.39726733484E+02 -0.29980052664E+02  0.36778587207E+03  0.39165159607E+03  0.12509000000E+03 0.  0.
         25    1    3    3    0    0 -0.63263403125E+02 -0.19457153229E+02  0.78767953404E+03  0.80029206883E+03  0.12509000000E+03 0.  0.
<mgrwt>
<rscale>  2 0.43484071E+03</rscale>
<asrwt>0</asrwt>
<pdfrwt beam="1">  1       21 0.22945776E+00 0.43484071E+03</pdfrwt>
<pdfrwt beam="2">  1       21 0.44553296E-02 0.43484071E+03</pdfrwt>
<totfact> 0.25391131E+04</totfact>
</mgrwt>
</event>
<event>
 7    0  0.4705418E-002  0.4280466E+03  0.7546771E-02  0.1034479E+00
         21   -1    0    0  502  501  0.00000000000E+00  0.00000000000E+00  0.61538865446E+03  0.61538865446E+03  0.00000000000E+00 0. -1.
         21   -1    0    0  501  502 -0.00000000000E+00 -0.00000000000E+00 -0.74434218676E+02  0.74434218676E+02  0.00000000000E+00 0. -1.
      99926    2    1    2    0    0  0.00000000000E+00  0.00000000000E+00  0.54095443578E+03  0.68982287313E+03  0.42804660343E+03 0.  0.
      99925    2    3    3    0    0  0.48649241735E+02 -0.70174624526E+02  0.35475695445E+03  0.44980571374E+03  0.26302368094E+03 0.  0.
         25    1    4    4    0    0  0.32247586084E+02 -0.30854383070E+02  0.24218226655E+03  0.27620944606E+03  0.12509000000E+03 0.  0.
         25    1    3    3    0    0 -0.48649241735E+02  0.70174624526E+02  0.18619748133E+03  0.24001715939E+03  0.12509000000E+03 0.  0.
         25    1    4    4    0    0  0.16401655651E+02 -0.39320241455E+02  0.11257468790E+03  0.17359626768E+03  0.12509000000E+03 0.  0.
<mgrwt>
<rscale>  2 0.42804660E+03</rscale>
<asrwt>0</asrwt>
<pdfrwt beam="1">  1       21 0.90498329E-01 0.42804660E+03</pdfrwt>
<pdfrwt beam="2">  1       21 0.10946209E-01 0.42804660E+03</pdfrwt>
<totfact> 0.66481014E+04</totfact>
</mgrwt>
</event>
<event>
 7    0  0.4705418E-002  0.4559515E+03  0.7546771E-02  0.1025962E+00
         21   -1    0    0  502  501  0.00000000000E+00  0.00000000000E+00  0.32817884983E+03  0.32817884983E+03  0.00000000000E+00 0.  1.
         21   -1    0    0  501  502 -0.00000000000E+00 -0.00000000000E+00 -0.15836773490E+03  0.15836773490E+03  0.00000000000E+00 0.  1.
      99926    2    1    2    0    0  0.14210854715E-13  0.71054273576E-14  0.16981111493E+03  0.48654658474E+03  0.45595149344E+03 0.  0.
      99925    2    3    3    0    0 -0.95931537904E+02 -0.46046126208E+02  0.15020980205E+03  0.32115364272E+03  0.26316073395E+03 0.  0.
         25    1    4    4    0    0 -0.49026490958E+01 -0.18732288891E+02  0.61312794097E+02  0.14064743665E+03  0.12509000000E+03 0.  0.
         25    1    4    4    0    0 -0.91028888808E+02 -0.27313837317E+02  0.88897007954E+02  0.18050620607E+03  0.12509000000E+03 0.  0.
         25    1    3    3    0    0  0.95931537904E+02  0.46046126208E+02  0.19601312876E+02  0.16539294202E+03  0.12509000000E+03 0.  0.
<mgrwt>
<rscale>  2 0.45595149E+03</rscale>
<asrwt>0</asrwt>
<pdfrwt beam="1">  1       21 0.48261596E-01 0.45595149E+03</pdfrwt>
<pdfrwt beam="2">  1       21 0.23289373E-01 0.45595149E+03</pdfrwt>
<totfact> 0.65728680E+04</totfact>
</mgrwt>
</event>
<event>
 7    0  0.4705418E-002  0.4452740E+03  0.7546771E-02  0.1029141E+00
         21   -1    0    0  502  501  0.00000000000E+00  0.00000000000E+00  0.59945864627E+02  0.59945864627E+02  0.00000000000E+00 0.  1.
         21   -1    0    0  501  502 -0.00000000000E+00 -0.00000000000E+00 -0.82686676088E+03  0.82686676088E+03  0.00000000000E+00 0.  1.
      99926    2    1    2    0    0 -0.71054273576E-14  0.00000000000E+00 -0.76692089625E+03  0.88681262551E+03  0.44527404107E+03 0.  0.
      99925    2    3    3    0    0  0.39848733435E+02  0.95613113222E+02 -0.49347849649E+03  0.56877482419E+03  0.26316151915E+03 0.  0.
         25    1    3    3    0    0 -0.39848733435E+02 -0.95613113222E+02 -0.27344239977E+03  0.31803780132E+03  0.12509000000E+03 0.  0.
         25    1    4    4    0    0 -0.13022001511E+02  0.25671605762E+02 -0.25658147410E+03  0.28689748137E+03  0.12509000000E+03 0.  0.
         25    1    4    4    0    0  0.52870734947E+02  0.69941507460E+02 -0.23689702239E+03  0.28187734282E+03  0.12509000000E+03 0.  0.
<mgrwt>
<rscale>  2 0.44527404E+03</rscale>
<asrwt>0</asrwt>
<pdfrwt beam="1">  1       21 0.88155685E-02 0.44527404E+03</pdfrwt>
<pdfrwt beam="2">  1       21 0.12159805E+00 0.44527404E+03</pdfrwt>
<totfact> 0.47310021E+04</totfact>
</mgrwt>
</event>
<event>
 7    0  0.4705418E-002  0.4706785E+03  0.7546771E-02  0.1021729E+00
         21   -1    0    0  502  501  0.00000000000E+00  0.00000000000E+00  0.13897596499E+03  0.13897596499E+03  0.00000000000E+00 0.  1.
         21   -1    0    0  501  502 -0.00000000000E+00 -0.00000000000E+00 -0.39851892636E+03  0.39851892636E+03  0.00000000000E+00 0.  1.
      99926    2    1    2    0    0  0.88817841970E-15  0.14210854715E-13 -0.25954296137E+03  0.53749489134E+03  0.47067845651E+03 0.  0.
      99925    2    3    3    0    0  0.45296640678E+01 -0.12012042476E+03 -0.11391212953E+03  0.31098819920E+03  0.26322661812E+03 0.  0.
         25    1    4    4    0    0  0.13212208376E+02 -0.80031853852E+02 -0.22635331098E+02  0.15079630763E+03  0.12509000000E+03 0.  0.
         25    1    3    3    0    0 -0.45296640678E+01  0.12012042476E+03 -0.14563083184E+03  0.22650669214E+03  0.12509000000E+03 0.  0.
         25    1    4    4    0    0 -0.86825443083E+01 -0.40088570910E+02 -0.91276798435E+02  0.16019189157E+03  0.12509000000E+03 0.  0.
<mgrwt>
<rscale>  2 0.47067846E+03</rscale>
<asrwt>0</asrwt>
<pdfrwt beam="1">  1       21 0.20437642E-01 0.47067846E+03</pdfrwt>
<pdfrwt beam="2">  1       21 0.58605724E-01 0.47067846E+03</pdfrwt>
<totfact> 0.55479949E+04</totfact>
</mgrwt>
</event>
<event>
 7    0  0.4705418E-002  0.4654352E+03  0.7546771E-02  0.1023217E+00
         21   -1    0    0  502  501  0.00000000000E+00  0.00000000000E+00  0.36217059206E+03  0.36217059206E+03  0.00000000000E+00 0. -1.
         21   -1    0    0  501  502 -0.00000000000E+00 -0.00000000000E+00 -0.14953585039E+03  0.14953585039E+03  0.00000000000E+00 0. -1.
      99926    2    1    2    0    0 -0.35527136788E-14  0.14210854715E-13  0.21263474167E+03  0.51170644245E+03  0.46543522630E+03 0.  0.
      99925    2    3    3    0    0  0.30020531695E+02  0.97352519978E+02  0.60140258213E+02  0.28971360235E+03  0.26445864565E+03 0.  0.
         25    1    3    3    0    0 -0.30020531695E+02 -0.97352519978E+02  0.15249448346E+03  0.22199284010E+03  0.12509000000E+03 0.  0.
         25    1    4    4    0    0  0.20261051850E+02  0.46979424002E+01  0.17438926765E+02  0.12800080137E+03  0.12509000000E+03 0.  0.
         25    1    4    4    0    0  0.97594798446E+01  0.92654577577E+02  0.42701331448E+02  0.16171280098E+03  0.12509000000E+03 0.  0.
<mgrwt>
<rscale>  2 0.46543523E+03</rscale>
<asrwt>0</asrwt>
<pdfrwt beam="1">  1       21 0.53260381E-01 0.46543523E+03</pdfrwt>
<pdfrwt beam="2">  1       21 0.21990566E-01 0.46543523E+03</pdfrwt>
<totfact> 0.59382870E+04</totfact>
</mgrwt>
</event>
<event>
 7    0  0.4705418E-002  0.4536052E+03  0.7546771E-02  0.1026652E+00
         21   -1    0    0  502  501  0.00000000000E+00  0.00000000000E+00  0.10882396397E+04  0.10882396397E+04  0.00000000000E+00 0.  1.
         21   -1    0    0  501  502 -0.00000000000E+00 -0.00000000000E+00 -0.47268473731E+02  0.47268473731E+02  0.00000000000E+00 0.  1.
      99926    2    1    2    0    0  0.00000000000E+00  0.00000000000E+00  0.10409711659E+04  0.11355081134E+04  0.45360523286E+03 0.  0.
      99925    2    3    3    0    0  0.59469629351E+02  0.45201040562E+02  0.44397359280E+03  0.52098929244E+03  0.26217841415E+03 0.  0.
         25    1    4    4    0    0  0.49419473052E+02  0.27217938084E+02  0.16531521529E+03  0.21484815330E+03  0.12509000000E+03 0.  0.
         25    1    4    4    0    0  0.10050156299E+02  0.17983102478E+02  0.27865837751E+03  0.30614113914E+03  0.12509000000E+03 0.  0.
         25    1    3    3    0    0 -0.59469629351E+02 -0.45201040562E+02  0.59699757314E+03  0.61451882096E+03  0.12509000000E+03 0.  0.
<mgrwt>
<rscale>  2 0.45360523E+03</rscale>
<asrwt>0</asrwt>
<pdfrwt beam="1">  1       21 0.16003523E+00 0.45360523E+03</pdfrwt>
<pdfrwt beam="2">  1       21 0.69512468E-02 0.45360523E+03</pdfrwt>
<totfact> 0.34645057E+04</totfact>
</mgrwt>
</event>
<event>
 7    0  0.4705418E-002  0.4534176E+03  0.7546771E-02  0.1026708E+00
         21   -1    0    0  502  501  0.00000000000E+00  0.00000000000E+00  0.53302977442E+03  0.53302977442E+03  0.00000000000E+00 0. -1.
         21   -1    0    0  501  502 -0.00000000000E+00 -0.00000000000E+00 -0.96424046296E+02  0.96424046296E+02  0.00000000000E+00 0. -1.
      99926    2    1    2    0    0  0.00000000000E+00  0.22204460493E-15  0.43660572812E+03  0.62945382072E+03  0.45341763374E+03 0.  0.
      99925    2    3    3    0    0  0.77671217312E+02  0.11544262631E+01  0.16448709434E+03  0.32005083163E+03  0.26332941334E+03 0.  0.
         25    1    4    4    0    0  0.92747045427E+01  0.18764587739E+02  0.10467068991E+03  0.16444327692E+03  0.12509000000E+03 0.  0.
         25    1    4    4    0    0  0.68396512769E+02 -0.17610161476E+02  0.59816404428E+02  0.15560755472E+03  0.12509000000E+03 0.  0.
         25    1    3    3    0    0 -0.77671217312E+02 -0.11544262631E+01  0.27211863379E+03  0.30940298908E+03  0.12509000000E+03 0.  0.
<mgrwt>
<rscale>  2 0.45341763E+03</rscale>
<asrwt>0</asrwt>
<pdfrwt beam="1">  1       21 0.78386731E-01 0.45341763E+03</pdfrwt>
<pdfrwt beam="2">  1       21 0.14180007E-01 0.45341763E+03</pdfrwt>
<totfact> 0.57617318E+04</totfact>
</mgrwt>
</event>
<event>
 7    0  0.4705418E-002  0.4564208E+03  0.7546771E-02  0.1025824E+00
         21   -1    0    0  502  501  0.00000000000E+00  0.00000000000E+00  0.53731962182E+03  0.53731962182E+03  0.00000000000E+00 0.  1.
         21   -1    0    0  501  502 -0.00000000000E+00 -0.00000000000E+00 -0.96925530408E+02  0.96925530408E+02  0.00000000000E+00 0.  1.
      99926    2    1    2    0    0  0.00000000000E+00 -0.71054273576E-14  0.44039409141E+03  0.63424515223E+03  0.45642081172E+03 0.  0.
      99925    2    3    3    0    0  0.83926875653E+02 -0.59892984946E+02  0.34621836174E+03  0.44676857699E+03  0.26287661988E+03 0.  0.
         25    1    4    4    0    0  0.17696906438E+02 -0.44780674420E+02  0.12237318918E+03  0.18149709317E+03  0.12509000000E+03 0.  0.
         25    1    3    3    0    0 -0.83926875653E+02  0.59892984946E+02  0.94175729673E+02  0.18747657524E+03  0.12509000000E+03 0.  0.
         25    1    4    4    0    0  0.66229969215E+02 -0.15112310526E+02  0.22384517256E+03  0.26527148382E+03  0.12509000000E+03 0.  0.
<mgrwt>
<rscale>  2 0.45642081E+03</rscale>
<asrwt>0</asrwt>
<pdfrwt beam="1">  1       21 0.79017590E-01 0.45642081E+03</pdfrwt>
<pdfrwt beam="2">  1       21 0.14253755E-01 0.45642081E+03</pdfrwt>
<totfact> 0.55987852E+04</totfact>
</mgrwt>
</event>
<event>
 7    0  0.4705418E-002  0.4572389E+03  0.7546771E-02  0.1025585E+00
         21   -1    0    0  502  501  0.00000000000E+00  0.00000000000E+00  0.42559536995E+03  0.42559536995E+03  0.00000000000E+00 0. -1.
         21   -1    0    0  501  502 -0.00000000000E+00 -0.00000000000E+00 -0.12280881248E+03  0.12280881248E+03  0.00000000000E+00 0. -1.
      99926    2    1    2    0    0  0.00000000000E+00  0.00000000000E+00  0.30278655747E+03  0.54840418244E+03  0.45723893965E+03 0.  0.
      99925    2    3    3    0    0 -0.68699032904E+02  0.88615853921E+02  0.15824022775E+03  0.32678857779E+03  0.26301801879E+03 0.  0.
         25    1    3    3    0    0  0.68699032904E+02 -0.88615853921E+02  0.14454632972E+03  0.22161560465E+03  0.12509000000E+03 0.  0.
         25    1    4    4    0    0 -0.19331319020E+02  0.56339344976E+02  0.12002684559E+03  0.18330786522E+03  0.12509000000E+03 0.  0.
         25    1    4    4    0    0 -0.49367713884E+02  0.32276508945E+02  0.38213382156E+02  0.14348071257E+03  0.12509000000E+03 0.  0.
<mgrwt>
<rscale>  2 0.45723894E+03</rscale>
<asrwt>0</asrwt>
<pdfrwt beam="1">  1       21 0.62587554E-01 0.45723894E+03</pdfrwt>
<pdfrwt beam="2">  1       21 0.18060120E-01 0.45723894E+03</pdfrwt>
<totfact> 0.60886292E+04</totfact>
</mgrwt>
</event>
<event>
 7    0  0.4705418E-002  0.4536549E+03  0.7546771E-02  0.1026638E+00
         21   -1    0    0  502  501  0.00000000000E+00  0.00000000000E+00  0.80627037431E+02  0.80627037431E+02  0.00000000000E+00 0. -1.
         21   -1    0    0  501  502 -0.00000000000E+00 -0.00000000000E+00 -0.63813197780E+03  0.63813197780E+03  0.00000000000E+00 0. -1.
      99926    2    1    2    0    0  0.00000000000E+00  0.00000000000E+00 -0.55750494037E+03  0.71875901523E+03  0.45365489465E+03 0.  0.
      99925    2    3    3    0    0 -0.82121837471E+02 -0.72989402598E+02 -0.31623510709E+03  0.42562066968E+03  0.26282477513E+03 0.  0.
         25    1    3    3    0    0  0.82121837471E+02  0.72989402598E+02 -0.24126983328E+03  0.29313834555E+03  0.12509000000E+03 0.  0.
         25    1    4    4    0    0 -0.33940963049E+02 -0.27758708312E+02 -0.95235119134E+02  0.16321694421E+03  0.12509000000E+03 0.  0.
         25    1    4    4    0    0 -0.48180874423E+02 -0.45230694287E+02 -0.22099998796E+03  0.26240372547E+03  0.12509000000E+03 0.  0.
<mgrwt>
<rscale>  2 0.45365489E+03</rscale>
<asrwt>0</asrwt>
<pdfrwt beam="1">  1       21 0.11856918E-01 0.45365489E+03</pdfrwt>
<pdfrwt beam="2">  1       21 0.93842932E-01 0.45365489E+03</pdfrwt>
<totfact> 0.52449040E+04</totfact>
</mgrwt>
</event>
<event>
 7    0  0.4705418E-002  0.4578902E+03  0.7546771E-02  0.1025395E+00
         21   -1    0    0  502  501  0.00000000000E+00  0.00000000000E+00  0.10977553439E+04  0.10977553439E+04  0.00000000000E+00 0.  1.
         21   -1    0    0  501  502 -0.00000000000E+00 -0.00000000000E+00 -0.47748207368E+02  0.47748207368E+02  0.00000000000E+00 0.  1.
      99926    2    1    2    0    0  0.00000000000E+00  0.00000000000E+00  0.10500071365E+04  0.11455035512E+04  0.45789016062E+03 0.  0.
      99925    2    3    3    0    0 -0.32848257904E+02 -0.38696433166E+02  0.91956945338E+03  0.95778589286E+03  0.26300078894E+03 0.  0.
         25    1    4    4    0    0 -0.28248631036E+02 -0.51069430769E+02  0.39777366001E+03  0.42104330491E+03  0.12509000000E+03 0.  0.
         25    1    3    3    0    0  0.32848257904E+02  0.38696433166E+02  0.13043768311E+03  0.18771765836E+03  0.12509000000E+03 0.  0.
         25    1    4    4    0    0 -0.45996268690E+01  0.12372997604E+02  0.52179579337E+03  0.53674258795E+03  0.12509000000E+03 0.  0.
<mgrwt>
<rscale>  2 0.45789016E+03</rscale>
<asrwt>0</asrwt>
<pdfrwt beam="1">  1       21 0.16143459E+00 0.45789016E+03</pdfrwt>
<pdfrwt beam="2">  1       21 0.70217959E-02 0.45789016E+03</pdfrwt>
<totfact> 0.33179133E+04</totfact>
</mgrwt>
</event>
<event>
 7    0  0.4705418E-002  0.4137911E+03  0.7546771E-02  0.1039106E+00
         21   -1    0    0  502  501  0.00000000000E+00  0.00000000000E+00  0.13180582701E+04  0.13180582701E+04  0.00000000000E+00 0.  1.
         21   -1    0    0  501  502 -0.00000000000E+00 -0.00000000000E+00 -0.32476377747E+02  0.32476377747E+02  0.00000000000E+00 0.  1.
      99926    2    1    2    0    0  0.00000000000E+00  0.00000000000E+00  0.12855818924E+04  0.13505346479E+04  0.41379105004E+03 0.  0.
      99925    2    3    3    0    0 -0.64565107422E+02  0.19699263498E+02  0.82605707799E+03  0.86952812275E+03  0.26296795635E+03 0.  0.
         25    1    4    4    0    0 -0.50186348807E+02 -0.87816291358E+01  0.52219892931E+03  0.53938392309E+03  0.12509000000E+03 0.  0.
         25    1    3    3    0    0  0.64565107422E+02 -0.19699263498E+02  0.45952481440E+03  0.48100652514E+03  0.12509000000E+03 0.  0.
         25    1    4    4    0    0 -0.14378758615E+02  0.28480892634E+02  0.30385814868E+03  0.33014419966E+03  0.12509000000E+03 0.  0.
<mgrwt>
<rscale>  2 0.41379105E+03</rscale>
<asrwt>0</asrwt>
<pdfrwt beam="1">  1       21 0.19383206E+00 0.41379105E+03</pdfrwt>
<pdfrwt beam="2">  1       21 0.47759388E-02 0.41379105E+03</pdfrwt>
<totfact> 0.38660101E+04</totfact>
</mgrwt>
</event>
<event>
 7    0  0.4705418E-002  0.4533473E+03  0.7546771E-02  0.1026729E+00
         21   -1    0    0  502  501  0.00000000000E+00  0.00000000000E+00  0.48716792641E+03  0.48716792641E+03  0.00000000000E+00 0. -1.
         21   -1    0    0  501  502 -0.00000000000E+00 -0.00000000000E+00 -0.10546864778E+03  0.10546864778E+03  0.00000000000E+00 0. -1.
      99926    2    1    2    0    0 -0.35527136788E-14 -0.14210854715E-13  0.38169927863E+03  0.59263657419E+03  0.45334729487E+03 0.  0.
      99925    2    3    3    0    0 -0.26972245006E+02 -0.10419778298E+03  0.20219628384E+03  0.34880566307E+03  0.26305393632E+03 0.  0.
         25    1    4    4    0    0  0.10420743979E+02 -0.27606968659E+02  0.62861996823E+02  0.14307297218E+03  0.12509000000E+03 0.  0.
         25    1    4    4    0    0 -0.37392988985E+02 -0.76590814321E+02  0.13933428701E+03  0.20573269089E+03  0.12509000000E+03 0.  0.
         25    1    3    3    0    0  0.26972245006E+02  0.10419778298E+03  0.17950299479E+03  0.24383091112E+03  0.12509000000E+03 0.  0.
<mgrwt>
<rscale>  2 0.45334729E+03</rscale>
<asrwt>0</asrwt>
<pdfrwt beam="1">  1       21 0.71642341E-01 0.45334729E+03</pdfrwt>
<pdfrwt beam="2">  1       21 0.15510095E-01 0.45334729E+03</pdfrwt>
<totfact> 0.59912507E+04</totfact>
</mgrwt>
</event>
<event>
 7    0  0.4705418E-002  0.4608703E+03  0.7546771E-02  0.1024529E+00
         21   -1    0    0  502  501  0.00000000000E+00  0.00000000000E+00  0.27120903737E+03  0.27120903737E+03  0.00000000000E+00 0.  1.
         21   -1    0    0  501  502 -0.00000000000E+00 -0.00000000000E+00 -0.19579127722E+03  0.19579127722E+03  0.00000000000E+00 0.  1.
      99926    2    1    2    0    0  0.00000000000E+00 -0.14210854715E-13  0.75417760144E+02  0.46700031459E+03  0.46087032371E+03 0.  0.
      99925    2    3    3    0    0 -0.32167850017E+02  0.11226891257E+03  0.68197921714E+02  0.29571484097E+03  0.26297762517E+03 0.  0.
         25    1    4    4    0    0  0.55965419002E+01  0.32966632620E+02  0.29310036361E+01  0.12951532353E+03  0.12509000000E+03 0.  0.
         25    1    4    4    0    0 -0.37764391917E+02  0.79302279950E+02  0.65266918077E+02  0.16619951744E+03  0.12509000000E+03 0.  0.
         25    1    3    3    0    0  0.32167850017E+02 -0.11226891257E+03  0.72198384306E+01  0.17128547361E+03  0.12509000000E+03 0.  0.
<mgrwt>
<rscale>  2 0.46087032E+03</rscale>
<asrwt>0</asrwt>
<pdfrwt beam="1">  1       21 0.39883683E-01 0.46087032E+03</pdfrwt>
<pdfrwt beam="2">  1       21 0.28792834E-01 0.46087032E+03</pdfrwt>
<totfact> 0.64594505E+04</totfact>
</mgrwt>
</event>
<event>
 7    0  0.4705418E-002  0.4519566E+03  0.7546771E-02  0.1027140E+00
         21   -1    0    0  502  501  0.00000000000E+00  0.00000000000E+00  0.23289976934E+03  0.23289976934E+03  0.00000000000E+00 0.  1.
         21   -1    0    0  501  502 -0.00000000000E+00 -0.00000000000E+00 -0.21926251061E+03  0.21926251061E+03  0.00000000000E+00 0.  1.
      99926    2    1    2    0    0  0.00000000000E+00  0.00000000000E+00  0.13637258737E+02  0.45216227995E+03  0.45195658263E+03 0.  0.
      99925    2    3    3    0    0 -0.64814002720E+02  0.64843711739E+02 -0.55183742338E+02  0.28248788533E+03  0.26143564799E+03 0.  0.
         25    1    3    3    0    0  0.64814002720E+02 -0.64843711739E+02  0.68821001075E+02  0.16967439462E+03  0.12509000000E+03 0.  0.
         25    1    4    4    0    0 -0.34470240425E+02  0.41461458145E+02 -0.65717919064E+02  0.15124021612E+03  0.12509000000E+03 0.  0.
         25    1    4    4    0    0 -0.30343762294E+02  0.23382253594E+02  0.10534176727E+02  0.13124766921E+03  0.12509000000E+03 0.  0.
<mgrwt>
<rscale>  2 0.45195658E+03</rscale>
<asrwt>0</asrwt>
<pdfrwt beam="1">  1       21 0.34249966E-01 0.45195658E+03</pdfrwt>
<pdfrwt beam="2">  1       21 0.32244487E-01 0.45195658E+03</pdfrwt>
<totfact> 0.70449452E+04</totfact>
</mgrwt>
</event>
<event>
 7    0  0.4705418E-002  0.4581998E+03  0.7546771E-02  0.1025305E+00
         21   -1    0    0  502  501  0.00000000000E+00  0.00000000000E+00  0.55705439793E+03  0.55705439793E+03  0.00000000000E+00 0.  1.
         21   -1    0    0  501  502 -0.00000000000E+00 -0.00000000000E+00 -0.94221965037E+02  0.94221965037E+02  0.00000000000E+00 0.  1.
      99926    2    1    2    0    0  0.00000000000E+00  0.00000000000E+00  0.46283243289E+03  0.65127636296E+03  0.45819978178E+03 0.  0.
      99925    2    3    3    0    0 -0.74337824448E+02 -0.34627769539E+02  0.17356986944E+03  0.32563003137E+03  0.26302703889E+03 0.  0.
         25    1    4    4    0    0 -0.70524919141E+02 -0.38612583987E+02  0.76675121253E+02  0.16730594186E+03  0.12509000000E+03 0.  0.
         25    1    3    3    0    0  0.74337824448E+02  0.34627769539E+02  0.28926256345E+03  0.32564633160E+03  0.12509000000E+03 0.  0.
         25    1    4    4    0    0 -0.38129053068E+01  0.39848144481E+01  0.96894748184E+02  0.15832408951E+03  0.12509000000E+03 0.  0.
<mgrwt>
<rscale>  2 0.45819978E+03</rscale>
<asrwt>0</asrwt>
<pdfrwt beam="1">  1       21 0.81919763E-01 0.45819978E+03</pdfrwt>
<pdfrwt beam="2">  1       21 0.13856172E-01 0.45819978E+03</pdfrwt>
<totfact> 0.54245696E+04</totfact>
</mgrwt>
</event>
<event>
 7    0  0.4705418E-002  0.4601532E+03  0.7546771E-02  0.1024737E+00
         21   -1    0    0  502  501  0.00000000000E+00  0.00000000000E+00  0.42522085435E+03  0.42522085435E+03  0.00000000000E+00 0. -1.
         21   -1    0    0  501  502 -0.00000000000E+00 -0.00000000000E+00 -0.12448884453E+03  0.12448884453E+03  0.00000000000E+00 0. -1.
      99926    2    1    2    0    0  0.00000000000E+00  0.14210854715E-13  0.30073200982E+03  0.54970969888E+03  0.46015324765E+03 0.  0.
      99925    2    3    3    0    0 -0.32615430479E+02 -0.88621642488E+02  0.27253269297E+03  0.39046061288E+03  0.26318787900E+03 0.  0.
         25    1    3    3    0    0  0.32615430479E+02  0.88621642488E+02  0.28199316851E+02  0.15924908601E+03  0.12509000000E+03 0.  0.
         25    1    4    4    0    0 -0.25741810513E+02 -0.83502004927E+02  0.17050038338E+03  0.22880802972E+03  0.12509000000E+03 0.  0.
         25    1    4    4    0    0 -0.68736199661E+01 -0.51196375617E+01  0.10203230959E+03  0.16165258315E+03  0.12509000000E+03 0.  0.
<mgrwt>
<rscale>  2 0.46015325E+03</rscale>
<asrwt>0</asrwt>
<pdfrwt beam="1">  1       21 0.62532478E-01 0.46015325E+03</pdfrwt>
<pdfrwt beam="2">  1       21 0.18307183E-01 0.46015325E+03</pdfrwt>
<totfact> 0.59425438E+04</totfact>
</mgrwt>
</event>
<event>
 7    0  0.4705418E-002  0.4478229E+03  0.7546771E-02  0.1028373E+00
         21   -1    0    0  502  501  0.00000000000E+00  0.00000000000E+00  0.22796618890E+03  0.22796618890E+03  0.00000000000E+00 0.  1.
         21   -1    0    0  501  502 -0.00000000000E+00 -0.00000000000E+00 -0.21992879765E+03  0.21992879765E+03  0.00000000000E+00 0.  1.
      99926    2    1    2    0    0  0.14210854715E-13 -0.35527136788E-14  0.80373912502E+01  0.44789498656E+03  0.44782286602E+03 0.  0.
      99925    2    3    3    0    0 -0.91390980784E+02  0.23949446835E+02  0.53922973437E+02  0.28455827261E+03  0.26294454943E+03 0.  0.
         25    1    4    4    0    0 -0.59708613021E+02  0.42455323852E+02  0.41676310369E+01  0.14502568821E+03  0.12509000000E+03 0.  0.
         25    1    3    3    0    0  0.91390980784E+02 -0.23949446835E+02 -0.45885582187E+02  0.16333671395E+03  0.12509000000E+03 0.  0.
         25    1    4    4    0    0 -0.31682367763E+02 -0.18505877017E+02  0.49755342400E+02  0.13953258440E+03  0.12509000000E+03 0.  0.
<mgrwt>
<rscale>  2 0.44782287E+03</rscale>
<asrwt>0</asrwt>
<pdfrwt beam="1">  1       21 0.33524440E-01 0.44782287E+03</pdfrwt>
<pdfrwt beam="2">  1       21 0.32342470E-01 0.44782287E+03</pdfrwt>
<totfact> 0.73170742E+04</totfact>
</mgrwt>
</event>
<event>
 7    0  0.4705418E-002  0.4660868E+03  0.7546771E-02  0.1023031E+00
         21   -1    0    0  502  501  0.00000000000E+00  0.00000000000E+00  0.31934616016E+02  0.31934616016E+02  0.00000000000E+00 0.  1.
         21   -1    0    0  501  502 -0.00000000000E+00 -0.00000000000E+00 -0.17006381768E+04  0.17006381768E+04  0.00000000000E+00 0.  1.
      99926    2    1    2    0    0 -0.71054273576E-14  0.00000000000E+00 -0.16687035608E+04  0.17325727928E+04  0.46608680376E+03 0.  0.
      99925    2    3    3    0    0 -0.52365481334E+02 -0.84501762736E+02 -0.76895960436E+03  0.81875148274E+03  0.26300651285E+03 0.  0.
         25    1    3    3    0    0  0.52365481334E+02  0.84501762736E+02 -0.89974395642E+03  0.91382131008E+03  0.12509000000E+03 0.  0.
         25    1    4    4    0    0 -0.41772517863E+02 -0.20106726759E+02 -0.46284423853E+03  0.48168612285E+03  0.12509000000E+03 0.  0.
         25    1    4    4    0    0 -0.10592963471E+02 -0.64395035977E+02 -0.30611536583E+03  0.33706535988E+03  0.12509000000E+03 0.  0.
<mgrwt>
<rscale>  2 0.46608680E+03</rscale>
<asrwt>0</asrwt>
<pdfrwt beam="1">  1       21 0.46962681E-02 0.46608680E+03</pdfrwt>
<pdfrwt beam="2">  1       21 0.25009379E+00 0.46608680E+03</pdfrwt>
<totfact> 0.17074232E+04</totfact>
</mgrwt>
</event>
<event>
 7    0  0.4705418E-002  0.4613552E+03  0.7546771E-02  0.1024389E+00
         21   -1    0    0  502  501  0.00000000000E+00  0.00000000000E+00  0.90376853943E+02  0.90376853943E+02  0.00000000000E+00 0.  1.
         21   -1    0    0  501  502 -0.00000000000E+00 -0.00000000000E+00 -0.58878078085E+03  0.58878078085E+03  0.00000000000E+00 0.  1.
      99926    2    1    2    0    0  0.00000000000E+00  0.00000000000E+00 -0.49840392691E+03  0.67915763480E+03  0.46135519781E+03 0.  0.
      99925    2    3    3    0    0  0.48744819950E+02  0.96609086850E+02 -0.23893200396E+03  0.37145232117E+03  0.26301891805E+03 0.  0.
         25    1    4    4    0    0 -0.27342798768E+01  0.41587986373E+02 -0.15316023036E+03  0.20209552484E+03  0.12509000000E+03 0.  0.
         25    1    4    4    0    0  0.51479099826E+02  0.55021100476E+02 -0.85771773601E+02  0.16935679633E+03  0.12509000000E+03 0.  0.
         25    1    3    3    0    0 -0.48744819950E+02 -0.96609086850E+02 -0.25947192295E+03  0.30770531362E+03  0.12509000000E+03 0.  0.
<mgrwt>
<rscale>  2 0.46135520E+03</rscale>
<asrwt>0</asrwt>
<pdfrwt beam="1">  1       21 0.13290714E-01 0.46135520E+03</pdfrwt>
<pdfrwt beam="2">  1       21 0.86585408E-01 0.46135520E+03</pdfrwt>
<totfact> 0.51425443E+04</totfact>
</mgrwt>
</event>
<event>
 7    0  0.4705418E-002  0.4653652E+03  0.7546771E-02  0.1023237E+00
         21   -1    0    0  502  501  0.00000000000E+00  0.00000000000E+00  0.30745196218E+03  0.30745196218E+03  0.00000000000E+00 0. -1.
         21   -1    0    0  501  502 -0.00000000000E+00 -0.00000000000E+00 -0.17609642419E+03  0.17609642419E+03  0.00000000000E+00 0. -1.
      99926    2    1    2    0    0  0.00000000000E+00 -0.14210854715E-13  0.13135553800E+03  0.48354838637E+03  0.46536519487E+03 0.  0.
      99925    2    3    3    0    0 -0.80147333032E+02 -0.84865916898E+02  0.42788615078E+02  0.29088955117E+03  0.26298297770E+03 0.  0.
         25    1    4    4    0    0 -0.13160134427E+02 -0.10388311589E+02  0.32383467033E+02  0.13029698075E+03  0.12509000000E+03 0.  0.
         25    1    4    4    0    0 -0.66987198604E+02 -0.74477605309E+02  0.10405148045E+02  0.16059257042E+03  0.12509000000E+03 0.  0.
         25    1    3    3    0    0  0.80147333032E+02  0.84865916898E+02  0.88566922918E+02  0.19265883519E+03  0.12509000000E+03 0.  0.
<mgrwt>
<rscale>  2 0.46536519E+03</rscale>
<asrwt>0</asrwt>
<pdfrwt beam="1">  1       21 0.45213523E-01 0.46536519E+03</pdfrwt>
<pdfrwt beam="2">  1       21 0.25896533E-01 0.46536519E+03</pdfrwt>
<totfact> 0.61247010E+04</totfact>
</mgrwt>
</event>
<event>
 6    0  0.4705418E-002  0.4584690E+03  0.7546771E-02  0.1025226E+00
         21   -1    0    0  502  501  0.00000000000E+00  0.00000000000E+00  0.52241771772E+03  0.52241771772E+03  0.00000000000E+00 0.  1.
         21   -1    0    0  501  502 -0.00000000000E+00 -0.00000000000E+00 -0.10058706736E+03  0.10058706736E+03  0.00000000000E+00 0.  1.
      99926    2    1    2    0    0  0.14210854715E-13  0.35527136788E-14  0.42183065036E+03  0.62300478508E+03  0.45846904437E+03 0.  0.
         25    1    3    3    0    0 -0.71982720422E+02 -0.21090342393E+02  0.80242545055E+02  0.16647128497E+03  0.12509000000E+03 0.  0.
         25    1    3    3    0    0  0.71337114109E+02  0.25955545916E+02  0.28240823645E+03  0.31806382115E+03  0.12509000000E+03 0.  0.
         25    1    3    3    0    0  0.64560631260E+00 -0.48652035234E+01  0.59179868859E+02  0.13846967896E+03  0.12509000000E+03 0.  0.
<mgrwt>
<rscale>  2 0.45846904E+03</rscale>
<asrwt>0</asrwt>
<pdfrwt beam="1">  1       21 0.76826134E-01 0.45846904E+03</pdfrwt>
<pdfrwt beam="2">  1       21 0.14792216E-01 0.45846904E+03</pdfrwt>
<totfact> 0.55741538E+04</totfact>
</mgrwt>
</event>
<event>
 7    0  0.4705418E-002  0.4561320E+03  0.7546771E-02  0.1025909E+00
         21   -1    0    0  502  501  0.00000000000E+00  0.00000000000E+00  0.42229420439E+02  0.42229420439E+02  0.00000000000E+00 0.  1.
         21   -1    0    0  501  502 -0.00000000000E+00 -0.00000000000E+00 -0.12317028704E+04  0.12317028704E+04  0.00000000000E+00 0.  1.
      99926    2    1    2    0    0  0.17763568394E-14  0.00000000000E+00 -0.11894734499E+04  0.12739322908E+04  0.45613199128E+03 0.  0.
      99925    2    3    3    0    0  0.12026121626E+02  0.58645954579E+02 -0.47601870687E+03  0.54712478253E+03  0.26299760984E+03 0.  0.
         25    1    3    3    0    0 -0.12026121626E+02 -0.58645954579E+02 -0.71345474306E+03  0.72680750827E+03  0.12509000000E+03 0.  0.
         25    1    4    4    0    0 -0.22270884766E+02  0.88022183406E+01 -0.18458901658E+03  0.22426342657E+03  0.12509000000E+03 0.  0.
         25    1    4    4    0    0  0.34297006392E+02  0.49843736238E+02 -0.29142969029E+03  0.32286135596E+03  0.12509000000E+03 0.  0.
<mgrwt>
<rscale>  2 0.45613199E+03</rscale>
<asrwt>0</asrwt>
<pdfrwt beam="1">  1       21 0.62102090E-02 0.45613199E+03</pdfrwt>
<pdfrwt beam="2">  1       21 0.18113277E+00 0.45613199E+03</pdfrwt>
<totfact> 0.29619486E+04</totfact>
</mgrwt>
</event>
<event>
 7    0  0.4705418E-002  0.4325885E+03  0.7546771E-02  0.1033045E+00
         21   -1    0    0  502  501  0.00000000000E+00  0.00000000000E+00  0.26888976691E+03  0.26888976691E+03  0.00000000000E+00 0. -1.
         21   -1    0    0  501  502 -0.00000000000E+00 -0.00000000000E+00 -0.17398653971E+03  0.17398653971E+03  0.00000000000E+00 0. -1.
      99926    2    1    2    0    0  0.71054273576E-14  0.14210854715E-13  0.94903227196E+02  0.44287630662E+03  0.43258848856E+03 0.  0.
      99925    2    3    3    0    0 -0.48260454551E+02 -0.67457840386E+02  0.98623273870E+02  0.29273977359E+03  0.26285051491E+03 0.  0.
         25    1    3    3    0    0  0.48260454551E+02  0.67457840386E+02 -0.37200466738E+01  0.15013653303E+03  0.12509000000E+03 0.  0.
         25    1    4    4    0    0 -0.89483989253E+01 -0.66322408590E+02  0.31047507476E+02  0.14522462444E+03  0.12509000000E+03 0.  0.
         25    1    4    4    0    0 -0.39312055625E+02 -0.11354317957E+01  0.67575766395E+02  0.14751514914E+03  0.12509000000E+03 0.  0.
<mgrwt>
<rscale>  2 0.43258849E+03</rscale>
<asrwt>0</asrwt>
<pdfrwt beam="1">  1       21 0.39542613E-01 0.43258849E+03</pdfrwt>
<pdfrwt beam="2">  1       21 0.25586256E-01 0.43258849E+03</pdfrwt>
<totfact> 0.83370250E+04</totfact>
</mgrwt>
</event>
<event>
 7    0  0.4705418E-002  0.4713567E+03  0.7546771E-02  0.1021538E+00
         21   -1    0    0  502  501  0.00000000000E+00  0.00000000000E+00  0.27952521727E+03  0.27952521727E+03  0.00000000000E+00 0. -1.
         21   -1    0    0  501  502 -0.00000000000E+00 -0.00000000000E+00 -0.19870939436E+03  0.19870939436E+03  0.00000000000E+00 0. -1.
      99926    2    1    2    0    0  0.35527136788E-14  0.00000000000E+00  0.80815822915E+02  0.47823461163E+03  0.47135670837E+03 0.  0.
      99925    2    3    3    0    0 -0.21040631139E+02 -0.15931931593E+02  0.17710200659E+03  0.31818751896E+03  0.26302403290E+03 0.  0.
         25    1    4    4    0    0 -0.41577702050E+02 -0.34275537735E+02  0.87948486805E+02  0.16212946131E+03  0.12509000000E+03 0.  0.
         25    1    4    4    0    0  0.20537070911E+02  0.18343606143E+02  0.89153519783E+02  0.15605805765E+03  0.12509000000E+03 0.  0.
         25    1    3    3    0    0  0.21040631139E+02  0.15931931593E+02 -0.96286183672E+02  0.16004709266E+03  0.12509000000E+03 0.  0.
<mgrwt>
<rscale>  2 0.47135671E+03</rscale>
<asrwt>0</asrwt>
<pdfrwt beam="1">  1       21 0.41106650E-01 0.47135671E+03</pdfrwt>
<pdfrwt beam="2">  1       21 0.29221969E-01 0.47135671E+03</pdfrwt>
<totfact> 0.58811737E+04</totfact>
</mgrwt>
</event>
<event>
 7    0  0.4705418E-002  0.4541500E+03  0.7546771E-02  0.1026492E+00
         21   -1    0    0  502  501  0.00000000000E+00  0.00000000000E+00  0.26228359238E+02  0.26228359238E+02  0.00000000000E+00 0.  1.
         21   -1    0    0  501  502 -0.00000000000E+00 -0.00000000000E+00 -0.19659278307E+04  0.19659278307E+04  0.00000000000E+00 0.  1.
      99926    2    1    2    0    0  0.14210854715E-13  0.00000000000E+00 -0.19396994715E+04  0.19921561899E+04  0.45415002534E+03 0.  0.
      99925    2    3    3    0    0  0.70482393769E+02  0.23815318047E+02 -0.15905464070E+04  0.16138833946E+04  0.26314786942E+03 0.  0.
         25    1    4    4    0    0  0.11726632737E+02  0.41829778877E+02 -0.68609321696E+03  0.69875507495E+03  0.12509000000E+03 0.  0.
         25    1    4    4    0    0  0.58755761032E+02 -0.18014460830E+02 -0.90445319007E+03  0.91512831962E+03  0.12509000000E+03 0.  0.
         25    1    3    3    0    0 -0.70482393769E+02 -0.23815318047E+02 -0.34915306443E+03  0.37827279536E+03  0.12509000000E+03 0.  0.
<mgrwt>
<rscale>  2 0.45415003E+03</rscale>
<asrwt>0</asrwt>
<pdfrwt beam="1">  1       21 0.38571109E-02 0.45415003E+03</pdfrwt>
<pdfrwt beam="2">  1       21 0.28910709E+00 0.45415003E+03</pdfrwt>
<totfact> 0.13929848E+04</totfact>
</mgrwt>
</event>
<event>
 7    0  0.4705418E-002  0.4607681E+03  0.7546771E-02  0.1024559E+00
         21   -1    0    0  502  501  0.00000000000E+00  0.00000000000E+00  0.21187544488E+03  0.21187544488E+03  0.00000000000E+00 0. -1.
         21   -1    0    0  501  502 -0.00000000000E+00 -0.00000000000E+00 -0.25050953002E+03  0.25050953002E+03  0.00000000000E+00 0. -1.
      99926    2    1    2    0    0  0.14210854715E-13  0.00000000000E+00 -0.38634085139E+02  0.46238497490E+03  0.46076813310E+03 0.  0.
      99925    2    3    3    0    0 -0.94721733072E+02  0.37879798271E+02  0.36153200647E+02  0.28448688034E+03  0.26309436584E+03 0.  0.
         25    1    4    4    0    0 -0.67568993353E+02  0.19885077853E+02  0.55251233555E+02  0.15382194932E+03  0.12509000000E+03 0.  0.
         25    1    3    3    0    0  0.94721733072E+02 -0.37879798271E+02 -0.74787285786E+02  0.17789809456E+03  0.12509000000E+03 0.  0.
         25    1    4    4    0    0 -0.27152739720E+02  0.17994720418E+02 -0.19098032908E+02  0.13066493102E+03  0.12509000000E+03 0.  0.
<mgrwt>
<rscale>  2 0.46076813E+03</rscale>
<asrwt>0</asrwt>
<pdfrwt beam="1">  1       21 0.31158154E-01 0.46076813E+03</pdfrwt>
<pdfrwt beam="2">  1       21 0.36839636E-01 0.46076813E+03</pdfrwt>
<totfact> 0.64966387E+04</totfact>
</mgrwt>
</event>
<event>
 7    0  0.4705418E-002  0.4534042E+03  0.7546771E-02  0.1026712E+00
         21   -1    0    0  502  501  0.00000000000E+00  0.00000000000E+00  0.57870227154E+03  0.57870227154E+03  0.00000000000E+00 0.  1.
         21   -1    0    0  501  502 -0.00000000000E+00 -0.00000000000E+00 -0.88808779790E+02  0.88808779790E+02  0.00000000000E+00 0.  1.
      99926    2    1    2    0    0 -0.14210854715E-13 -0.71054273576E-14  0.48989349175E+03  0.66751105133E+03  0.45340420200E+03 0.  0.
      99925    2    3    3    0    0  0.10385202344E+03  0.40634817140E+02  0.31791899758E+03  0.42738782071E+03  0.26296659320E+03 0.  0.
         25    1    3    3    0    0 -0.10385202344E+03 -0.40634817140E+02  0.17197449417E+03  0.24012323062E+03  0.12509000000E+03 0.  0.
         25    1    4    4    0    0  0.16192001237E+02 -0.44585516203E+01  0.14765574358E+03  0.19424671503E+03  0.12509000000E+03 0.  0.
         25    1    4    4    0    0  0.87660022202E+02  0.45093368760E+02  0.17026325399E+03  0.23314110568E+03  0.12509000000E+03 0.  0.
<mgrwt>
<rscale>  2 0.45340420E+03</rscale>
<asrwt>0</asrwt>
<pdfrwt beam="1">  1       21 0.85103273E-01 0.45340420E+03</pdfrwt>
<pdfrwt beam="2">  1       21 0.13060115E-01 0.45340420E+03</pdfrwt>
<totfact> 0.55396208E+04</totfact>
</mgrwt>
</event>
<event>
 7    0  0.4705418E-002  0.4525956E+03  0.7546771E-02  0.1026951E+00
         21   -1    0    0  502  501  0.00000000000E+00  0.00000000000E+00  0.15220713948E+02  0.15220713948E+02  0.00000000000E+00 0. -1.
         21   -1    0    0  501  502 -0.00000000000E+00 -0.00000000000E+00 -0.33645389700E+04  0.33645389700E+04  0.00000000000E+00 0. -1.
      99926    2    1    2    0    0  0.00000000000E+00  0.69388939039E-16 -0.33493182561E+04  0.33797596840E+04  0.45259555999E+03 0.  0.
      99925    2    3    3    0    0  0.39685479452E+02  0.10489714155E+00 -0.28854667109E+04  0.28977008573E+04  0.26301553295E+03 0.  0.
         25    1    3    3    0    0 -0.39685479452E+02 -0.10489714155E+00 -0.46385154519E+03  0.48205882666E+03  0.12509000000E+03 0.  0.
         25    1    4    4    0    0  0.43668417443E+02  0.27215433311E+02 -0.16863805573E+04  0.16917962356E+04  0.12509000000E+03 0.  0.
         25    1    4    4    0    0 -0.39829379917E+01 -0.27110536169E+02 -0.11990861536E+04  0.12059046218E+04  0.12509000000E+03 0.  0.
<mgrwt>
<rscale>  2 0.45259556E+03</rscale>
<asrwt>0</asrwt>
<pdfrwt beam="1">  1       21 0.22383411E-02 0.45259556E+03</pdfrwt>
<pdfrwt beam="2">  1       21 0.49478495E+00 0.45259556E+03</pdfrwt>
<totfact> 0.16592376E+03</totfact>
</mgrwt>
</event>
<event>
 7    0  0.4705418E-002  0.4486326E+03  0.7546771E-02  0.1028131E+00
         21   -1    0    0  502  501  0.00000000000E+00  0.00000000000E+00  0.60429055456E+03  0.60429055456E+03  0.00000000000E+00 0. -1.
         21   -1    0    0  501  502 -0.00000000000E+00 -0.00000000000E+00 -0.83267555642E+02  0.83267555642E+02  0.00000000000E+00 0. -1.
      99926    2    1    2    0    0  0.00000000000E+00  0.14210854715E-13  0.52102299892E+03  0.68755811020E+03  0.44863257740E+03 0.  0.
      99925    2    3    3    0    0 -0.37985349433E+02 -0.10005943084E+03  0.33668743054E+03  0.44041061105E+03  0.26296065098E+03 0.  0.
         25    1    4    4    0    0  0.13556946117E+02 -0.36303325652E+02  0.12359129769E+03  0.18006676319E+03  0.12509000000E+03 0.  0.
         25    1    3    3    0    0  0.37985349433E+02  0.10005943084E+03  0.18433556838E+03  0.24714749916E+03  0.12509000000E+03 0.  0.
         25    1    4    4    0    0 -0.51542295550E+02 -0.63756105186E+02  0.21309613285E+03  0.26034384785E+03  0.12509000000E+03 0.  0.
<mgrwt>
<rscale>  2 0.44863258E+03</rscale>
<asrwt>0</asrwt>
<pdfrwt beam="1">  1       21 0.88866256E-01 0.44863258E+03</pdfrwt>
<pdfrwt beam="2">  1       21 0.12245229E-01 0.44863258E+03</pdfrwt>
<totfact> 0.56356105E+04</totfact>
</mgrwt>
</event>
<event>
 7    0  0.4705418E-002  0.4483777E+03  0.7546771E-02  0.1028207E+00
         21   -1    0    0  502  501  0.00000000000E+00  0.00000000000E+00  0.90138172456E+02  0.90138172456E+02  0.00000000000E+00 0.  1.
         21   -1    0    0  501  502 -0.00000000000E+00 -0.00000000000E+00 -0.55759562195E+03  0.55759562195E+03  0.00000000000E+00 0.  1.
      99926    2    1    2    0    0  0.62172489379E-14 -0.14210854715E-13 -0.46745744950E+03  0.64773379441E+03  0.44837774402E+03 0.  0.
      99925    2    3    3    0    0  0.76047276819E+01 -0.94117163371E+02 -0.22385779867E+03  0.35807162859E+03  0.26303441762E+03 0.  0.
         25    1    3    3    0    0 -0.76047276819E+01  0.94117163371E+02 -0.24359965083E+03  0.28966216582E+03  0.12509000000E+03 0.  0.
         25    1    4    4    0    0 -0.33658349580E+02 -0.58601624584E+02 -0.10013548780E+03  0.17390129073E+03  0.12509000000E+03 0.  0.
         25    1    4    4    0    0  0.41263077262E+02 -0.35515538787E+02 -0.12372231086E+03  0.18417033786E+03  0.12509000000E+03 0.  0.
<mgrwt>
<rscale>  2 0.44837774E+03</rscale>
<asrwt>0</asrwt>
<pdfrwt beam="1">  1       21 0.13255614E-01 0.44837774E+03</pdfrwt>
<pdfrwt beam="2">  1       21 0.81999354E-01 0.44837774E+03</pdfrwt>
<totfact> 0.58846875E+04</totfact>
</mgrwt>
</event>
<event>
 7    0  0.4705418E-002  0.4502624E+03  0.7546771E-02  0.1027644E+00
         21   -1    0    0  502  501  0.00000000000E+00  0.00000000000E+00  0.16383766889E+04  0.16383766889E+04  0.00000000000E+00 0. -1.
         21   -1    0    0  501  502 -0.00000000000E+00 -0.00000000000E+00 -0.30935536387E+02  0.30935536387E+02  0.00000000000E+00 0. -1.
      99926    2    1    2    0    0  0.00000000000E+00  0.00000000000E+00  0.16074411526E+04  0.16693122253E+04  0.45026241983E+03 0.  0.
      99925    2    3    3    0    0 -0.10082929732E+03  0.38382054360E+02  0.96919040066E+03  0.10100313598E+04  0.26304673672E+03 0.  0.
         25    1    4    4    0    0 -0.11406582123E+02 -0.86765323089E+00  0.43081998950E+03  0.44875854798E+03  0.12509000000E+03 0.  0.
         25    1    3    3    0    0  0.10082929732E+03 -0.38382054360E+02  0.63825075189E+03  0.65928086555E+03  0.12509000000E+03 0.  0.
         25    1    4    4    0    0 -0.89422715195E+02  0.39249707591E+02  0.53837041116E+03  0.56127281179E+03  0.12509000000E+03 0.  0.
<mgrwt>
<rscale>  2 0.45026242E+03</rscale>
<asrwt>0</asrwt>
<pdfrwt beam="1">  1       21 0.24093769E+00 0.45026242E+03</pdfrwt>
<pdfrwt beam="2">  1       21 0.45493447E-02 0.45026242E+03</pdfrwt>
<totfact> 0.20657388E+04</totfact>
</mgrwt>
</event>
<event>
 7    0  0.4705418E-002  0.4544990E+03  0.7546771E-02  0.1026389E+00
         21   -1    0    0  502  501  0.00000000000E+00  0.00000000000E+00  0.23083385288E+03  0.23083385288E+03  0.00000000000E+00 0.  1.
         21   -1    0    0  501  502 -0.00000000000E+00 -0.00000000000E+00 -0.22372075528E+03  0.22372075528E+03  0.00000000000E+00 0.  1.
      99926    2    1    2    0    0  0.14210854715E-13 -0.71054273576E-14  0.71130975989E+01  0.45455460816E+03  0.45449895010E+03 0.  0.
      99925    2    3    3    0    0 -0.96612981098E+02 -0.43401232095E+02 -0.34124120785E+02  0.28554055151E+03  0.26296618770E+03 0.  0.
         25    1    4    4    0    0 -0.78705393080E+02  0.26182597603E+01 -0.47732623207E+01  0.14789079186E+03  0.12509000000E+03 0.  0.
         25    1    4    4    0    0 -0.17907588019E+02 -0.46019491856E+02 -0.29350858464E+02  0.13764975965E+03  0.12509000000E+03 0.  0.
         25    1    3    3    0    0  0.96612981098E+02  0.43401232095E+02  0.41237218384E+02  0.16901405665E+03  0.12509000000E+03 0.  0.
<mgrwt>
<rscale>  2 0.45449895E+03</rscale>
<asrwt>0</asrwt>
<pdfrwt beam="1">  1       21 0.33946155E-01 0.45449895E+03</pdfrwt>
<pdfrwt beam="2">  1       21 0.32900111E-01 0.45449895E+03</pdfrwt>
<totfact> 0.68853288E+04</totfact>
</mgrwt>
</event>
<event>
 7    0  0.4705418E-002  0.4491459E+03  0.7546771E-02  0.1027977E+00
         21   -1    0    0  502  501  0.00000000000E+00  0.00000000000E+00  0.38620194697E+02  0.38620194697E+02  0.00000000000E+00 0. -1.
         21   -1    0    0  501  502 -0.00000000000E+00 -0.00000000000E+00 -0.13058713903E+04  0.13058713903E+04  0.00000000000E+00 0. -1.
      99926    2    1    2    0    0  0.00000000000E+00  0.00000000000E+00 -0.12672511956E+04  0.13444915850E+04  0.44914588873E+03 0.  0.
      99925    2    3    3    0    0 -0.80328284579E+02  0.60823827040E+02 -0.68867879932E+03  0.74403700963E+03  0.26298367216E+03 0.  0.
         25    1    4    4    0    0 -0.19975587282E+02  0.58362607263E+02 -0.40130328836E+03  0.42484945023E+03  0.12509000000E+03 0.  0.
         25    1    3    3    0    0  0.80328284579E+02 -0.60823827040E+02 -0.57857239625E+03  0.60045457533E+03  0.12509000000E+03 0.  0.
         25    1    4    4    0    0 -0.60352697297E+02  0.24612197767E+01 -0.28737551096E+03  0.31918755940E+03  0.12509000000E+03 0.  0.
<mgrwt>
<rscale>  2 0.44914589E+03</rscale>
<asrwt>0</asrwt>
<pdfrwt beam="1">  1       21 0.56794398E-02 0.44914589E+03</pdfrwt>
<pdfrwt beam="2">  1       21 0.19203993E+00 0.44914589E+03</pdfrwt>
<totfact> 0.29153743E+04</totfact>
</mgrwt>
</event>
<event>
 7    0  0.4705418E-002  0.4542222E+03  0.7546771E-02  0.1026470E+00
         21   -1    0    0  502  501  0.00000000000E+00  0.00000000000E+00  0.19766673539E+04  0.19766673539E+04  0.00000000000E+00 0.  1.
         21   -1    0    0  501  502 -0.00000000000E+00 -0.00000000000E+00 -0.26094149102E+02  0.26094149102E+02  0.00000000000E+00 0.  1.
      99926    2    1    2    0    0  0.00000000000E+00  0.00000000000E+00  0.19505732048E+04  0.20027615030E+04  0.45422220403E+03 0.  0.
      99925    2    3    3    0    0 -0.45355710520E+02  0.10162187008E+03  0.13014424866E+04  0.13323867254E+04  0.26290244446E+03 0.  0.
         25    1    4    4    0    0 -0.20278572287E+02  0.51252839747E+02  0.46150536616E+03  0.48132399190E+03  0.12509000000E+03 0.  0.
         25    1    4    4    0    0 -0.25077138233E+02  0.50369030331E+02  0.83993712041E+03  0.85106273354E+03  0.12509000000E+03 0.  0.
         25    1    3    3    0    0  0.45355710520E+02 -0.10162187008E+03  0.64913071822E+03  0.67037477757E+03  0.12509000000E+03 0.  0.
<mgrwt>
<rscale>  2 0.45422220E+03</rscale>
<asrwt>0</asrwt>
<pdfrwt beam="1">  1       21 0.29068627E+00 0.45422220E+03</pdfrwt>
<pdfrwt beam="2">  1       21 0.38373762E-02 0.45422220E+03</pdfrwt>
<totfact> 0.13747439E+04</totfact>
</mgrwt>
</event>
<event>
 7    0  0.4705418E-002  0.4559982E+03  0.7546771E-02  0.1025948E+00
         21   -1    0    0  502  501  0.00000000000E+00  0.00000000000E+00  0.98085152801E+02  0.98085152801E+02  0.00000000000E+00 0. -1.
         21   -1    0    0  501  502 -0.00000000000E+00 -0.00000000000E+00 -0.52998418014E+03  0.52998418014E+03  0.00000000000E+00 0. -1.
      99926    2    1    2    0    0  0.00000000000E+00 -0.14210854715E-13 -0.43189902734E+03  0.62806933294E+03  0.45599815478E+03 0.  0.
      99925    2    3    3    0    0 -0.54453338622E+02  0.97646375389E+02 -0.24369908576E+03  0.37594494533E+03  0.26352490738E+03 0.  0.
         25    1    3    3    0    0  0.54453338622E+02 -0.97646375389E+02 -0.18819994158E+03  0.25212438760E+03  0.12509000000E+03 0.  0.
         25    1    4    4    0    0  0.31054355630E+01  0.18574916446E+02 -0.12356237876E+03  0.17683280464E+03  0.12509000000E+03 0.  0.
         25    1    4    4    0    0 -0.57558774185E+02  0.79071458943E+02 -0.12013670699E+03  0.19911214069E+03  0.12509000000E+03 0.  0.
<mgrwt>
<rscale>  2 0.45599815E+03</rscale>
<asrwt>0</asrwt>
<pdfrwt beam="1">  1       21 0.14424288E-01 0.45599815E+03</pdfrwt>
<pdfrwt beam="2">  1       21 0.77938847E-01 0.45599815E+03</pdfrwt>
<totfact> 0.56536127E+04</totfact>
</mgrwt>
</event>
<event>
 7    0  0.4705418E-002  0.4556558E+03  0.7546771E-02  0.1026049E+00
         21   -1    0    0  502  501  0.00000000000E+00  0.00000000000E+00  0.10942072911E+04  0.10942072911E+04  0.00000000000E+00 0.  1.
         21   -1    0    0  501  502 -0.00000000000E+00 -0.00000000000E+00 -0.47436681161E+02  0.47436681161E+02  0.00000000000E+00 0.  1.
      99926    2    1    2    0    0  0.00000000000E+00  0.88817841970E-15  0.10467706100E+04  0.11416439723E+04  0.45565584554E+03 0.  0.
      99925    2    3    3    0    0  0.91987493641E+01 -0.49606056783E+01  0.37494486657E+03  0.45819202651E+03  0.26314835282E+03 0.  0.
         25    1    4    4    0    0 -0.23944002967E+02  0.66872661721E+01  0.13762775526E+03  0.18763512977E+03  0.12509000000E+03 0.  0.
         25    1    3    3    0    0 -0.91987493641E+01  0.49606056783E+01  0.67182574339E+03  0.68345194577E+03  0.12509000000E+03 0.  0.
         25    1    4    4    0    0  0.33142752332E+02 -0.11647871850E+02  0.23731711131E+03  0.27055689674E+03  0.12509000000E+03 0.  0.
<mgrwt>
<rscale>  2 0.45565585E+03</rscale>
<asrwt>0</asrwt>
<pdfrwt beam="1">  1       21 0.16091282E+00 0.45565585E+03</pdfrwt>
<pdfrwt beam="2">  1       21 0.69759832E-02 0.45565585E+03</pdfrwt>
<totfact> 0.33889020E+04</totfact>
</mgrwt>
</event>
<event>
 7    0  0.4705418E-002  0.4634572E+03  0.7546771E-02  0.1023783E+00
         21   -1    0    0  502  501  0.00000000000E+00  0.00000000000E+00  0.45241336951E+03  0.45241336951E+03  0.00000000000E+00 0.  1.
         21   -1    0    0  501  502 -0.00000000000E+00 -0.00000000000E+00 -0.11869267185E+03  0.11869267185E+03  0.00000000000E+00 0.  1.
      99926    2    1    2    0    0  0.00000000000E+00 -0.71054273576E-14  0.33372069766E+03  0.57110604137E+03  0.46345723259E+03 0.  0.
      99925    2    3    3    0    0  0.10619100443E+03 -0.54006819971E+02  0.23463553996E+03  0.37196126338E+03  0.26288415475E+03 0.  0.
         25    1    4    4    0    0  0.12488765022E+02 -0.15072055764E+02  0.88485471742E+02  0.15446787021E+03  0.12509000000E+03 0.  0.
         25    1    4    4    0    0  0.93702239403E+02 -0.38934764208E+02  0.14615006822E+03  0.21749339317E+03  0.12509000000E+03 0.  0.
         25    1    3    3    0    0 -0.10619100443E+03  0.54006819971E+02  0.99085157699E+02  0.19914477799E+03  0.12509000000E+03 0.  0.
<mgrwt>
<rscale>  2 0.46345723E+03</rscale>
<asrwt>0</asrwt>
<pdfrwt beam="1">  1       21 0.66531377E-01 0.46345723E+03</pdfrwt>
<pdfrwt beam="2">  1       21 0.17454805E-01 0.46345723E+03</pdfrwt>
<totfact> 0.56610883E+04</totfact>
</mgrwt>
</event>
<event>
 7    0  0.4705418E-002  0.4590661E+03  0.7546771E-02  0.1025052E+00
         21   -1    0    0  502  501  0.00000000000E+00  0.00000000000E+00  0.13031769710E+03  0.13031769710E+03  0.00000000000E+00 0. -1.
         21   -1    0    0  501  502 -0.00000000000E+00 -0.00000000000E+00 -0.40428450017E+03  0.40428450017E+03  0.00000000000E+00 0. -1.
      99926    2    1    2    0    0 -0.17763568394E-14  0.35527136788E-14 -0.27396680307E+03  0.53460219727E+03  0.45906611740E+03 0.  0.
      99925    2    3    3    0    0  0.97893723892E+01 -0.17696595852E+02 -0.30569973976E+03  0.40397490806E+03  0.26331424978E+03 0.  0.
         25    1    4    4    0    0  0.42316435712E+02 -0.13403855094E+02 -0.17984235297E+03  0.22351985166E+03  0.12509000000E+03 0.  0.
         25    1    4    4    0    0 -0.32527063322E+02 -0.42927407581E+01 -0.12585738678E+03  0.18045505640E+03  0.12509000000E+03 0.  0.
         25    1    3    3    0    0 -0.97893723892E+01  0.17696595852E+02  0.31732936687E+02  0.13062728921E+03  0.12509000000E+03 0.  0.
<mgrwt>
<rscale>  2 0.45906612E+03</rscale>
<asrwt>0</asrwt>
<pdfrwt beam="1">  1       21 0.19164367E-01 0.45906612E+03</pdfrwt>
<pdfrwt beam="2">  1       21 0.59453603E-01 0.45906612E+03</pdfrwt>
<totfact> 0.60909366E+04</totfact>
</mgrwt>
</event>
<event>
 7    0  0.4705418E-002  0.4625338E+03  0.7546771E-02  0.1024049E+00
         21   -1    0    0  502  501  0.00000000000E+00  0.00000000000E+00  0.84743824546E+02  0.84743824546E+02  0.00000000000E+00 0. -1.
         21   -1    0    0  501  502 -0.00000000000E+00 -0.00000000000E+00 -0.63113023723E+03  0.63113023723E+03  0.00000000000E+00 0. -1.
      99926    2    1    2    0    0  0.00000000000E+00  0.00000000000E+00 -0.54638641269E+03  0.71587406178E+03  0.46253384780E+03 0.  0.
      99925    2    3    3    0    0  0.48749739304E+02 -0.88591233634E+02 -0.44184732743E+03  0.52403852752E+03  0.26298740237E+03 0.  0.
         25    1    3    3    0    0 -0.48749739304E+02  0.88591233634E+02 -0.10453908526E+03  0.19183553426E+03  0.12509000000E+03 0.  0.
         25    1    4    4    0    0  0.58563787887E+01 -0.85643795889E+01 -0.16995748902E+03  0.21128346349E+03  0.12509000000E+03 0.  0.
         25    1    4    4    0    0  0.42893360516E+02 -0.80026854045E+02 -0.27188983840E+03  0.31275506402E+03  0.12509000000E+03 0.  0.
<mgrwt>
<rscale>  2 0.46253385E+03</rscale>
<asrwt>0</asrwt>
<pdfrwt beam="1">  1       21 0.12462327E-01 0.46253385E+03</pdfrwt>
<pdfrwt beam="2">  1       21 0.92813270E-01 0.46253385E+03</pdfrwt>
<totfact> 0.49075756E+04</totfact>
</mgrwt>
</event>
<event>
 7    0  0.4705418E-002  0.4459736E+03  0.7546771E-02  0.1028930E+00
         21   -1    0    0  502  501  0.00000000000E+00  0.00000000000E+00  0.47874705737E+02  0.47874705737E+02  0.00000000000E+00 0.  1.
         21   -1    0    0  501  502 -0.00000000000E+00 -0.00000000000E+00 -0.10386091933E+04  0.10386091933E+04  0.00000000000E+00 0.  1.
      99926    2    1    2    0    0  0.00000000000E+00  0.17763568394E-14 -0.99073448760E+03  0.10864838991E+04  0.44597358445E+03 0.  0.
      99925    2    3    3    0    0  0.62130585813E+02 -0.95741855952E+01 -0.83178003346E+03  0.87466817417E+03  0.26312452590E+03 0.  0.
         25    1    3    3    0    0 -0.62130585813E+02  0.95741855952E+01 -0.15895445414E+03  0.21181572490E+03  0.12509000000E+03 0.  0.
         25    1    4    4    0    0  0.81887361006E+01 -0.29839207901E+02 -0.47684255144E+03  0.49394712338E+03  0.12509000000E+03 0.  0.
         25    1    4    4    0    0  0.53941849712E+02  0.20265022306E+02 -0.35493748201E+03  0.38072105079E+03  0.12509000000E+03 0.  0.
<mgrwt>
<rscale>  2 0.44597358E+03</rscale>
<asrwt>0</asrwt>
<pdfrwt beam="1">  1       21 0.70403984E-02 0.44597358E+03</pdfrwt>
<pdfrwt beam="2">  1       21 0.15273664E+00 0.44597358E+03</pdfrwt>
<totfact> 0.38615095E+04</totfact>
</mgrwt>
</event>
<event>
 7    0  0.4705418E-002  0.4334907E+03  0.7546771E-02  0.1032763E+00
         21   -1    0    0  502  501  0.00000000000E+00  0.00000000000E+00  0.30130672121E+03  0.30130672121E+03  0.00000000000E+00 0.  1.
         21   -1    0    0  501  502 -0.00000000000E+00 -0.00000000000E+00 -0.15591601031E+03  0.15591601031E+03  0.00000000000E+00 0.  1.
      99926    2    1    2    0    0 -0.22204460493E-15  0.00000000000E+00  0.14539071090E+03  0.45722273152E+03  0.43349067741E+03 0.  0.
      99925    2    3    3    0    0 -0.56604370354E+00  0.91849734912E+02  0.88277328006E+02  0.29185604560E+03  0.26258402560E+03 0.  0.
         25    1    3    3    0    0  0.56604370354E+00 -0.91849734912E+02  0.57113382898E+02  0.16536668593E+03  0.12509000000E+03 0.  0.
         25    1    4    4    0    0 -0.70915636993E+01  0.81284328149E+02  0.26090820482E+02  0.15161026117E+03  0.12509000000E+03 0.  0.
         25    1    4    4    0    0  0.65255199958E+01  0.10565406763E+02  0.62186507524E+02  0.14024578443E+03  0.12509000000E+03 0.  0.
<mgrwt>
<rscale>  2 0.43349068E+03</rscale>
<asrwt>0</asrwt>
<pdfrwt beam="1">  1       21 0.44309812E-01 0.43349068E+03</pdfrwt>
<pdfrwt beam="2">  1       21 0.22928825E-01 0.43349068E+03</pdfrwt>
<totfact> 0.81432822E+04</totfact>
</mgrwt>
</event>
<event>
 7    0  0.4705418E-002  0.4614037E+03  0.7546771E-02  0.1024375E+00
         21   -1    0    0  502  501  0.00000000000E+00  0.00000000000E+00  0.15983506441E+04  0.15983506441E+04  0.00000000000E+00 0.  1.
         21   -1    0    0  501  502 -0.00000000000E+00 -0.00000000000E+00 -0.33298916405E+02  0.33298916405E+02  0.00000000000E+00 0.  1.
      99926    2    1    2    0    0  0.14210854715E-13  0.00000000000E+00  0.15650517277E+04  0.16316495605E+04  0.46140370386E+03 0.  0.
      99925    2    3    3    0    0  0.11054130880E+03  0.39810295921E+02  0.10031706987E+04  0.10441446334E+04  0.26473066307E+03 0.  0.
         25    1    4    4    0    0  0.38176778332E+02  0.50650794727E+02  0.40236266690E+03  0.42610584745E+03  0.12509000000E+03 0.  0.
         25    1    4    4    0    0  0.72364530466E+02 -0.10840498806E+02  0.60080803182E+03  0.61803878591E+03  0.12509000000E+03 0.  0.
         25    1    3    3    0    0 -0.11054130880E+03 -0.39810295921E+02  0.56188102897E+03  0.58750492715E+03  0.12509000000E+03 0.  0.
<mgrwt>
<rscale>  2 0.46140370E+03</rscale>
<asrwt>0</asrwt>
<pdfrwt beam="1">  1       21 0.23505151E+00 0.46140370E+03</pdfrwt>
<pdfrwt beam="2">  1       21 0.48969005E-02 0.46140370E+03</pdfrwt>
<totfact> 0.19724814E+04</totfact>
</mgrwt>
</event>
<event>
 7    0  0.4705418E-002  0.4542758E+03  0.7546771E-02  0.1026455E+00
         21   -1    0    0  502  501  0.00000000000E+00  0.00000000000E+00  0.22218784713E+03  0.22218784713E+03  0.00000000000E+00 0. -1.
         21   -1    0    0  501  502 -0.00000000000E+00 -0.00000000000E+00 -0.23219823069E+03  0.23219823069E+03  0.00000000000E+00 0. -1.
      99926    2    1    2    0    0  0.00000000000E+00  0.00000000000E+00 -0.10010383564E+02  0.45438607782E+03  0.45427579722E+03 0.  0.
      99925    2    3    3    0    0  0.52285837924E+02  0.95936477737E+02  0.22207176080E+02  0.28520246202E+03  0.26250651242E+03 0.  0.
         25    1    4    4    0    0  0.42684616338E+01  0.70230319992E+02 -0.13559020706E+02  0.14415919240E+03  0.12509000000E+03 0.  0.
         25    1    3    3    0    0 -0.52285837924E+02 -0.95936477737E+02 -0.32217559644E+02  0.16918361581E+03  0.12509000000E+03 0.  0.
         25    1    4    4    0    0  0.48017376290E+02  0.25706157745E+02  0.35766196786E+02  0.14104326962E+03  0.12509000000E+03 0.  0.
<mgrwt>
<rscale>  2 0.45427580E+03</rscale>
<asrwt>0</asrwt>
<pdfrwt beam="1">  1       21 0.32674683E-01 0.45427580E+03</pdfrwt>
<pdfrwt beam="2">  1       21 0.34146799E-01 0.45427580E+03</pdfrwt>
<totfact> 0.68988576E+04</totfact>
</mgrwt>
</event>
<event>
 7    0  0.4705418E-002  0.4550006E+03  0.7546771E-02  0.1026241E+00
         21   -1    0    0  502  501  0.00000000000E+00  0.00000000000E+00  0.43434609462E+03  0.43434609462E+03  0.00000000000E+00 0. -1.
         21   -1    0    0  501  502 -0.00000000000E+00 -0.00000000000E+00 -0.11915931750E+03  0.11915931750E+03  0.00000000000E+00 0. -1.
      99926    2    1    2    0    0 -0.14210854715E-13  0.00000000000E+00  0.31518677712E+03  0.55350541213E+03  0.45500058987E+03 0.  0.
      99925    2    3    3    0    0  0.10557358964E+03  0.14505751373E+02  0.15188806347E+03  0.32183716305E+03  0.26296953444E+03 0.  0.
         25    1    3    3    0    0 -0.10557358964E+03 -0.14505751373E+02  0.16329871365E+03  0.23166824908E+03  0.12509000000E+03 0.  0.
         25    1    4    4    0    0  0.69638726096E+02  0.26694656349E+02  0.43402899119E+02  0.15196537962E+03  0.12509000000E+03 0.  0.
         25    1    4    4    0    0  0.35934863540E+02 -0.12188904976E+02  0.10848516435E+03  0.16987178343E+03  0.12509000000E+03 0.  0.
<mgrwt>
<rscale>  2 0.45500059E+03</rscale>
<asrwt>0</asrwt>
<pdfrwt beam="1">  1       21 0.63874425E-01 0.45500059E+03</pdfrwt>
<pdfrwt beam="2">  1       21 0.17523429E-01 0.45500059E+03</pdfrwt>
<totfact> 0.61635177E+04</totfact>
</mgrwt>
</event>
<event>
 7    0  0.4705418E-002  0.4485247E+03  0.7546771E-02  0.1028163E+00
         21   -1    0    0  502  501  0.00000000000E+00  0.00000000000E+00  0.12195879799E+04  0.12195879799E+04  0.00000000000E+00 0. -1.
         21   -1    0    0  501  502 -0.00000000000E+00 -0.00000000000E+00 -0.41238182999E+02  0.41238182999E+02  0.00000000000E+00 0. -1.
      99926    2    1    2    0    0  0.00000000000E+00  0.00000000000E+00  0.11783497969E+04  0.12608261629E+04  0.44852465840E+03 0.  0.
      99925    2    3    3    0    0  0.34091073386E+02  0.66166429526E+02  0.96202378956E+03  0.10000875059E+04  0.26295446407E+03 0.  0.
         25    1    4    4    0    0  0.29238984249E+02  0.23306985599E+02  0.61472557514E+03  0.62843708882E+03  0.12509000000E+03 0.  0.
         25    1    4    4    0    0  0.48520891362E+01  0.42859443927E+02  0.34729821442E+03  0.37165041712E+03  0.12509000000E+03 0.  0.
         25    1    3    3    0    0 -0.34091073386E+02 -0.66166429526E+02  0.21632600733E+03  0.26073865695E+03  0.12509000000E+03 0.  0.
<mgrwt>
<rscale>  2 0.44852466E+03</rscale>
<asrwt>0</asrwt>
<pdfrwt beam="1">  1       21 0.17935115E+00 0.44852466E+03</pdfrwt>
<pdfrwt beam="2">  1       21 0.60644395E-02 0.44852466E+03</pdfrwt>
<totfact> 0.31848816E+04</totfact>
</mgrwt>
</event>
<event>
 7    0  0.4705418E-002  0.4537728E+03  0.7546771E-02  0.1026603E+00
         21   -1    0    0  502  501  0.00000000000E+00  0.00000000000E+00  0.30592009884E+03  0.30592009884E+03  0.00000000000E+00 0. -1.
         21   -1    0    0  501  502 -0.00000000000E+00 -0.00000000000E+00 -0.16827087356E+03  0.16827087356E+03  0.00000000000E+00 0. -1.
      99926    2    1    2    0    0  0.35527136788E-14 -0.35527136788E-14  0.13764922528E+03  0.47419097240E+03  0.45377281660E+03 0.  0.
      99925    2    3    3    0    0  0.30492228731E+02 -0.28931932031E+02  0.19528509389E+03  0.33019015937E+03  0.26291146941E+03 0.  0.
         25    1    4    4    0    0  0.47577690031E+01 -0.62901497278E+01  0.48713832480E+02  0.13447210835E+03  0.12509000000E+03 0.  0.
         25    1    3    3    0    0 -0.30492228731E+02  0.28931932031E+02 -0.57635868608E+02  0.14400081303E+03  0.12509000000E+03 0.  0.
         25    1    4    4    0    0  0.25734459727E+02 -0.22641782304E+02  0.14657126141E+03  0.19571805102E+03  0.12509000000E+03 0.  0.
<mgrwt>
<rscale>  2 0.45377282E+03</rscale>
<asrwt>0</asrwt>
<pdfrwt beam="1">  1       21 0.44988250E-01 0.45377282E+03</pdfrwt>
<pdfrwt beam="2">  1       21 0.24745717E-01 0.45377282E+03</pdfrwt>
<totfact> 0.67783171E+04</totfact>
</mgrwt>
</event>
<event>
 7    0  0.4705418E-002  0.4528595E+03  0.7546771E-02  0.1026873E+00
         21   -1    0    0  502  501  0.00000000000E+00  0.00000000000E+00  0.82724452500E+02  0.82724452500E+02  0.00000000000E+00 0. -1.
         21   -1    0    0  501  502 -0.00000000000E+00 -0.00000000000E+00 -0.61977368898E+03  0.61977368898E+03  0.00000000000E+00 0. -1.
      99926    2    1    2    0    0  0.00000000000E+00  0.17763568394E-14 -0.53704923648E+03  0.70249814148E+03  0.45285953272E+03 0.  0.
      99925    2    3    3    0    0 -0.10502999963E+03  0.13310314623E+02 -0.38476519708E+03  0.47878760965E+03  0.26454650436E+03 0.  0.
         25    1    4    4    0    0 -0.67541385928E+02  0.39815325888E+02 -0.24219421477E+03  0.28364175425E+03  0.12509000000E+03 0.  0.
         25    1    4    4    0    0 -0.37488613700E+02 -0.26505011265E+02 -0.14257098232E+03  0.19514585539E+03  0.12509000000E+03 0.  0.
         25    1    3    3    0    0  0.10502999963E+03 -0.13310314623E+02 -0.15228403940E+03  0.22371053183E+03  0.12509000000E+03 0.  0.
<mgrwt>
<rscale>  2 0.45285953E+03</rscale>
<asrwt>0</asrwt>
<pdfrwt beam="1">  1       21 0.12165361E-01 0.45285953E+03</pdfrwt>
<pdfrwt beam="2">  1       21 0.91143187E-01 0.45285953E+03</pdfrwt>
<totfact> 0.53665769E+04</totfact>
</mgrwt>
</event>
<event>
 7    0  0.4705418E-002  0.4293794E+03  0.7546771E-02  0.1034056E+00
         21   -1    0    0  502  501  0.00000000000E+00  0.00000000000E+00  0.17833395822E+03  0.17833395822E+03  0.00000000000E+00 0. -1.
         21   -1    0    0  501  502 -0.00000000000E+00 -0.00000000000E+00 -0.25845704753E+03  0.25845704753E+03  0.00000000000E+00 0. -1.
      99926    2    1    2    0    0  0.00000000000E+00  0.00000000000E+00 -0.80123089310E+02  0.43679100576E+03  0.42937940480E+03 0.  0.
      99925    2    3    3    0    0 -0.43802602129E+02 -0.40693770761E+02 -0.11596802071E+03  0.29358828882E+03  0.26300351817E+03 0.  0.
         25    1    4    4    0    0  0.33622062586E+01 -0.10085433593E+02 -0.88813698407E+02  0.15378036782E+03  0.12509000000E+03 0.  0.
         25    1    3    3    0    0  0.43802602129E+02  0.40693770761E+02  0.35844931396E+02  0.14320271694E+03  0.12509000000E+03 0.  0.
         25    1    4    4    0    0 -0.47164808388E+02 -0.30608337168E+02 -0.27154322299E+02  0.13980792100E+03  0.12509000000E+03 0.  0.
<mgrwt>
<rscale>  2 0.42937940E+03</rscale>
<asrwt>0</asrwt>
<pdfrwt beam="1">  1       21 0.26225582E-01 0.42937940E+03</pdfrwt>
<pdfrwt beam="2">  1       21 0.38008389E-01 0.42937940E+03</pdfrwt>
<totfact> 0.86214310E+04</totfact>
</mgrwt>
</event>
<event>
 7    0  0.4705418E-002  0.4560586E+03  0.7546771E-02  0.1025931E+00
         21   -1    0    0  502  501  0.00000000000E+00  0.00000000000E+00  0.18277271069E+03  0.18277271069E+03  0.00000000000E+00 0.  1.
         21   -1    0    0  501  502 -0.00000000000E+00 -0.00000000000E+00 -0.28449197240E+03  0.28449197240E+03  0.00000000000E+00 0.  1.
      99926    2    1    2    0    0 -0.14210854715E-13  0.00000000000E+00 -0.10171926170E+03  0.46726468309E+03  0.45605863204E+03 0.  0.
      99925    2    3    3    0    0  0.10011222375E+03  0.48155418612E+02 -0.37081897336E+02  0.28791335564E+03  0.26301640929E+03 0.  0.
         25    1    3    3    0    0 -0.10011222375E+03 -0.48155418612E+02 -0.64637364367E+02  0.17935132745E+03  0.12509000000E+03 0.  0.
         25    1    4    4    0    0  0.24744292774E+02 -0.26839736594E+01  0.50429427119E+01  0.12764177651E+03  0.12509000000E+03 0.  0.
         25    1    4    4    0    0  0.75367930981E+02  0.50839392271E+02 -0.42124840048E+02  0.16027157913E+03  0.12509000000E+03 0.  0.
<mgrwt>
<rscale>  2 0.45605863E+03</rscale>
<asrwt>0</asrwt>
<pdfrwt beam="1">  1       21 0.26878340E-01 0.45605863E+03</pdfrwt>
<pdfrwt beam="2">  1       21 0.41837054E-01 0.45605863E+03</pdfrwt>
<totfact> 0.67075065E+04</totfact>
</mgrwt>
</event>
<event>
 7    0  0.4705418E-002  0.4549905E+03  0.7546771E-02  0.1026244E+00
         21   -1    0    0  502  501  0.00000000000E+00  0.00000000000E+00  0.88926740524E+02  0.88926740524E+02  0.00000000000E+00 0.  1.
         21   -1    0    0  501  502 -0.00000000000E+00 -0.00000000000E+00 -0.58198563742E+03  0.58198563742E+03  0.00000000000E+00 0.  1.
      99926    2    1    2    0    0  0.00000000000E+00  0.00000000000E+00 -0.49305889689E+03  0.67091237794E+03  0.45499048679E+03 0.  0.
      99925    2    3    3    0    0 -0.26491964563E+01  0.10640877916E+03 -0.25267720637E+03  0.37977544837E+03  0.26278084793E+03 0.  0.
         25    1    3    3    0    0  0.26491964563E+01 -0.10640877916E+03 -0.24038169052E+03  0.29113692957E+03  0.12509000000E+03 0.  0.
         25    1    4    4    0    0 -0.23287570306E+02  0.54917898228E+02 -0.17214943224E+03  0.22100050135E+03  0.12509000000E+03 0.  0.
         25    1    4    4    0    0  0.20638373850E+02  0.51490880931E+02 -0.80527774137E+02  0.15877494702E+03  0.12509000000E+03 0.  0.
<mgrwt>
<rscale>  2 0.45499049E+03</rscale>
<asrwt>0</asrwt>
<pdfrwt beam="1">  1       21 0.13077462E-01 0.45499049E+03</pdfrwt>
<pdfrwt beam="2">  1       21 0.85586124E-01 0.45499049E+03</pdfrwt>
<totfact> 0.54515075E+04</totfact>
</mgrwt>
</event>
<event>
 7    0  0.4705418E-002  0.4566232E+03  0.7546771E-02  0.1025765E+00
         21   -1    0    0  502  501  0.00000000000E+00  0.00000000000E+00  0.35757500149E+03  0.35757500149E+03  0.00000000000E+00 0.  1.
         21   -1    0    0  501  502 -0.00000000000E+00 -0.00000000000E+00 -0.14577692358E+03  0.14577692358E+03  0.00000000000E+00 0.  1.
      99926    2    1    2    0    0 -0.14210854715E-13  0.00000000000E+00  0.21179807791E+03  0.50335192507E+03  0.45662318674E+03 0.  0.
      99925    2    3    3    0    0  0.10483950124E+03  0.44553337559E+02  0.14815131007E+03  0.32259036924E+03  0.26294374825E+03 0.  0.
         25    1    4    4    0    0  0.15029675498E+02  0.13387478403E+02  0.44138362353E+02  0.13416713031E+03  0.12509000000E+03 0.  0.
         25    1    3    3    0    0 -0.10483950124E+03 -0.44553337559E+02  0.63646767838E+02  0.18076155583E+03  0.12509000000E+03 0.  0.
         25    1    4    4    0    0  0.89809825746E+02  0.31165859156E+02  0.10401294772E+03  0.18842323893E+03  0.12509000000E+03 0.  0.
<mgrwt>
<rscale>  2 0.45662319E+03</rscale>
<asrwt>0</asrwt>
<pdfrwt beam="1">  1       21 0.52584559E-01 0.45662319E+03</pdfrwt>
<pdfrwt beam="2">  1       21 0.21437783E-01 0.45662319E+03</pdfrwt>
<totfact> 0.64204582E+04</totfact>
</mgrwt>
</event>
<event>
 7    0  0.4705418E-002  0.4501664E+03  0.7546771E-02  0.1027672E+00
         21   -1    0    0  502  501  0.00000000000E+00  0.00000000000E+00  0.23124560401E+03  0.23124560401E+03  0.00000000000E+00 0. -1.
         21   -1    0    0  501  502 -0.00000000000E+00 -0.00000000000E+00 -0.21908499691E+03  0.21908499691E+03  0.00000000000E+00 0. -1.
      99926    2    1    2    0    0  0.00000000000E+00  0.00000000000E+00  0.12160607102E+02  0.45033060092E+03  0.45016638008E+03 0.  0.
      99925    2    3    3    0    0  0.91599135505E+02 -0.44469826562E+02  0.45246398425E+02  0.28567901487E+03  0.26305378893E+03 0.  0.
         25    1    3    3    0    0 -0.91599135505E+02  0.44469826562E+02 -0.33085791323E+02  0.16465158604E+03  0.12509000000E+03 0.  0.
         25    1    4    4    0    0  0.21308546264E+02 -0.13822375908E+02  0.54222559071E+02  0.13868203284E+03  0.12509000000E+03 0.  0.
         25    1    4    4    0    0  0.70290589241E+02 -0.30647450654E+02 -0.89761606459E+01  0.14699698203E+03  0.12509000000E+03 0.  0.
<mgrwt>
<rscale>  2 0.45016638E+03</rscale>
<asrwt>0</asrwt>
<pdfrwt beam="1">  1       21 0.34006707E-01 0.45016638E+03</pdfrwt>
<pdfrwt beam="2">  1       21 0.32218382E-01 0.45016638E+03</pdfrwt>
<totfact> 0.71611493E+04</totfact>
</mgrwt>
</event>
<event>
 7    0  0.4705418E-002  0.4528256E+03  0.7546771E-02  0.1026883E+00
         21   -1    0    0  502  501  0.00000000000E+00  0.00000000000E+00  0.31818229227E+03  0.31818229227E+03  0.00000000000E+00 0.  1.
         21   -1    0    0  501  502 -0.00000000000E+00 -0.00000000000E+00 -0.16111128574E+03  0.16111128574E+03  0.00000000000E+00 0.  1.
      99926    2    1    2    0    0  0.00000000000E+00  0.00000000000E+00  0.15707100653E+03  0.47929357801E+03  0.45282560973E+03 0.  0.
      99925    2    3    3    0    0 -0.71747518140E+02  0.54296465815E+02  0.16817131615E+03  0.32480559293E+03  0.26290924112E+03 0.  0.
         25    1    4    4    0    0 -0.77625973103E+02  0.26125433588E+02  0.91282486252E+02  0.17518085049E+03  0.12509000000E+03 0.  0.
         25    1    3    3    0    0  0.71747518140E+02 -0.54296465815E+02 -0.11100309617E+02  0.15448798508E+03  0.12509000000E+03 0.  0.
         25    1    4    4    0    0  0.58784549633E+01  0.28171032226E+02  0.76888829893E+02  0.14962474245E+03  0.12509000000E+03 0.  0.
<mgrwt>
<rscale>  2 0.45282561E+03</rscale>
<asrwt>0</asrwt>
<pdfrwt beam="1">  1       21 0.46791514E-01 0.45282561E+03</pdfrwt>
<pdfrwt beam="2">  1       21 0.23692836E-01 0.45282561E+03</pdfrwt>
<totfact> 0.67916200E+04</totfact>
</mgrwt>
</event>
<event>
 7    0  0.4705418E-002  0.4612347E+03  0.7546771E-02  0.1024424E+00
         21   -1    0    0  502  501  0.00000000000E+00  0.00000000000E+00  0.18514912624E+03  0.18514912624E+03  0.00000000000E+00 0.  1.
         21   -1    0    0  501  502 -0.00000000000E+00 -0.00000000000E+00 -0.28725147362E+03  0.28725147362E+03  0.00000000000E+00 0.  1.
      99926    2    1    2    0    0  0.00000000000E+00  0.00000000000E+00 -0.10210234738E+03  0.47240059986E+03  0.46123468800E+03 0.  0.
      99925    2    3    3    0    0 -0.33905568832E+02  0.73341498103E+02 -0.15317724380E+03  0.31496897634E+03  0.26308482490E+03 0.  0.
         25    1    4    4    0    0 -0.27332384919E+02  0.15468976897E+02 -0.11241804872E+03  0.17108966740E+03  0.12509000000E+03 0.  0.
         25    1    4    4    0    0 -0.65731839131E+01  0.57872521206E+02 -0.40759195078E+02  0.14387930894E+03  0.12509000000E+03 0.  0.
         25    1    3    3    0    0  0.33905568832E+02 -0.73341498103E+02  0.51074896423E+02  0.15743162353E+03  0.12509000000E+03 0.  0.
<mgrwt>
<rscale>  2 0.46123469E+03</rscale>
<asrwt>0</asrwt>
<pdfrwt beam="1">  1       21 0.27227813E-01 0.46123469E+03</pdfrwt>
<pdfrwt beam="2">  1       21 0.42242863E-01 0.46123469E+03</pdfrwt>
<totfact> 0.64031839E+04</totfact>
</mgrwt>
</event>
<event>
 7    0  0.4705418E-002  0.4549131E+03  0.7546771E-02  0.1026267E+00
         21   -1    0    0  502  501  0.00000000000E+00  0.00000000000E+00  0.12016592675E+03  0.12016592675E+03  0.00000000000E+00 0. -1.
         21   -1    0    0  501  502 -0.00000000000E+00 -0.00000000000E+00 -0.43054194677E+03  0.43054194677E+03  0.00000000000E+00 0. -1.
      99926    2    1    2    0    0  0.00000000000E+00  0.00000000000E+00 -0.31037602001E+03  0.55070787352E+03  0.45491305560E+03 0.  0.
      99925    2    3    3    0    0  0.99895167729E+02 -0.48593357445E+02 -0.22117175095E+03  0.36111549856E+03  0.26295836355E+03 0.  0.
         25    1    4    4    0    0  0.90206163322E+02 -0.37825453967E+02 -0.13619634072E+03  0.20920054539E+03  0.12509000000E+03 0.  0.
         25    1    3    3    0    0 -0.99895167729E+02  0.48593357445E+02 -0.89204269064E+02  0.18959237496E+03  0.12509000000E+03 0.  0.
         25    1    4    4    0    0  0.96890044064E+01 -0.10767903477E+02 -0.84975410231E+02  0.15191495317E+03  0.12509000000E+03 0.  0.
<mgrwt>
<rscale>  2 0.45491306E+03</rscale>
<asrwt>0</asrwt>
<pdfrwt beam="1">  1       21 0.17671460E-01 0.45491306E+03</pdfrwt>
<pdfrwt beam="2">  1       21 0.63314992E-01 0.45491306E+03</pdfrwt>
<totfact> 0.61862302E+04</totfact>
</mgrwt>
</event>
<event>
 7    0  0.4705418E-002  0.4618794E+03  0.7546771E-02  0.1024238E+00
         21   -1    0    0  502  501  0.00000000000E+00  0.00000000000E+00  0.15682355551E+03  0.15682355551E+03  0.00000000000E+00 0. -1.
         21   -1    0    0  501  502 -0.00000000000E+00 -0.00000000000E+00 -0.34008377601E+03  0.34008377601E+03  0.00000000000E+00 0. -1.
      99926    2    1    2    0    0  0.00000000000E+00 -0.35527136788E-14 -0.18326022050E+03  0.49690733151E+03  0.46187940817E+03 0.  0.
      99925    2    3    3    0    0  0.10580767374E+03  0.17229247375E+02 -0.58066506001E+02  0.28999410081E+03  0.26312116715E+03 0.  0.
         25    1    4    4    0    0  0.73451643185E+02  0.12271943997E+01  0.53749000879E+01  0.14516558664E+03  0.12509000000E+03 0.  0.
         25    1    4    4    0    0  0.32356030553E+02  0.16002052976E+02 -0.63441406088E+02  0.14482851418E+03  0.12509000000E+03 0.  0.
         25    1    3    3    0    0 -0.10580767374E+03 -0.17229247375E+02 -0.12519371450E+03  0.20691323070E+03  0.12509000000E+03 0.  0.
<mgrwt>
<rscale>  2 0.46187941E+03</rscale>
<asrwt>0</asrwt>
<pdfrwt beam="1">  1       21 0.23062288E-01 0.46187941E+03</pdfrwt>
<pdfrwt beam="2">  1       21 0.50012319E-01 0.46187941E+03</pdfrwt>
<totfact> 0.62030940E+04</totfact>
</mgrwt>
</event>
<event>
 7    0  0.4705418E-002  0.4574132E+03  0.7546771E-02  0.1025534E+00
         21   -1    0    0  502  501  0.00000000000E+00  0.00000000000E+00  0.32444187361E+02  0.32444187361E+02  0.00000000000E+00 0. -1.
         21   -1    0    0  501  502 -0.00000000000E+00 -0.00000000000E+00 -0.16122061539E+04  0.16122061539E+04  0.00000000000E+00 0. -1.
      99926    2    1    2    0    0  0.00000000000E+00 -0.71054273576E-14 -0.15797619666E+04  0.16446503413E+04  0.45741324215E+03 0.  0.
      99925    2    3    3    0    0  0.10000882372E+03  0.42776418080E+02 -0.85432637135E+03  0.90051601358E+03  0.26310445676E+03 0.  0.
         25    1    3    3    0    0 -0.10000882372E+03 -0.42776418080E+02 -0.72543559523E+03  0.74413432772E+03  0.12509000000E+03 0.  0.
         25    1    4    4    0    0  0.50081804185E+02  0.53376955966E+00 -0.52891807721E+03  0.54581160900E+03  0.12509000000E+03 0.  0.
         25    1    4    4    0    0  0.49927019535E+02  0.42242648521E+02 -0.32540829414E+03  0.35470440458E+03  0.12509000000E+03 0.  0.
<mgrwt>
<rscale>  2 0.45741324E+03</rscale>
<asrwt>0</asrwt>
<pdfrwt beam="1">  1       21 0.47712041E-02 0.45741324E+03</pdfrwt>
<pdfrwt beam="2">  1       21 0.23708913E+00 0.45741324E+03</pdfrwt>
<totfact> 0.20060807E+04</totfact>
</mgrwt>
</event>
<event>
 7    0  0.4705418E-002  0.4495009E+03  0.7546771E-02  0.1027871E+00
         21   -1    0    0  502  501  0.00000000000E+00  0.00000000000E+00  0.57609487075E+03  0.57609487075E+03  0.00000000000E+00 0. -1.
         21   -1    0    0  501  502 -0.00000000000E+00 -0.00000000000E+00 -0.87681336900E+02  0.87681336900E+02  0.00000000000E+00 0. -1.
      99926    2    1    2    0    0  0.00000000000E+00  0.17763568394E-14  0.48841353385E+03  0.66377620765E+03  0.44950091635E+03 0.  0.
      99925    2    3    3    0    0 -0.23583359372E+02  0.12299558781E+02  0.46336630998E+03  0.53345995575E+03  0.26298998685E+03 0.  0.
         25    1    4    4    0    0 -0.67678106161E+01  0.40086006925E+02  0.19001578295E+03  0.23109780848E+03  0.12509000000E+03 0.  0.
         25    1    4    4    0    0 -0.16815548756E+02 -0.27786448144E+02  0.27335052702E+03  0.30236214728E+03  0.12509000000E+03 0.  0.
         25    1    3    3    0    0  0.23583359372E+02 -0.12299558781E+02  0.25047223874E+02  0.13031625190E+03  0.12509000000E+03 0.  0.
<mgrwt>
<rscale>  2 0.44950092E+03</rscale>
<asrwt>0</asrwt>
<pdfrwt beam="1">  1       21 0.84719832E-01 0.44950092E+03</pdfrwt>
<pdfrwt beam="2">  1       21 0.12894315E-01 0.44950092E+03</pdfrwt>
<totfact> 0.57360558E+04</totfact>
</mgrwt>
</event>
<event>
 7    0  0.4705418E-002  0.4172973E+03  0.7546771E-02  0.1037950E+00
         21   -1    0    0  502  501  0.00000000000E+00  0.00000000000E+00  0.20039573997E+04  0.20039573997E+04  0.00000000000E+00 0.  1.
         21   -1    0    0  501  502 -0.00000000000E+00 -0.00000000000E+00 -0.21724142415E+02  0.21724142415E+02  0.00000000000E+00 0.  1.
      99926    2    1    2    0    0 -0.35527136788E-14  0.00000000000E+00  0.19822332573E+04  0.20256815422E+04  0.41729728466E+03 0.  0.
      99925    2    3    3    0    0 -0.63501488835E+01  0.43945981593E+02  0.15732908197E+04  0.15957361979E+04  0.26297991582E+03 0.  0.
         25    1    4    4    0    0 -0.41512700113E+02  0.34471749711E+02  0.77429724258E+03  0.78619039282E+03  0.12509000000E+03 0.  0.
         25    1    4    4    0    0  0.35162551230E+02  0.94742318822E+01  0.79899357713E+03  0.80954580505E+03  0.12509000000E+03 0.  0.
         25    1    3    3    0    0  0.63501488835E+01 -0.43945981593E+02  0.40894243762E+03  0.42994534429E+03  0.12509000000E+03 0.  0.
<mgrwt>
<rscale>  2 0.41729728E+03</rscale>
<asrwt>0</asrwt>
<pdfrwt beam="1">  1       21 0.29469949E+00 0.41729728E+03</pdfrwt>
<pdfrwt beam="2">  1       21 0.31947282E-02 0.41729728E+03</pdfrwt>
<totfact> 0.18020605E+04</totfact>
</mgrwt>
</event>
<event>
 7    0  0.4705418E-002  0.4505130E+03  0.7546771E-02  0.1027569E+00
         21   -1    0    0  502  501  0.00000000000E+00  0.00000000000E+00  0.82755762212E+02  0.82755762212E+02  0.00000000000E+00 0.  1.
         21   -1    0    0  501  502 -0.00000000000E+00 -0.00000000000E+00 -0.61313535660E+03  0.61313535660E+03  0.00000000000E+00 0.  1.
      99926    2    1    2    0    0  0.00000000000E+00 -0.35527136788E-14 -0.53037959439E+03  0.69589111881E+03  0.45051296885E+03 0.  0.
      99925    2    3    3    0    0 -0.98859500436E+02  0.30704992279E+02 -0.38722078405E+03  0.47942414568E+03  0.26304292138E+03 0.  0.
         25    1    4    4    0    0 -0.92266938922E+02  0.10573926829E+02 -0.21122297664E+03  0.26246456886E+03  0.12509000000E+03 0.  0.
         25    1    3    3    0    0  0.98859500436E+02 -0.30704992279E+02 -0.14315881034E+03  0.21646697313E+03  0.12509000000E+03 0.  0.
         25    1    4    4    0    0 -0.65925615143E+01  0.20131065449E+02 -0.17599780741E+03  0.21695957682E+03  0.12509000000E+03 0.  0.
<mgrwt>
<rscale>  2 0.45051297E+03</rscale>
<asrwt>0</asrwt>
<pdfrwt beam="1">  1       21 0.12169966E-01 0.45051297E+03</pdfrwt>
<pdfrwt beam="2">  1       21 0.90166958E-01 0.45051297E+03</pdfrwt>
<totfact> 0.55044973E+04</totfact>
</mgrwt>
</event>
<event>
 7    0  0.4705418E-002  0.4415955E+03  0.7546771E-02  0.1030258E+00
         21   -1    0    0  502  501  0.00000000000E+00  0.00000000000E+00  0.14533336454E+03  0.14533336454E+03  0.00000000000E+00 0. -1.
         21   -1    0    0  501  502 -0.00000000000E+00 -0.00000000000E+00 -0.33544710449E+03  0.33544710449E+03  0.00000000000E+00 0. -1.
      99926    2    1    2    0    0  0.00000000000E+00  0.71054273576E-14 -0.19011373995E+03  0.48078046903E+03  0.44159554491E+03 0.  0.
      99925    2    3    3    0    0 -0.74526562401E+01  0.47249227988E+02 -0.25348807325E+02  0.26845283834E+03  0.26293788763E+03 0.  0.
         25    1    3    3    0    0  0.74526562401E+01 -0.47249227988E+02 -0.16476493262E+03  0.21232763069E+03  0.12509000000E+03 0.  0.
         25    1    4    4    0    0 -0.56352027626E+01  0.12192758374E+02 -0.51470647385E+02  0.13593069745E+03  0.12509000000E+03 0.  0.
         25    1    4    4    0    0 -0.18174534775E+01  0.35056469615E+02  0.26121840060E+02  0.13252214089E+03  0.12509000000E+03 0.  0.
<mgrwt>
<rscale>  2 0.44159554E+03</rscale>
<asrwt>0</asrwt>
<pdfrwt beam="1">  1       21 0.21372554E-01 0.44159554E+03</pdfrwt>
<pdfrwt beam="2">  1       21 0.49330456E-01 0.44159554E+03</pdfrwt>
<totfact> 0.74233721E+04</totfact>
</mgrwt>
</event>
<event>
 7    0  0.4705418E-002  0.4452317E+03  0.7546771E-02  0.1029154E+00
         21   -1    0    0  502  501  0.00000000000E+00  0.00000000000E+00  0.49211675898E+03  0.49211675898E+03  0.00000000000E+00 0.  1.
         21   -1    0    0  501  502 -0.00000000000E+00 -0.00000000000E+00 -0.10070335568E+03  0.10070335568E+03  0.00000000000E+00 0.  1.
      99926    2    1    2    0    0  0.14210854715E-13  0.00000000000E+00  0.39141340330E+03  0.59282011466E+03  0.44523166560E+03 0.  0.
      99925    2    3    3    0    0 -0.64056814260E+02  0.79328379672E+02  0.27425159485E+03  0.39339427697E+03  0.26296169418E+03 0.  0.
         25    1    4    4    0    0  0.27883553367E+01  0.60442247241E+02  0.13535327769E+03  0.19398210757E+03  0.12509000000E+03 0.  0.
         25    1    4    4    0    0 -0.66845169596E+02  0.18886132431E+02  0.13889831716E+03  0.19941216940E+03  0.12509000000E+03 0.  0.
         25    1    3    3    0    0  0.64056814260E+02 -0.79328379672E+02  0.11716180846E+03  0.19942583768E+03  0.12509000000E+03 0.  0.
<mgrwt>
<rscale>  2 0.44523167E+03</rscale>
<asrwt>0</asrwt>
<pdfrwt beam="1">  1       21 0.72370111E-01 0.44523167E+03</pdfrwt>
<pdfrwt beam="2">  1       21 0.14809317E-01 0.44523167E+03</pdfrwt>
<totfact> 0.63915273E+04</totfact>
</mgrwt>
</event>
<event>
 7    0  0.4705418E-002  0.4546403E+03  0.7546771E-02  0.1026347E+00
         21   -1    0    0  502  501  0.00000000000E+00  0.00000000000E+00  0.75861831685E+02  0.75861831685E+02  0.00000000000E+00 0.  1.
         21   -1    0    0  501  502 -0.00000000000E+00 -0.00000000000E+00 -0.68116541850E+03  0.68116541850E+03  0.00000000000E+00 0.  1.
      99926    2    1    2    0    0  0.00000000000E+00  0.00000000000E+00 -0.60530358681E+03  0.75702725018E+03  0.45464032521E+03 0.  0.
      99925    2    3    3    0    0  0.70132783043E+02 -0.67323587564E+02 -0.28331852932E+03  0.39817775799E+03  0.26234531671E+03 0.  0.
         25    1    4    4    0    0  0.61533709141E+02 -0.65564206451E+02 -0.16572944664E+03  0.22627156276E+03  0.12509000000E+03 0.  0.
         25    1    4    4    0    0  0.85990739011E+01 -0.17593811133E+01 -0.11758908268E+03  0.17190619523E+03  0.12509000000E+03 0.  0.
         25    1    3    3    0    0 -0.70132783043E+02  0.67323587564E+02 -0.32198505749E+03  0.35884949219E+03  0.12509000000E+03 0.  0.
<mgrwt>
<rscale>  2 0.45464033E+03</rscale>
<asrwt>0</asrwt>
<pdfrwt beam="1">  1       21 0.11156152E-01 0.45464033E+03</pdfrwt>
<pdfrwt beam="2">  1       21 0.10017138E+00 0.45464033E+03</pdfrwt>
<totfact> 0.50054116E+04</totfact>
</mgrwt>
</event>
<event>
 7    0  0.4705418E-002  0.4578817E+03  0.7546771E-02  0.1025397E+00
         21   -1    0    0  502  501  0.00000000000E+00  0.00000000000E+00  0.59014385843E+02  0.59014385843E+02  0.00000000000E+00 0. -1.
         21   -1    0    0  501  502 -0.00000000000E+00 -0.00000000000E+00 -0.88815479107E+03  0.88815479107E+03  0.00000000000E+00 0. -1.
      99926    2    1    2    0    0 -0.14210854715E-13 -0.71054273576E-14 -0.82914040522E+03  0.94716917691E+03  0.45788168572E+03 0.  0.
      99925    2    3    3    0    0 -0.10588576937E+03 -0.42126522672E+02 -0.56298778375E+03  0.63177867914E+03  0.26306389851E+03 0.  0.
         25    1    4    4    0    0 -0.77805463488E+02  0.55794065229E+01 -0.25043943957E+03  0.29060667735E+03  0.12509000000E+03 0.  0.
         25    1    4    4    0    0 -0.28080305877E+02 -0.47705929195E+02 -0.31254834418E+03  0.34117200180E+03  0.12509000000E+03 0.  0.
         25    1    3    3    0    0  0.10588576937E+03  0.42126522672E+02 -0.26615262147E+03  0.31539049777E+03  0.12509000000E+03 0.  0.
<mgrwt>
<rscale>  2 0.45788169E+03</rscale>
<asrwt>0</asrwt>
<pdfrwt beam="1">  1       21 0.86785872E-02 0.45788169E+03</pdfrwt>
<pdfrwt beam="2">  1       21 0.13061098E+00 0.45788169E+03</pdfrwt>
<totfact> 0.40338908E+04</totfact>
</mgrwt>
</event>
<event>
 7    0  0.4705418E-002  0.4615884E+03  0.7546771E-02  0.1024322E+00
         21   -1    0    0  502  501  0.00000000000E+00  0.00000000000E+00  0.19192397716E+04  0.19192397716E+04  0.00000000000E+00 0.  1.
         21   -1    0    0  501  502 -0.00000000000E+00 -0.00000000000E+00 -0.27753675556E+02  0.27753675556E+02  0.00000000000E+00 0.  1.
      99926    2    1    2    0    0  0.00000000000E+00  0.00000000000E+00  0.18914860960E+04  0.19469934472E+04  0.46158837912E+03 0.  0.
      99925    2    3    3    0    0  0.76195254928E+02 -0.70579783331E+02  0.14303817118E+04  0.14580640208E+04  0.26300498970E+03 0.  0.
         25    1    4    4    0    0  0.61311851415E+02 -0.25219026424E+02  0.89872393915E+03  0.90980622625E+03  0.12509000000E+03 0.  0.
         25    1    3    3    0    0 -0.76195254928E+02  0.70579783331E+02  0.46110438422E+03  0.48892942634E+03  0.12509000000E+03 0.  0.
         25    1    4    4    0    0  0.14883403513E+02 -0.45360756907E+02  0.53165777267E+03  0.54825779457E+03  0.12509000000E+03 0.  0.
<mgrwt>
<rscale>  2 0.46158838E+03</rscale>
<asrwt>0</asrwt>
<pdfrwt beam="1">  1       21 0.28224105E+00 0.46158838E+03</pdfrwt>
<pdfrwt beam="2">  1       21 0.40814242E-02 0.46158838E+03</pdfrwt>
<totfact> 0.13871793E+04</totfact>
</mgrwt>
</event>
<event>
 7    0  0.4705418E-002  0.4554513E+03  0.7546771E-02  0.1026109E+00
         21   -1    0    0  502  501  0.00000000000E+00  0.00000000000E+00  0.82451224147E+03  0.82451224147E+03  0.00000000000E+00 0.  1.
         21   -1    0    0  501  502 -0.00000000000E+00 -0.00000000000E+00 -0.62896549906E+02  0.62896549906E+02  0.00000000000E+00 0.  1.
      99926    2    1    2    0    0  0.14210854715E-13  0.14210854715E-13  0.76161569156E+03  0.88740879137E+03  0.45545131614E+03 0.  0.
      99925    2    3    3    0    0  0.78857374765E+02  0.72005309911E+02  0.40945291427E+03  0.49873234493E+03  0.26396782506E+03 0.  0.
         25    1    4    4    0    0  0.73284283028E+02  0.55154602585E+02  0.18754927727E+03  0.24338211896E+03  0.12509000000E+03 0.  0.
         25    1    4    4    0    0  0.55730917374E+01  0.16850707326E+02  0.22190363700E+03  0.25535022597E+03  0.12509000000E+03 0.  0.
         25    1    3    3    0    0 -0.78857374765E+02 -0.72005309911E+02  0.35216277729E+03  0.38867644644E+03  0.12509000000E+03 0.  0.
<mgrwt>
<rscale>  2 0.45545132E+03</rscale>
<asrwt>0</asrwt>
<pdfrwt beam="1">  1       21 0.12125179E+00 0.45545132E+03</pdfrwt>
<pdfrwt beam="2">  1       21 0.92494931E-02 0.45545132E+03</pdfrwt>
<totfact> 0.43628180E+04</totfact>
</mgrwt>
</event>
<event>
 7    0  0.4705418E-002  0.4544210E+03  0.7546771E-02  0.1026412E+00
         21   -1    0    0  502  501  0.00000000000E+00  0.00000000000E+00  0.11005465638E+03  0.11005465638E+03  0.00000000000E+00 0.  1.
         21   -1    0    0  501  502 -0.00000000000E+00 -0.00000000000E+00 -0.46908166897E+03  0.46908166897E+03  0.00000000000E+00 0.  1.
      99926    2    1    2    0    0  0.00000000000E+00  0.00000000000E+00 -0.35902701259E+03  0.57913632536E+03  0.45442104658E+03 0.  0.
      99925    2    3    3    0    0  0.25181630046E+02 -0.95405682594E+02 -0.15664862449E+03  0.32156909368E+03  0.26292875783E+03 0.  0.
         25    1    4    4    0    0  0.20623251225E+02 -0.43006910810E+02 -0.32761837574E+02  0.13782510283E+03  0.12509000000E+03 0.  0.
         25    1    4    4    0    0  0.45583788211E+01 -0.52398771784E+02 -0.12388678691E+03  0.18374399085E+03  0.12509000000E+03 0.  0.
         25    1    3    3    0    0 -0.25181630046E+02  0.95405682594E+02 -0.20237838810E+03  0.25756723168E+03  0.12509000000E+03 0.  0.
<mgrwt>
<rscale>  2 0.45442105E+03</rscale>
<asrwt>0</asrwt>
<pdfrwt beam="1">  1       21 0.16184508E-01 0.45442105E+03</pdfrwt>
<pdfrwt beam="2">  1       21 0.68982598E-01 0.45442105E+03</pdfrwt>
<totfact> 0.60256545E+04</totfact>
</mgrwt>
</event>
<event>
 7    0  0.4705418E-002  0.4489582E+03  0.7546771E-02  0.1028033E+00
         21   -1    0    0  502  501  0.00000000000E+00  0.00000000000E+00  0.49247779173E+03  0.49247779173E+03  0.00000000000E+00 0.  1.
         21   -1    0    0  501  502 -0.00000000000E+00 -0.00000000000E+00 -0.10232109530E+03  0.10232109530E+03  0.00000000000E+00 0.  1.
      99926    2    1    2    0    0  0.00000000000E+00  0.71054273576E-14  0.39015669643E+03  0.59479888703E+03  0.44895820322E+03 0.  0.
      99925    2    3    3    0    0  0.79298846442E+02  0.42455187843E+02  0.32475450046E+03  0.42741995956E+03  0.26292886156E+03 0.  0.
         25    1    3    3    0    0 -0.79298846442E+02 -0.42455187843E+02  0.65402195975E+02  0.16737892747E+03  0.12509000000E+03 0.  0.
         25    1    4    4    0    0  0.29255091560E+02  0.40723020812E+02  0.21448916878E+03  0.25331272457E+03  0.12509000000E+03 0.  0.
         25    1    4    4    0    0  0.50043754882E+02  0.17321670308E+01  0.11026533167E+03  0.17410723499E+03  0.12509000000E+03 0.  0.
<mgrwt>
<rscale>  2 0.44895820E+03</rscale>
<asrwt>0</asrwt>
<pdfrwt beam="1">  1       21 0.72423204E-01 0.44895820E+03</pdfrwt>
<pdfrwt beam="2">  1       21 0.15047220E-01 0.44895820E+03</pdfrwt>
<totfact> 0.61902492E+04</totfact>
</mgrwt>
</event>
<event>
 7    0  0.4705418E-002  0.4576399E+03  0.7546771E-02  0.1025468E+00
         21   -1    0    0  502  501  0.00000000000E+00  0.00000000000E+00  0.13197082135E+03  0.13197082135E+03  0.00000000000E+00 0.  1.
         21   -1    0    0  501  502 -0.00000000000E+00 -0.00000000000E+00 -0.39674348128E+03  0.39674348128E+03  0.00000000000E+00 0.  1.
      99926    2    1    2    0    0  0.00000000000E+00  0.00000000000E+00 -0.26477265993E+03  0.52871430262E+03  0.45763987190E+03 0.  0.
      99925    2    3    3    0    0  0.10964680451E+03 -0.35864041509E+02 -0.17490944837E+03  0.33627845330E+03  0.26302325337E+03 0.  0.
         25    1    4    4    0    0  0.67686697284E+02 -0.14266359273E+02 -0.44990733841E+02  0.14985557123E+03  0.12509000000E+03 0.  0.
         25    1    4    4    0    0  0.41960107225E+02 -0.21597682236E+02 -0.12991871453E+03  0.18642288208E+03  0.12509000000E+03 0.  0.
         25    1    3    3    0    0 -0.10964680451E+03  0.35864041509E+02 -0.89863211557E+02  0.19243584932E+03  0.12509000000E+03 0.  0.
<mgrwt>
<rscale>  2 0.45763987E+03</rscale>
<asrwt>0</asrwt>
<pdfrwt beam="1">  1       21 0.19407473E-01 0.45763987E+03</pdfrwt>
<pdfrwt beam="2">  1       21 0.58344631E-01 0.45763987E+03</pdfrwt>
<totfact> 0.61986370E+04</totfact>
</mgrwt>
</event>
<event>
 7    0  0.4705418E-002  0.4448061E+03  0.7546771E-02  0.1029282E+00
         21   -1    0    0  502  501  0.00000000000E+00  0.00000000000E+00  0.59813263479E+02  0.59813263479E+02  0.00000000000E+00 0.  1.
         21   -1    0    0  501  502 -0.00000000000E+00 -0.00000000000E+00 -0.82695904553E+03  0.82695904553E+03  0.00000000000E+00 0.  1.
      99926    2    1    2    0    0  0.00000000000E+00 -0.35527136788E-14 -0.76714578205E+03  0.88677230901E+03  0.44480611182E+03 0.  0.
      99925    2    3    3    0    0  0.85785334762E+02  0.18329405433E+02 -0.37860552823E+03  0.46927245547E+03  0.26301977244E+03 0.  0.
         25    1    4    4    0    0  0.91152683259E+01 -0.16381415904E+02 -0.17457593281E+03  0.21558224259E+03  0.12509000000E+03 0.  0.
         25    1    3    3    0    0 -0.85785334762E+02 -0.18329405433E+02 -0.38854025383E+03  0.41749985354E+03  0.12509000000E+03 0.  0.
         25    1    4    4    0    0  0.76670066436E+02  0.34710821337E+02 -0.20402959542E+03  0.25369021288E+03  0.12509000000E+03 0.  0.
<mgrwt>
<rscale>  2 0.44480611E+03</rscale>
<asrwt>0</asrwt>
<pdfrwt beam="1">  1       21 0.87960686E-02 0.44480611E+03</pdfrwt>
<pdfrwt beam="2">  1       21 0.12161162E+00 0.44480611E+03</pdfrwt>
<totfact> 0.47488975E+04</totfact>
</mgrwt>
</event>
<event>
 7    0  0.4705418E-002  0.4507509E+03  0.7546771E-02  0.1027498E+00
         21   -1    0    0  502  501  0.00000000000E+00  0.00000000000E+00  0.25164600069E+03  0.25164600069E+03  0.00000000000E+00 0.  1.
         21   -1    0    0  501  502 -0.00000000000E+00 -0.00000000000E+00 -0.20184737206E+03  0.20184737206E+03  0.00000000000E+00 0.  1.
      99926    2    1    2    0    0 -0.35527136788E-14  0.00000000000E+00  0.49798628629E+02  0.45349337275E+03  0.45075085770E+03 0.  0.
      99925    2    3    3    0    0  0.17240585377E+02  0.82319376775E+01  0.13953032501E+03  0.29836668898E+03  0.26303795717E+03 0.  0.
         25    1    4    4    0    0 -0.16379413388E+02  0.26820809153E+02  0.43724052106E+02  0.13618715732E+03  0.12509000000E+03 0.  0.
         25    1    4    4    0    0  0.33619998765E+02 -0.18588871475E+02  0.95806272908E+02  0.16217953166E+03  0.12509000000E+03 0.  0.
         25    1    3    3    0    0 -0.17240585377E+02 -0.82319376775E+01 -0.89731696384E+02  0.15512668377E+03  0.12509000000E+03 0.  0.
<mgrwt>
<rscale>  2 0.45075086E+03</rscale>
<asrwt>0</asrwt>
<pdfrwt beam="1">  1       21 0.37006765E-01 0.45075086E+03</pdfrwt>
<pdfrwt beam="2">  1       21 0.29683437E-01 0.45075086E+03</pdfrwt>
<totfact> 0.71034050E+04</totfact>
</mgrwt>
</event>
<event>
 7    0  0.4705418E-002  0.4166522E+03  0.7546771E-02  0.1038161E+00
         21   -1    0    0  502  501  0.00000000000E+00  0.00000000000E+00  0.47266239078E+03  0.47266239078E+03  0.00000000000E+00 0. -1.
         21   -1    0    0  501  502 -0.00000000000E+00 -0.00000000000E+00 -0.91819779769E+02  0.91819779769E+02  0.00000000000E+00 0. -1.
      99926    2    1    2    0    0  0.00000000000E+00  0.00000000000E+00  0.38084261101E+03  0.56448217055E+03  0.41665216489E+03 0.  0.
      99925    2    3    3    0    0 -0.17103940262E+02 -0.68921313821E+02  0.24241917463E+03  0.36485439665E+03  0.26326599146E+03 0.  0.
         25    1    3    3    0    0  0.17103940262E+02  0.68921313821E+02  0.13842343638E+03  0.19962777390E+03  0.12509000000E+03 0.  0.
         25    1    4    4    0    0  0.21512352879E+02 -0.59644625931E+01  0.12224816400E+03  0.17632492122E+03  0.12509000000E+03 0.  0.
         25    1    4    4    0    0 -0.38616293140E+02 -0.62956851228E+02  0.12017101062E+03  0.18852947543E+03  0.12509000000E+03 0.  0.
<mgrwt>
<rscale>  2 0.41665216E+03</rscale>
<asrwt>0</asrwt>
<pdfrwt beam="1">  1       21 0.69509174E-01 0.41665216E+03</pdfrwt>
<pdfrwt beam="2">  1       21 0.13502909E-01 0.41665216E+03</pdfrwt>
<totfact> 0.83506853E+04</totfact>
</mgrwt>
</event>
<event>
 7    0  0.4705418E-002  0.4726327E+03  0.7546771E-02  0.1021180E+00
         21   -1    0    0  502  501  0.00000000000E+00  0.00000000000E+00  0.28394578848E+03  0.28394578848E+03  0.00000000000E+00 0. -1.
         21   -1    0    0  501  502 -0.00000000000E+00 -0.00000000000E+00 -0.19667634738E+03  0.19667634738E+03  0.00000000000E+00 0. -1.
      99926    2    1    2    0    0  0.14210854715E-13 -0.71054273576E-14  0.87269441100E+02  0.48062213586E+03  0.47263271377E+03 0.  0.
      99925    2    3    3    0    0 -0.10072558227E+03  0.57817991755E+02  0.11165052368E+03  0.30819676539E+03  0.26273721409E+03 0.  0.
         25    1    4    4    0    0 -0.51257908676E+02  0.31043088650E+02  0.99101645472E+02  0.17046903176E+03  0.12509000000E+03 0.  0.
         25    1    4    4    0    0 -0.49467673590E+02  0.26774903105E+02  0.12548878207E+02  0.13772773363E+03  0.12509000000E+03 0.  0.
         25    1    3    3    0    0  0.10072558227E+03 -0.57817991755E+02 -0.24381082579E+02  0.17242537047E+03  0.12509000000E+03 0.  0.
<mgrwt>
<rscale>  2 0.47263271E+03</rscale>
<asrwt>0</asrwt>
<pdfrwt beam="1">  1       21 0.41756734E-01 0.47263271E+03</pdfrwt>
<pdfrwt beam="2">  1       21 0.28922992E-01 0.47263271E+03</pdfrwt>
<totfact> 0.58087062E+04</totfact>
</mgrwt>
</event>
<event>
 7    0  0.4705418E-002  0.4483633E+03  0.7546771E-02  0.1028211E+00
         21   -1    0    0  502  501  0.00000000000E+00  0.00000000000E+00  0.26122140939E+03  0.26122140939E+03  0.00000000000E+00 0.  1.
         21   -1    0    0  501  502 -0.00000000000E+00 -0.00000000000E+00 -0.19239394449E+03  0.19239394449E+03  0.00000000000E+00 0.  1.
      99926    2    1    2    0    0 -0.14210854715E-13  0.00000000000E+00  0.68827464899E+02  0.45361535389E+03  0.44836332294E+03 0.  0.
      99925    2    3    3    0    0 -0.71998266064E+02 -0.76628318438E+02  0.24648948489E+02  0.28433777441E+03  0.26302994086E+03 0.  0.
         25    1    4    4    0    0 -0.21128742980E+02 -0.15188261829E+00  0.24188387032E+02  0.12914733066E+03  0.12509000000E+03 0.  0.
         25    1    4    4    0    0 -0.50869523084E+02 -0.76476435820E+02  0.46056145662E+00  0.15519044375E+03  0.12509000000E+03 0.  0.
         25    1    3    3    0    0  0.71998266064E+02  0.76628318438E+02  0.44178516409E+02  0.16927757948E+03  0.12509000000E+03 0.  0.
<mgrwt>
<rscale>  2 0.44836332E+03</rscale>
<asrwt>0</asrwt>
<pdfrwt beam="1">  1       21 0.38414913E-01 0.44836332E+03</pdfrwt>
<pdfrwt beam="2">  1       21 0.28293227E-01 0.44836332E+03</pdfrwt>
<totfact> 0.72405201E+04</totfact>
</mgrwt>
</event>
<event>
 7    0  0.4705418E-002  0.4306620E+03  0.7546771E-02  0.1033651E+00
         21   -1    0    0  502  501  0.00000000000E+00  0.00000000000E+00  0.26907540499E+03  0.26907540499E+03  0.00000000000E+00 0. -1.
         21   -1    0    0  501  502 -0.00000000000E+00 -0.00000000000E+00 -0.17232138318E+03  0.17232138318E+03  0.00000000000E+00 0. -1.
      99926    2    1    2    0    0  0.33306690739E-15  0.00000000000E+00  0.96754021811E+02  0.44139678817E+03  0.43066202975E+03 0.  0.
      99925    2    3    3    0    0  0.51035894827E+00 -0.75544180673E+02  0.10952428695E+03  0.29470741748E+03  0.26296332214E+03 0.  0.
         25    1    4    4    0    0 -0.20325705358E+02 -0.17067850307E+02  0.21598455382E+02  0.12968595601E+03  0.12509000000E+03 0.  0.
         25    1    4    4    0    0  0.20836064306E+02 -0.58476330366E+02  0.87925831566E+02  0.16502146147E+03  0.12509000000E+03 0.  0.
         25    1    3    3    0    0 -0.51035894827E+00  0.75544180673E+02 -0.12770265137E+02  0.14668937068E+03  0.12509000000E+03 0.  0.
<mgrwt>
<rscale>  2 0.43066203E+03</rscale>
<asrwt>0</asrwt>
<pdfrwt beam="1">  1       21 0.39569912E-01 0.43066203E+03</pdfrwt>
<pdfrwt beam="2">  1       21 0.25341380E-01 0.43066203E+03</pdfrwt>
<totfact> 0.84858851E+04</totfact>
</mgrwt>
</event>
<event>
 7    0  0.4705418E-002  0.4554320E+03  0.7546771E-02  0.1026114E+00
         21   -1    0    0  502  501  0.00000000000E+00  0.00000000000E+00  0.15982918566E+03  0.15982918566E+03  0.00000000000E+00 0.  1.
         21   -1    0    0  501  502 -0.00000000000E+00 -0.00000000000E+00 -0.32443752119E+03  0.32443752119E+03  0.00000000000E+00 0.  1.
      99926    2    1    2    0    0  0.00000000000E+00 -0.44408920985E-15 -0.16460833553E+03  0.48426670685E+03  0.45543203580E+03 0.  0.
      99925    2    3    3    0    0  0.11234289059E+03  0.18760800808E+01 -0.85975880179E+02  0.29864608332E+03  0.26300795876E+03 0.  0.
         25    1    4    4    0    0  0.19675790961E+02 -0.65802275455E+01 -0.16164511831E+02  0.12782501980E+03  0.12509000000E+03 0.  0.
         25    1    3    3    0    0 -0.11234289059E+03 -0.18760800808E+01 -0.78632455350E+02  0.18562062352E+03  0.12509000000E+03 0.  0.
         25    1    4    4    0    0  0.92667099629E+02  0.84563076263E+01 -0.69811368348E+02  0.17082106352E+03  0.12509000000E+03 0.  0.
<mgrwt>
<rscale>  2 0.45543204E+03</rscale>
<asrwt>0</asrwt>
<pdfrwt beam="1">  1       21 0.23504292E-01 0.45543204E+03</pdfrwt>
<pdfrwt beam="2">  1       21 0.47711399E-01 0.45543204E+03</pdfrwt>
<totfact> 0.66163601E+04</totfact>
</mgrwt>
</event>
<event>
 7    0  0.4705418E-002  0.4366524E+03  0.7546771E-02  0.1031779E+00
         21   -1    0    0  502  501  0.00000000000E+00  0.00000000000E+00  0.35749054193E+03  0.35749054193E+03  0.00000000000E+00 0. -1.
         21   -1    0    0  501  502 -0.00000000000E+00 -0.00000000000E+00 -0.13333594487E+03  0.13333594487E+03  0.00000000000E+00 0. -1.
      99926    2    1    2    0    0  0.00000000000E+00  0.00000000000E+00  0.22415459705E+03  0.49082648680E+03  0.43665244390E+03 0.  0.
      99925    2    3    3    0    0  0.48623552506E+02 -0.76361640721E+02  0.17563865795E+03  0.32897268092E+03  0.26301850998E+03 0.  0.
         25    1    3    3    0    0 -0.48623552506E+02  0.76361640721E+02  0.48515939103E+02  0.16185380588E+03  0.12509000000E+03 0.  0.
         25    1    4    4    0    0  0.17336667081E+02 -0.28842887486E+02  0.39236600198E+02  0.13534951451E+03  0.12509000000E+03 0.  0.
         25    1    4    4    0    0  0.31286885426E+02 -0.47518753235E+02  0.13640205775E+03  0.19362316640E+03  0.12509000000E+03 0.  0.
<mgrwt>
<rscale>  2 0.43665244E+03</rscale>
<asrwt>0</asrwt>
<pdfrwt beam="1">  1       21 0.52572138E-01 0.43665244E+03</pdfrwt>
<pdfrwt beam="2">  1       21 0.19608227E-01 0.43665244E+03</pdfrwt>
<totfact> 0.76463911E+04</totfact>
</mgrwt>
</event>
<event>
 7    0  0.4705418E-002  0.4350719E+03  0.7546771E-02  0.1032270E+00
         21   -1    0    0  502  501  0.00000000000E+00  0.00000000000E+00  0.67604100415E+03  0.67604100415E+03  0.00000000000E+00 0. -1.
         21   -1    0    0  501  502 -0.00000000000E+00 -0.00000000000E+00 -0.69998533727E+02  0.69998533727E+02  0.00000000000E+00 0. -1.
      99926    2    1    2    0    0  0.00000000000E+00  0.14210854715E-13  0.60604247043E+03  0.74603953788E+03  0.43507185168E+03 0.  0.
      99925    2    3    3    0    0 -0.55854248212E+02 -0.65019984024E+02  0.32732130195E+03  0.42873795701E+03  0.26330534690E+03 0.  0.
         25    1    4    4    0    0 -0.30878511871E+01  0.24875467101E+01  0.14144046370E+03  0.18886141899E+03  0.12509000000E+03 0.  0.
         25    1    3    3    0    0  0.55854248212E+02  0.65019984024E+02  0.27872116848E+03  0.31730158087E+03  0.12509000000E+03 0.  0.
         25    1    4    4    0    0 -0.52766397025E+02 -0.67507530735E+02  0.18588083825E+03  0.23987653802E+03  0.12509000000E+03 0.  0.
<mgrwt>
<rscale>  2 0.43507185E+03</rscale>
<asrwt>0</asrwt>
<pdfrwt beam="1">  1       21 0.99417791E-01 0.43507185E+03</pdfrwt>
<pdfrwt beam="2">  1       21 0.10293902E-01 0.43507185E+03</pdfrwt>
<totfact> 0.59218552E+04</totfact>
</mgrwt>
</event>
<event>
 7    0  0.4705418E-002  0.4595059E+03  0.7546771E-02  0.1024925E+00
         21   -1    0    0  502  501  0.00000000000E+00  0.00000000000E+00  0.31243677037E+03  0.31243677037E+03  0.00000000000E+00 0. -1.
         21   -1    0    0  501  502 -0.00000000000E+00 -0.00000000000E+00 -0.16895072060E+03  0.16895072060E+03  0.00000000000E+00 0. -1.
      99926    2    1    2    0    0 -0.14210854715E-13 -0.35527136788E-14  0.14348604977E+03  0.48138749097E+03  0.45950589766E+03 0.  0.
      99925    2    3    3    0    0  0.11592410787E+03  0.18032011397E+02  0.91145279509E+02  0.30208156092E+03  0.26302519889E+03 0.  0.
         25    1    3    3    0    0 -0.11592410787E+03 -0.18032011397E+02  0.52340770257E+02  0.17930593005E+03  0.12509000000E+03 0.  0.
         25    1    4    4    0    0  0.74601605428E+02  0.37559998396E+02  0.21964275536E+02  0.15200687653E+03  0.12509000000E+03 0.  0.
         25    1    4    4    0    0  0.41322502439E+02 -0.19527986999E+02  0.69181003973E+02  0.15007468439E+03  0.12509000000E+03 0.  0.
<mgrwt>
<rscale>  2 0.45950590E+03</rscale>
<asrwt>0</asrwt>
<pdfrwt beam="1">  1       21 0.45946584E-01 0.45950590E+03</pdfrwt>
<pdfrwt beam="2">  1       21 0.24845694E-01 0.45950590E+03</pdfrwt>
<totfact> 0.64269768E+04</totfact>
</mgrwt>
</event>
<event>
 7    0  0.4705418E-002  0.4545641E+03  0.7546771E-02  0.1026370E+00
         21   -1    0    0  502  501  0.00000000000E+00  0.00000000000E+00  0.15037896857E+04  0.15037896857E+04  0.00000000000E+00 0. -1.
         21   -1    0    0  501  502 -0.00000000000E+00 -0.00000000000E+00 -0.34351305807E+02  0.34351305807E+02  0.00000000000E+00 0. -1.
      99926    2    1    2    0    0  0.00000000000E+00  0.00000000000E+00  0.14694383799E+04  0.15381409915E+04  0.45456414008E+03 0.  0.
      99925    2    3    3    0    0 -0.48038491517E+02 -0.97352052337E+02  0.82087627030E+03  0.86876408956E+03  0.26292218127E+03 0.  0.
         25    1    4    4    0    0 -0.49979576868E+02 -0.49172558531E+02  0.32791814034E+03  0.35790182101E+03  0.12509000000E+03 0.  0.
         25    1    3    3    0    0  0.48038491517E+02  0.97352052337E+02  0.64856210958E+03  0.66937690193E+03  0.12509000000E+03 0.  0.
         25    1    4    4    0    0  0.19410853513E+01 -0.48179493806E+02  0.49295812996E+03  0.51086226855E+03  0.12509000000E+03 0.  0.
<mgrwt>
<rscale>  2 0.45456414E+03</rscale>
<asrwt>0</asrwt>
<pdfrwt beam="1">  1       21 0.22114550E+00 0.45456414E+03</pdfrwt>
<pdfrwt beam="2">  1       21 0.50516636E-02 0.45456414E+03</pdfrwt>
<totfact> 0.22937205E+04</totfact>
</mgrwt>
</event>
<event>
 7    0  0.4705418E-002  0.4534585E+03  0.7546771E-02  0.1026696E+00
         21   -1    0    0  502  501  0.00000000000E+00  0.00000000000E+00  0.30896157727E+03  0.30896157727E+03  0.00000000000E+00 0. -1.
         21   -1    0    0  501  502 -0.00000000000E+00 -0.00000000000E+00 -0.16638364361E+03  0.16638364361E+03  0.00000000000E+00 0. -1.
      99926    2    1    2    0    0  0.00000000000E+00  0.00000000000E+00  0.14257793366E+03  0.47534522089E+03  0.45345850070E+03 0.  0.
      99925    2    3    3    0    0  0.35330001093E+02  0.65234146359E+02  0.22393614860E+01  0.27324097608E+03  0.26296751404E+03 0.  0.
         25    1    3    3    0    0 -0.35330001093E+02 -0.65234146359E+02  0.14033857217E+03  0.20210424480E+03  0.12509000000E+03 0.  0.
         25    1    4    4    0    0  0.15147772807E+02  0.31187375032E+02  0.41520206531E+02  0.13628478651E+03  0.12509000000E+03 0.  0.
         25    1    4    4    0    0  0.20182228286E+02  0.34046771327E+02 -0.39280845045E+02  0.13695618958E+03  0.12509000000E+03 0.  0.
<mgrwt>
<rscale>  2 0.45345850E+03</rscale>
<asrwt>0</asrwt>
<pdfrwt beam="1">  1       21 0.45435526E-01 0.45345850E+03</pdfrwt>
<pdfrwt beam="2">  1       21 0.24468183E-01 0.45345850E+03</pdfrwt>
<totfact> 0.67867002E+04</totfact>
</mgrwt>
</event>
<event>
 7    0  0.4705418E-002  0.4637410E+03  0.7546771E-02  0.1023702E+00
         21   -1    0    0  502  501  0.00000000000E+00  0.00000000000E+00  0.93644035151E+03  0.93644035151E+03  0.00000000000E+00 0.  1.
         21   -1    0    0  501  502 -0.00000000000E+00 -0.00000000000E+00 -0.57413095861E+02  0.57413095861E+02  0.00000000000E+00 0.  1.
      99926    2    1    2    0    0 -0.71054273576E-14  0.00000000000E+00  0.87902725565E+03  0.99385344737E+03  0.46374104701E+03 0.  0.
      99925    2    3    3    0    0  0.60478438350E+02 -0.67436538861E+02  0.72124640725E+03  0.77306478711E+03  0.26311111117E+03 0.  0.
         25    1    4    4    0    0  0.60505370435E+02 -0.23095804994E+02  0.30036214130E+03  0.33175177481E+03  0.12509000000E+03 0.  0.
         25    1    3    3    0    0 -0.60478438350E+02  0.67436538861E+02  0.15778084840E+03  0.22078866026E+03  0.12509000000E+03 0.  0.
         25    1    4    4    0    0 -0.26932085349E-01 -0.44340733867E+02  0.42088426595E+03  0.44131301230E+03  0.12509000000E+03 0.  0.
<mgrwt>
<rscale>  2 0.46374105E+03</rscale>
<asrwt>0</asrwt>
<pdfrwt beam="1">  1       21 0.13771181E+00 0.46374105E+03</pdfrwt>
<pdfrwt beam="2">  1       21 0.84431029E-02 0.46374105E+03</pdfrwt>
<totfact> 0.36827412E+04</totfact>
</mgrwt>
</event>
<event>
 7    0  0.4705418E-002  0.4523674E+03  0.7546771E-02  0.1027018E+00
         21   -1    0    0  502  501  0.00000000000E+00  0.00000000000E+00  0.68209326130E+03  0.68209326130E+03  0.00000000000E+00 0.  1.
         21   -1    0    0  501  502 -0.00000000000E+00 -0.00000000000E+00 -0.75003049482E+02  0.75003049482E+02  0.00000000000E+00 0.  1.
      99926    2    1    2    0    0  0.17763568394E-14  0.00000000000E+00  0.60709021182E+03  0.75709631078E+03  0.45236743751E+03 0.  0.
      99925    2    3    3    0    0 -0.15204756270E+02 -0.10914065858E+03  0.36523657761E+03  0.46335568293E+03  0.26297882675E+03 0.  0.
         25    1    3    3    0    0  0.15204756270E+02  0.10914065858E+03  0.24185363421E+03  0.29374062785E+03  0.12509000000E+03 0.  0.
         25    1    4    4    0    0  0.31036640170E+02 -0.45511927903E+02  0.19158250913E+03  0.23534224975E+03  0.12509000000E+03 0.  0.
         25    1    4    4    0    0 -0.46241396440E+02 -0.63628730674E+02  0.17365406848E+03  0.22801343318E+03  0.12509000000E+03 0.  0.
<mgrwt>
<rscale>  2 0.45236744E+03</rscale>
<asrwt>0</asrwt>
<pdfrwt beam="1">  1       21 0.10030783E+00 0.45236744E+03</pdfrwt>
<pdfrwt beam="2">  1       21 0.11029861E-01 0.45236744E+03</pdfrwt>
<totfact> 0.50954454E+04</totfact>
</mgrwt>
</event>
<event>
 7    0  0.4705418E-002  0.4496876E+03  0.7546771E-02  0.1027815E+00
         21   -1    0    0  502  501  0.00000000000E+00  0.00000000000E+00  0.21809607937E+03  0.21809607937E+03  0.00000000000E+00 0.  1.
         21   -1    0    0  501  502 -0.00000000000E+00 -0.00000000000E+00 -0.23180029013E+03  0.23180029013E+03  0.00000000000E+00 0.  1.
      99926    2    1    2    0    0  0.00000000000E+00  0.00000000000E+00 -0.13704210756E+02  0.44989636951E+03  0.44968760034E+03 0.  0.
      99925    2    3    3    0    0 -0.81576175013E+02  0.37915268482E+02 -0.68656219679E+02  0.28631314513E+03  0.26300057159E+03 0.  0.
         25    1    3    3    0    0  0.81576175013E+02 -0.37915268482E+02  0.54952008923E+02  0.16358322438E+03  0.12509000000E+03 0.  0.
         25    1    4    4    0    0 -0.84644198923E+01  0.39322399941E+02 -0.48302077670E+02  0.13999462971E+03  0.12509000000E+03 0.  0.
         25    1    4    4    0    0 -0.73111755120E+02 -0.14071314582E+01 -0.20354142009E+02  0.14631851541E+03  0.12509000000E+03 0.  0.
<mgrwt>
<rscale>  2 0.44968760E+03</rscale>
<asrwt>0</asrwt>
<pdfrwt beam="1">  1       21 0.32072953E-01 0.44968760E+03</pdfrwt>
<pdfrwt beam="2">  1       21 0.34088278E-01 0.44968760E+03</pdfrwt>
<totfact> 0.71921884E+04</totfact>
</mgrwt>
</event>
<event>
 7    0  0.4705418E-002  0.4635094E+03  0.7546771E-02  0.1023768E+00
         21   -1    0    0  502  501  0.00000000000E+00  0.00000000000E+00  0.42679309703E+02  0.42679309703E+02  0.00000000000E+00 0.  1.
         21   -1    0    0  501  502 -0.00000000000E+00 -0.00000000000E+00 -0.12584609297E+04  0.12584609297E+04  0.00000000000E+00 0.  1.
      99926    2    1    2    0    0  0.71054273576E-14  0.14210854715E-13 -0.12157816200E+04  0.13011402394E+04  0.46350941206E+03 0.  0.
      99925    2    3    3    0    0 -0.55139913338E+02 -0.10769059227E+03 -0.76099633352E+03  0.81419584977E+03  0.26298628944E+03 0.  0.
         25    1    4    4    0    0 -0.69618800308E+01 -0.87421965440E+02 -0.36697224276E+03  0.39750119858E+03  0.12509000000E+03 0.  0.
         25    1    4    4    0    0 -0.48178033307E+02 -0.20268626827E+02 -0.39402409076E+03  0.41669465119E+03  0.12509000000E+03 0.  0.
         25    1    3    3    0    0  0.55139913338E+02  0.10769059227E+03 -0.45478528647E+03  0.48694438963E+03  0.12509000000E+03 0.  0.
<mgrwt>
<rscale>  2 0.46350941E+03</rscale>
<asrwt>0</asrwt>
<pdfrwt beam="1">  1       21 0.62763703E-02 0.46350941E+03</pdfrwt>
<pdfrwt beam="2">  1       21 0.18506775E+00 0.46350941E+03</pdfrwt>
<totfact> 0.27233616E+04</totfact>
</mgrwt>
</event>
<event>
 7    0  0.4705418E-002  0.4618062E+03  0.7546771E-02  0.1024259E+00
         21   -1    0    0  502  501  0.00000000000E+00  0.00000000000E+00  0.10159011235E+04  0.10159011235E+04  0.00000000000E+00 0. -1.
         21   -1    0    0  501  502 -0.00000000000E+00 -0.00000000000E+00 -0.52481721622E+02  0.52481721622E+02  0.00000000000E+00 0. -1.
      99926    2    1    2    0    0 -0.71054273576E-14 -0.14210854715E-13  0.96341940190E+03  0.10683828451E+04  0.46180619294E+03 0.  0.
      99925    2    3    3    0    0 -0.59121977055E+02 -0.99239494365E+02  0.53264390767E+03  0.60517779342E+03  0.26303373141E+03 0.  0.
         25    1    4    4    0    0 -0.26696675604E+02 -0.12145542661E+02  0.19806366364E+03  0.23608674179E+03  0.12509000000E+03 0.  0.
         25    1    3    3    0    0  0.59121977055E+02  0.99239494365E+02  0.43077549423E+03  0.46320505173E+03  0.12509000000E+03 0.  0.
         25    1    4    4    0    0 -0.32425301451E+02 -0.87093951705E+02  0.33458024402E+03  0.36909105162E+03  0.12509000000E+03 0.  0.
<mgrwt>
<rscale>  2 0.46180619E+03</rscale>
<asrwt>0</asrwt>
<pdfrwt beam="1">  1       21 0.14939721E+00 0.46180619E+03</pdfrwt>
<pdfrwt beam="2">  1       21 0.77179009E-02 0.46180619E+03</pdfrwt>
<totfact> 0.34728453E+04</totfact>
</mgrwt>
</event>
<event>
 7    0  0.4705418E-002  0.4529339E+03  0.7546771E-02  0.1026851E+00
         21   -1    0    0  502  501  0.00000000000E+00  0.00000000000E+00  0.25645498459E+03  0.25645498459E+03  0.00000000000E+00 0. -1.
         21   -1    0    0  501  502 -0.00000000000E+00 -0.00000000000E+00 -0.19998546205E+03  0.19998546205E+03  0.00000000000E+00 0. -1.
      99926    2    1    2    0    0  0.00000000000E+00  0.00000000000E+00  0.56469522542E+02  0.45644044663E+03  0.45293385207E+03 0.  0.
      99925    2    3    3    0    0 -0.22367440590E+02 -0.44649698038E+02  0.13564718299E+03  0.30020182162E+03  0.26311039036E+03 0.  0.
         25    1    3    3    0    0  0.22367440590E+02  0.44649698038E+02 -0.79177660444E+02  0.15623862502E+03  0.12509000000E+03 0.  0.
         25    1    4    4    0    0  0.97704495903E+01  0.58810884811E+01  0.40350647643E+02  0.13193078394E+03  0.12509000000E+03 0.  0.
         25    1    4    4    0    0 -0.32137890180E+02 -0.50530786519E+02  0.95296535342E+02  0.16827103767E+03  0.12509000000E+03 0.  0.
<mgrwt>
<rscale>  2 0.45293385E+03</rscale>
<asrwt>0</asrwt>
<pdfrwt beam="1">  1       21 0.37713969E-01 0.45293385E+03</pdfrwt>
<pdfrwt beam="2">  1       21 0.29409627E-01 0.45293385E+03</pdfrwt>
<totfact> 0.69580172E+04</totfact>
</mgrwt>
</event>
<event>
 7    0  0.4705418E-002  0.4589594E+03  0.7546771E-02  0.1025083E+00
         21   -1    0    0  502  501  0.00000000000E+00  0.00000000000E+00  0.46796475549E+02  0.46796475549E+02  0.00000000000E+00 0.  1.
         21   -1    0    0  501  502 -0.00000000000E+00 -0.00000000000E+00 -0.11253181651E+04  0.11253181651E+04  0.00000000000E+00 0.  1.
      99926    2    1    2    0    0  0.00000000000E+00  0.88817841970E-15 -0.10785216896E+04  0.11721146407E+04  0.45895936203E+03 0.  0.
      99925    2    3    3    0    0  0.50940739767E+01  0.61785031444E+01 -0.97402743219E+03  0.10089255436E+04  0.26293951832E+03 0.  0.
         25    1    4    4    0    0 -0.63321334341E+01 -0.60130444068E+01 -0.33827480381E+03  0.36076807454E+03  0.12509000000E+03 0.  0.
         25    1    4    4    0    0  0.11426207411E+02  0.12191547551E+02 -0.63575262838E+03  0.64815746902E+03  0.12509000000E+03 0.  0.
         25    1    3    3    0    0 -0.50940739767E+01 -0.61785031444E+01 -0.10449425738E+03  0.16318909711E+03  0.12509000000E+03 0.  0.
<mgrwt>
<rscale>  2 0.45895936E+03</rscale>
<asrwt>0</asrwt>
<pdfrwt beam="1">  1       21 0.68818358E-02 0.45895936E+03</pdfrwt>
<pdfrwt beam="2">  1       21 0.16548794E+00 0.45895936E+03</pdfrwt>
<totfact> 0.32052200E+04</totfact>
</mgrwt>
</event>
<event>
 7    0  0.4705418E-002  0.4338077E+03  0.7546771E-02  0.1032664E+00
         21   -1    0    0  502  501  0.00000000000E+00  0.00000000000E+00  0.21544138743E+04  0.21544138743E+04  0.00000000000E+00 0. -1.
         21   -1    0    0  501  502 -0.00000000000E+00 -0.00000000000E+00 -0.21837620398E+02  0.21837620398E+02  0.00000000000E+00 0. -1.
      99926    2    1    2    0    0  0.00000000000E+00 -0.71054273576E-14  0.21325762539E+04  0.21762514947E+04  0.43380766414E+03 0.  0.
      99925    2    3    3    0    0  0.13709169198E+02 -0.57401166389E+02  0.10155324198E+04  0.10506772987E+04  0.26293317626E+03 0.  0.
         25    1    4    4    0    0 -0.83378540100E+01 -0.66466673802E+02  0.51320195389E+03  0.53245759654E+03  0.12509000000E+03 0.  0.
         25    1    3    3    0    0 -0.13709169198E+02  0.57401166389E+02  0.11170438341E+04  0.11255741960E+04  0.12509000000E+03 0.  0.
         25    1    4    4    0    0  0.22047023208E+02  0.90655074124E+01  0.50233046590E+03  0.51821970218E+03  0.12509000000E+03 0.  0.
<mgrwt>
<rscale>  2 0.43380766E+03</rscale>
<asrwt>0</asrwt>
<pdfrwt beam="1">  1       21 0.31682542E+00 0.43380766E+03</pdfrwt>
<pdfrwt beam="2">  1       21 0.32114163E-02 0.43380766E+03</pdfrwt>
<totfact> 0.13060993E+04</totfact>
</mgrwt>
</event>
<event>
 7    0  0.4705418E-002  0.4733445E+03  0.7546771E-02  0.1020980E+00
         21   -1    0    0  502  501  0.00000000000E+00  0.00000000000E+00  0.51907538936E+03  0.51907538936E+03  0.00000000000E+00 0.  1.
         21   -1    0    0  501  502 -0.00000000000E+00 -0.00000000000E+00 -0.10791061478E+03  0.10791061478E+03  0.00000000000E+00 0.  1.
      99926    2    1    2    0    0 -0.35527136788E-14  0.00000000000E+00  0.41116477458E+03  0.62698600414E+03  0.47334445970E+03 0.  0.
      99925    2    3    3    0    0  0.25632667425E+02 -0.22251803656E+02  0.42048350563E+03  0.49703784811E+03  0.26284609099E+03 0.  0.
         25    1    3    3    0    0 -0.25632667425E+02  0.22251803656E+02 -0.93187310498E+01  0.12994815602E+03  0.12509000000E+03 0.  0.
         25    1    4    4    0    0 -0.24069327677E+02 -0.21384527493E+02  0.23011423686E+03  0.26388766674E+03  0.12509000000E+03 0.  0.
         25    1    4    4    0    0  0.49701995101E+02 -0.86727616332E+00  0.19036926876E+03  0.23315018137E+03  0.12509000000E+03 0.  0.
<mgrwt>
<rscale>  2 0.47334446E+03</rscale>
<asrwt>0</asrwt>
<pdfrwt beam="1">  1       21 0.76334615E-01 0.47334446E+03</pdfrwt>
<pdfrwt beam="2">  1       21 0.15869208E-01 0.47334446E+03</pdfrwt>
<totfact> 0.49481115E+04</totfact>
</mgrwt>
</event>
<event>
 7    0  0.4705418E-002  0.4584590E+03  0.7546771E-02  0.1025229E+00
         21   -1    0    0  502  501  0.00000000000E+00  0.00000000000E+00  0.14583681849E+04  0.14583681849E+04  0.00000000000E+00 0. -1.
         21   -1    0    0  501  502 -0.00000000000E+00 -0.00000000000E+00 -0.36030790242E+02  0.36030790242E+02  0.00000000000E+00 0. -1.
      99926    2    1    2    0    0  0.00000000000E+00  0.00000000000E+00  0.14223373947E+04  0.14943989751E+04  0.45845897599E+03 0.  0.
      99925    2    3    3    0    0  0.84767291813E+02  0.32537899317E+02  0.65469418594E+03  0.71134864940E+03  0.26296048229E+03 0.  0.
         25    1    4    4    0    0  0.78889768444E+02  0.28938569297E+02  0.40168520004E+03  0.42902161297E+03  0.12509000000E+03 0.  0.
         25    1    3    3    0    0 -0.84767291813E+02 -0.32537899317E+02  0.76764320872E+03  0.78305032574E+03  0.12509000000E+03 0.  0.
         25    1    4    4    0    0  0.58775233689E+01  0.35993300201E+01  0.25300898589E+03  0.28232703643E+03  0.12509000000E+03 0.  0.
<mgrwt>
<rscale>  2 0.45845898E+03</rscale>
<asrwt>0</asrwt>
<pdfrwt beam="1">  1       21 0.21446587E+00 0.45845898E+03</pdfrwt>
<pdfrwt beam="2">  1       21 0.52986466E-02 0.45845898E+03</pdfrwt>
<totfact> 0.23284825E+04</totfact>
</mgrwt>
</event>
<event>
 7    0  0.4705418E-002  0.4691393E+03  0.7546771E-02  0.1022163E+00
         21   -1    0    0  502  501  0.00000000000E+00  0.00000000000E+00  0.14889291742E+03  0.14889291742E+03  0.00000000000E+00 0.  1.
         21   -1    0    0  501  502 -0.00000000000E+00 -0.00000000000E+00 -0.36954695975E+03  0.36954695975E+03  0.00000000000E+00 0.  1.
      99926    2    1    2    0    0  0.14210854715E-13  0.35527136788E-14 -0.22065404233E+03  0.51843987718E+03  0.46913931817E+03 0.  0.
      99925    2    3    3    0    0  0.12515007321E+03  0.11312966463E+02 -0.14093359691E+03  0.32403467778E+03  0.26333565963E+03 0.  0.
         25    1    3    3    0    0 -0.12515007321E+03 -0.11312966463E+02 -0.79720445420E+02  0.19440519940E+03  0.12509000000E+03 0.  0.
         25    1    4    4    0    0  0.39856205663E+02 -0.22934724409E+02 -0.89379749784E+02  0.16047045362E+03  0.12509000000E+03 0.  0.
         25    1    4    4    0    0  0.85293867548E+02  0.34247690872E+02 -0.51553847126E+02  0.16356422416E+03  0.12509000000E+03 0.  0.
<mgrwt>
<rscale>  2 0.46913932E+03</rscale>
<asrwt>0</asrwt>
<pdfrwt beam="1">  1       21 0.21896018E-01 0.46913932E+03</pdfrwt>
<pdfrwt beam="2">  1       21 0.54345140E-01 0.46913932E+03</pdfrwt>
<totfact> 0.57290070E+04</totfact>
</mgrwt>
</event>
<event>
 7    0  0.4705418E-002  0.4537751E+03  0.7546771E-02  0.1026602E+00
         21   -1    0    0  502  501  0.00000000000E+00  0.00000000000E+00  0.43827330325E+02  0.43827330325E+02  0.00000000000E+00 0. -1.
         21   -1    0    0  501  502 -0.00000000000E+00 -0.00000000000E+00 -0.11745630798E+04  0.11745630798E+04  0.00000000000E+00 0. -1.
      99926    2    1    2    0    0  0.35527136788E-14  0.00000000000E+00 -0.11307357495E+04  0.12183904102E+04  0.45377511649E+03 0.  0.
      99925    2    3    3    0    0 -0.23029360118E+02  0.10718870788E+03 -0.65359960277E+03  0.71309229899E+03  0.26322692799E+03 0.  0.
         25    1    4    4    0    0 -0.10890801089E+02  0.95291545210E+02 -0.32909248609E+03  0.36489513650E+03  0.12509000000E+03 0.  0.
         25    1    3    3    0    0  0.23029360118E+02 -0.10718870788E+03 -0.47713614674E+03  0.50529811117E+03  0.12509000000E+03 0.  0.
         25    1    4    4    0    0 -0.12138559029E+02  0.11897162667E+02 -0.32450711668E+03  0.34819716249E+03  0.12509000000E+03 0.  0.
<mgrwt>
<rscale>  2 0.45377512E+03</rscale>
<asrwt>0</asrwt>
<pdfrwt beam="1">  1       21 0.64451970E-02 0.45377512E+03</pdfrwt>
<pdfrwt beam="2">  1       21 0.17272983E+00 0.45377512E+03</pdfrwt>
<totfact> 0.31881511E+04</totfact>
</mgrwt>
</event>
<event>
 7    0  0.4705418E-002  0.4563605E+03  0.7546771E-02  0.1025842E+00
         21   -1    0    0  502  501  0.00000000000E+00  0.00000000000E+00  0.96279581097E+02  0.96279581097E+02  0.00000000000E+00 0. -1.
         21   -1    0    0  501  502 -0.00000000000E+00 -0.00000000000E+00 -0.54078155068E+03  0.54078155068E+03  0.00000000000E+00 0. -1.
      99926    2    1    2    0    0  0.00000000000E+00  0.00000000000E+00 -0.44450196958E+03  0.63706113178E+03  0.45636047666E+03 0.  0.
      99925    2    3    3    0    0 -0.33662737013E+02 -0.43045350742E+02 -0.41976773024E+03  0.49833343887E+03  0.26295472397E+03 0.  0.
         25    1    4    4    0    0  0.99155127595E+01 -0.51948158485E+02 -0.21240319870E+03  0.25211020503E+03  0.12509000000E+03 0.  0.
         25    1    3    3    0    0  0.33662737013E+02  0.43045350742E+02 -0.24734239338E+02  0.13872769291E+03  0.12509000000E+03 0.  0.
         25    1    4    4    0    0 -0.43578249772E+02  0.89028077429E+01 -0.20736453155E+03  0.24622323384E+03  0.12509000000E+03 0.  0.
<mgrwt>
<rscale>  2 0.45636048E+03</rscale>
<asrwt>0</asrwt>
<pdfrwt beam="1">  1       21 0.14158762E-01 0.45636048E+03</pdfrwt>
<pdfrwt beam="2">  1       21 0.79526699E-01 0.45636048E+03</pdfrwt>
<totfact> 0.55851007E+04</totfact>
</mgrwt>
</event>
<event>
 7    0  0.4705418E-002  0.4535196E+03  0.7546771E-02  0.1026678E+00
         21   -1    0    0  502  501  0.00000000000E+00  0.00000000000E+00  0.36919524353E+03  0.36919524353E+03  0.00000000000E+00 0.  1.
         21   -1    0    0  501  502 -0.00000000000E+00 -0.00000000000E+00 -0.13927592553E+03  0.13927592553E+03  0.00000000000E+00 0.  1.
      99926    2    1    2    0    0  0.00000000000E+00  0.00000000000E+00  0.22991931800E+03  0.50847116906E+03  0.45351961035E+03 0.  0.
      99925    2    3    3    0    0  0.40850848277E+02  0.10170413516E+03  0.16947111603E+03  0.33151350142E+03  0.26299851624E+03 0.  0.
         25    1    4    4    0    0 -0.67157431681E+01  0.74622701196E+02  0.10966528995E+03  0.18244898646E+03  0.12509000000E+03 0.  0.
         25    1    4    4    0    0  0.47566591445E+02  0.27081433964E+02  0.59805826075E+02  0.14906451496E+03  0.12509000000E+03 0.  0.
         25    1    3    3    0    0 -0.40850848277E+02 -0.10170413516E+03  0.60448201969E+02  0.17695766764E+03  0.12509000000E+03 0.  0.
<mgrwt>
<rscale>  2 0.45351961E+03</rscale>
<asrwt>0</asrwt>
<pdfrwt beam="1">  1       21 0.54293418E-01 0.45351961E+03</pdfrwt>
<pdfrwt beam="2">  1       21 0.20481754E-01 0.45351961E+03</pdfrwt>
<totfact> 0.65445081E+04</totfact>
</mgrwt>
</event>
<event>
 7    0  0.4705418E-002  0.4619655E+03  0.7546771E-02  0.1024213E+00
         21   -1    0    0  502  501  0.00000000000E+00  0.00000000000E+00  0.23528723951E+03  0.23528723951E+03  0.00000000000E+00 0. -1.
         21   -1    0    0  501  502 -0.00000000000E+00 -0.00000000000E+00 -0.22675701171E+03  0.22675701171E+03  0.00000000000E+00 0. -1.
      99926    2    1    2    0    0  0.00000000000E+00  0.00000000000E+00  0.85302277972E+01  0.46204425122E+03  0.46196550228E+03 0.  0.
      99925    2    3    3    0    0 -0.80029393150E+02  0.75456439867E+02 -0.42356406996E+02  0.28787382955E+03  0.26263834152E+03 0.  0.
         25    1    4    4    0    0 -0.38827689115E+02  0.47807387578E+02  0.17625934719E+02  0.14053938033E+03  0.12509000000E+03 0.  0.
         25    1    3    3    0    0  0.80029393150E+02 -0.75456439867E+02  0.50886634793E+02  0.17417042167E+03  0.12509000000E+03 0.  0.
         25    1    4    4    0    0 -0.41201704035E+02  0.27649052289E+02 -0.59982341715E+02  0.14733444922E+03  0.12509000000E+03 0.  0.
<mgrwt>
<rscale>  2 0.46196550E+03</rscale>
<asrwt>0</asrwt>
<pdfrwt beam="1">  1       21 0.34601065E-01 0.46196550E+03</pdfrwt>
<pdfrwt beam="2">  1       21 0.33346619E-01 0.46196550E+03</pdfrwt>
<totfact> 0.64379647E+04</totfact>
</mgrwt>
</event>
<event>
 7    0  0.4705418E-002  0.4333311E+03  0.7546771E-02  0.1032813E+00
         21   -1    0    0  502  501  0.00000000000E+00  0.00000000000E+00  0.34019021769E+02  0.34019021769E+02  0.00000000000E+00 0.  1.
         21   -1    0    0  501  502 -0.00000000000E+00 -0.00000000000E+00 -0.13799327461E+04  0.13799327461E+04  0.00000000000E+00 0.  1.
      99926    2    1    2    0    0  0.71054273576E-14  0.71054273576E-14 -0.13459137243E+04  0.14139517678E+04  0.43333110726E+03 0.  0.
      99925    2    3    3    0    0 -0.35361496597E+02 -0.48610417467E+02 -0.10891165757E+04  0.11220516278E+04  0.26308084661E+03 0.  0.
         25    1    4    4    0    0 -0.96653341096E+01 -0.20927616330E+02 -0.70326593359E+03  0.71467605616E+03  0.12509000000E+03 0.  0.
         25    1    3    3    0    0  0.35361496597E+02  0.48610417467E+02 -0.25679714862E+03  0.29190014006E+03  0.12509000000E+03 0.  0.
         25    1    4    4    0    0 -0.25696162487E+02 -0.27682801138E+02 -0.38585064209E+03  0.40737557161E+03  0.12509000000E+03 0.  0.
<mgrwt>
<rscale>  2 0.43333111E+03</rscale>
<asrwt>0</asrwt>
<pdfrwt beam="1">  1       21 0.50027966E-02 0.43333111E+03</pdfrwt>
<pdfrwt beam="2">  1       21 0.20293132E+00 0.43333111E+03</pdfrwt>
<totfact> 0.30837544E+04</totfact>
</mgrwt>
</event>
<event>
 7    0  0.4705418E-002  0.4348527E+03  0.7546771E-02  0.1032338E+00
         21   -1    0    0  502  501  0.00000000000E+00  0.00000000000E+00  0.94254736682E+03  0.94254736682E+03  0.00000000000E+00 0.  1.
         21   -1    0    0  501  502 -0.00000000000E+00 -0.00000000000E+00 -0.50155807419E+02  0.50155807419E+02  0.00000000000E+00 0.  1.
      99926    2    1    2    0    0  0.00000000000E+00  0.00000000000E+00  0.89239155941E+03  0.99270317424E+03  0.43485273008E+03 0.  0.
      99925    2    3    3    0    0  0.48298740718E+02 -0.61915701787E+02  0.45871775567E+03  0.53456913422E+03  0.26301303658E+03 0.  0.
         25    1    4    4    0    0  0.27453969062E+02 -0.60286060652E+02  0.18537373201E+03  0.23323605670E+03  0.12509000000E+03 0.  0.
         25    1    3    3    0    0 -0.48298740718E+02  0.61915701787E+02  0.43367380374E+03  0.45813404002E+03  0.12509000000E+03 0.  0.
         25    1    4    4    0    0  0.20844771656E+02 -0.16296411357E+01  0.27334402366E+03  0.30133307752E+03  0.12509000000E+03 0.  0.
<mgrwt>
<rscale>  2 0.43485273E+03</rscale>
<asrwt>0</asrwt>
<pdfrwt beam="1">  1       21 0.13860990E+00 0.43485273E+03</pdfrwt>
<pdfrwt beam="2">  1       21 0.73758546E-02 0.43485273E+03</pdfrwt>
<totfact> 0.46323019E+04</totfact>
</mgrwt>
</event>
<event>
 7    0  0.4705418E-002  0.4569909E+03  0.7546771E-02  0.1025658E+00
         21   -1    0    0  502  501  0.00000000000E+00  0.00000000000E+00  0.43601471002E+03  0.43601471002E+03  0.00000000000E+00 0.  1.
         21   -1    0    0  501  502 -0.00000000000E+00 -0.00000000000E+00 -0.11974403874E+03  0.11974403874E+03  0.00000000000E+00 0.  1.
      99926    2    1    2    0    0  0.00000000000E+00 -0.14210854715E-13  0.31627067128E+03  0.55575874877E+03  0.45699086349E+03 0.  0.
      99925    2    3    3    0    0  0.30932314964E+02  0.94318677123E+02  0.26933498481E+03  0.38931570227E+03  0.26300676992E+03 0.  0.
         25    1    4    4    0    0 -0.24509719505E+02  0.46370367389E+02  0.11872176774E+03  0.18025899022E+03  0.12509000000E+03 0.  0.
         25    1    3    3    0    0 -0.30932314964E+02 -0.94318677123E+02  0.46935686469E+02  0.16644304650E+03  0.12509000000E+03 0.  0.
         25    1    4    4    0    0  0.55442034469E+02  0.47948309734E+02  0.15061321708E+03  0.20905671204E+03  0.12509000000E+03 0.  0.
<mgrwt>
<rscale>  2 0.45699086E+03</rscale>
<asrwt>0</asrwt>
<pdfrwt beam="1">  1       21 0.64119810E-01 0.45699086E+03</pdfrwt>
<pdfrwt beam="2">  1       21 0.17609418E-01 0.45699086E+03</pdfrwt>
<totfact> 0.60528636E+04</totfact>
</mgrwt>
</event>
<event>
 7    0  0.4705418E-002  0.4545559E+03  0.7546771E-02  0.1026372E+00
         21   -1    0    0  502  501  0.00000000000E+00  0.00000000000E+00  0.36376007052E+02  0.36376007052E+02  0.00000000000E+00 0.  1.
         21   -1    0    0  501  502 -0.00000000000E+00 -0.00000000000E+00 -0.14200367192E+04  0.14200367192E+04  0.00000000000E+00 0.  1.
      99926    2    1    2    0    0 -0.71054273576E-14  0.00000000000E+00 -0.13836607122E+04  0.14564127263E+04  0.45455589629E+03 0.  0.
      99925    2    3    3    0    0  0.45308197422E+02 -0.79859615054E+02 -0.10808353496E+04  0.11161465082E+04  0.26295928177E+03 0.  0.
         25    1    4    4    0    0 -0.66617666580E+01 -0.89481888452E+01 -0.47723993221E+03  0.49348749753E+03  0.12509000000E+03 0.  0.
         25    1    3    3    0    0 -0.45308197422E+02  0.79859615054E+02 -0.30282536254E+03  0.34026621808E+03  0.12509000000E+03 0.  0.
         25    1    4    4    0    0  0.51969964080E+02 -0.70911426208E+02 -0.60359541742E+03  0.62265901067E+03  0.12509000000E+03 0.  0.
<mgrwt>
<rscale>  2 0.45455590E+03</rscale>
<asrwt>0</asrwt>
<pdfrwt beam="1">  1       21 0.53494139E-02 0.45455590E+03</pdfrwt>
<pdfrwt beam="2">  1       21 0.20882889E+00 0.45455590E+03</pdfrwt>
<totfact> 0.24952631E+04</totfact>
</mgrwt>
</event>
<event>
 6    0  0.4705418E-002  0.4656746E+03  0.7546771E-02  0.1023148E+00
         21   -1    0    0  502  501  0.00000000000E+00  0.00000000000E+00  0.88969628004E+02  0.88969628004E+02  0.00000000000E+00 0. -1.
         21   -1    0    0  501  502 -0.00000000000E+00 -0.00000000000E+00 -0.60934522029E+03  0.60934522029E+03  0.00000000000E+00 0. -1.
      99926    2    1    2    0    0  0.00000000000E+00  0.00000000000E+00 -0.52037559228E+03  0.69831484829E+03  0.46567463996E+03 0.  0.
         25    1    3    3    0    0  0.13641522263E+02 -0.11077489034E+03 -0.11341281007E+03  0.20240341165E+03  0.12509000000E+03 0.  0.
         25    1    3    3    0    0 -0.11413473272E+02  0.53478260363E+02 -0.13984887963E+03  0.19543645754E+03  0.12509000000E+03 0.  0.
         25    1    3    3    0    0 -0.22280489905E+01  0.57296629978E+02 -0.26711390258E+03  0.30047497910E+03  0.12509000000E+03 0.  0.
<mgrwt>
<rscale>  2 0.46567464E+03</rscale>
<asrwt>0</asrwt>
<pdfrwt beam="1">  1       21 0.13083769E-01 0.46567464E+03</pdfrwt>
<pdfrwt beam="2">  1       21 0.89609589E-01 0.46567464E+03</pdfrwt>
<totfact> 0.48765680E+04</totfact>
</mgrwt>
</event>
<event>
 7    0  0.4705418E-002  0.4580336E+03  0.7546771E-02  0.1025353E+00
         21   -1    0    0  502  501  0.00000000000E+00  0.00000000000E+00  0.45737592063E+03  0.45737592063E+03  0.00000000000E+00 0. -1.
         21   -1    0    0  501  502 -0.00000000000E+00 -0.00000000000E+00 -0.11467307654E+03  0.11467307654E+03  0.00000000000E+00 0. -1.
      99926    2    1    2    0    0  0.00000000000E+00 -0.14210854715E-13  0.34270284409E+03  0.57204899717E+03  0.45803364048E+03 0.  0.
      99925    2    3    3    0    0 -0.79323219310E+02 -0.80889633991E+02  0.18364512418E+03  0.34013916044E+03  0.26293309191E+03 0.  0.
         25    1    4    4    0    0 -0.22175198592E+02 -0.77332557752E+02  0.96296470339E+02  0.17717951976E+03  0.12509000000E+03 0.  0.
         25    1    4    4    0    0 -0.57148020717E+02 -0.35570762394E+01  0.87348653843E+02  0.16295964068E+03  0.12509000000E+03 0.  0.
         25    1    3    3    0    0  0.79323219310E+02  0.80889633991E+02  0.15905771991E+03  0.23190983673E+03  0.12509000000E+03 0.  0.
<mgrwt>
<rscale>  2 0.45803364E+03</rscale>
<asrwt>0</asrwt>
<pdfrwt beam="1">  1       21 0.67261164E-01 0.45803364E+03</pdfrwt>
<pdfrwt beam="2">  1       21 0.16863688E-01 0.45803364E+03</pdfrwt>
<totfact> 0.59004368E+04</totfact>
</mgrwt>
</event>
<event>
 7    0  0.4705418E-002  0.4565991E+03  0.7546771E-02  0.1025772E+00
         21   -1    0    0  502  501  0.00000000000E+00  0.00000000000E+00  0.33478789281E+03  0.33478789281E+03  0.00000000000E+00 0.  1.
         21   -1    0    0  501  502 -0.00000000000E+00 -0.00000000000E+00 -0.15568268623E+03  0.15568268623E+03  0.00000000000E+00 0.  1.
      99926    2    1    2    0    0  0.00000000000E+00  0.00000000000E+00  0.17910520658E+03  0.49047057903E+03  0.45659907345E+03 0.  0.
      99925    2    3    3    0    0  0.12545598508E+02 -0.39206947285E+02  0.22749254401E+03  0.35017296936E+03  0.26300888603E+03 0.  0.
         25    1    4    4    0    0 -0.25150641709E+01 -0.48654066087E+02  0.15282352311E+03  0.20341111329E+03  0.12509000000E+03 0.  0.
         25    1    4    4    0    0  0.15060662679E+02  0.94471188022E+01  0.74669020895E+02  0.14676185606E+03  0.12509000000E+03 0.  0.
         25    1    3    3    0    0 -0.12545598508E+02  0.39206947285E+02 -0.48387337427E+02  0.14029760968E+03  0.12509000000E+03 0.  0.
<mgrwt>
<rscale>  2 0.45659907E+03</rscale>
<asrwt>0</asrwt>
<pdfrwt beam="1">  1       21 0.49233514E-01 0.45659907E+03</pdfrwt>
<pdfrwt beam="2">  1       21 0.22894513E-01 0.45659907E+03</pdfrwt>
<totfact> 0.65114918E+04</totfact>
</mgrwt>
</event>
<event>
 7    0  0.4705418E-002  0.4599171E+03  0.7546771E-02  0.1024805E+00
         21   -1    0    0  502  501  0.00000000000E+00  0.00000000000E+00  0.51504993224E+02  0.51504993224E+02  0.00000000000E+00 0. -1.
         21   -1    0    0  501  502 -0.00000000000E+00 -0.00000000000E+00 -0.10267147469E+04  0.10267147469E+04  0.00000000000E+00 0. -1.
      99926    2    1    2    0    0  0.00000000000E+00  0.00000000000E+00 -0.97520975369E+03  0.10782197401E+04  0.45991710593E+03 0.  0.
      99925    2    3    3    0    0  0.63335967573E+02 -0.74838041369E+02 -0.45810790733E+03  0.53724469004E+03  0.26297685257E+03 0.  0.
         25    1    4    4    0    0  0.29320845749E+02 -0.41802427466E+02 -0.15311315768E+03  0.20420162118E+03  0.12509000000E+03 0.  0.
         25    1    3    3    0    0 -0.63335967573E+02  0.74838041369E+02 -0.51710184636E+03  0.54097505010E+03  0.12509000000E+03 0.  0.
         25    1    4    4    0    0  0.34015121824E+02 -0.33035613903E+02 -0.30499474965E+03  0.33304306886E+03  0.12509000000E+03 0.  0.
<mgrwt>
<rscale>  2 0.45991711E+03</rscale>
<asrwt>0</asrwt>
<pdfrwt beam="1">  1       21 0.75742643E-02 0.45991711E+03</pdfrwt>
<pdfrwt beam="2">  1       21 0.15098745E+00 0.45991711E+03</pdfrwt>
<totfact> 0.34900252E+04</totfact>
</mgrwt>
</event>
<event>
 7    0  0.4705418E-002  0.4541397E+03  0.7546771E-02  0.1026495E+00
         21   -1    0    0  502  501  0.00000000000E+00  0.00000000000E+00  0.30952604270E+03  0.30952604270E+03  0.00000000000E+00 0. -1.
         21   -1    0    0  501  502 -0.00000000000E+00 -0.00000000000E+00 -0.16657954763E+03  0.16657954763E+03  0.00000000000E+00 0. -1.
      99926    2    1    2    0    0 -0.71054273576E-14  0.00000000000E+00  0.14294649507E+03  0.47610559033E+03  0.45413966210E+03 0.  0.
      99925    2    3    3    0    0  0.55206941174E+02  0.97114916821E+02  0.80459543286E+02  0.29713285312E+03  0.26331555380E+03 0.  0.
         25    1    4    4    0    0  0.15077316683E+02  0.81263275563E+02  0.18642263761E+02  0.15108304846E+03  0.12509000000E+03 0.  0.
         25    1    3    3    0    0 -0.55206941174E+02 -0.97114916821E+02  0.62486951781E+02  0.17897273721E+03  0.12509000000E+03 0.  0.
         25    1    4    4    0    0  0.40129624491E+02  0.15851641258E+02  0.61817279525E+02  0.14604980466E+03  0.12509000000E+03 0.  0.
<mgrwt>
<rscale>  2 0.45413966E+03</rscale>
<asrwt>0</asrwt>
<pdfrwt beam="1">  1       21 0.45518535E-01 0.45413966E+03</pdfrwt>
<pdfrwt beam="2">  1       21 0.24496992E-01 0.45413966E+03</pdfrwt>
<totfact> 0.67444025E+04</totfact>
</mgrwt>
</event>
<event>
 7    0  0.4705418E-002  0.4565607E+03  0.7546771E-02  0.1025783E+00
         21   -1    0    0  502  501  0.00000000000E+00  0.00000000000E+00  0.34984231931E+02  0.34984231931E+02  0.00000000000E+00 0. -1.
         21   -1    0    0  501  502 -0.00000000000E+00 -0.00000000000E+00 -0.14895827061E+04  0.14895827061E+04  0.00000000000E+00 0. -1.
      99926    2    1    2    0    0  0.00000000000E+00  0.13322676296E-14 -0.14545984742E+04  0.15245669381E+04  0.45656065040E+03 0.  0.
      99925    2    3    3    0    0 -0.73589834406E+02 -0.26318627303E+01 -0.12073611010E+04  0.12378681114E+04  0.26300996649E+03 0.  0.
         25    1    4    4    0    0 -0.87197836138E+01 -0.19846441789E+02 -0.67914291866E+03  0.69090703278E+03  0.12509000000E+03 0.  0.
         25    1    3    3    0    0  0.73589834406E+02  0.26318627303E+01 -0.24723737321E+03  0.28669882672E+03  0.12509000000E+03 0.  0.
         25    1    4    4    0    0 -0.64870050792E+02  0.17214579059E+02 -0.52821818235E+03  0.54696107859E+03  0.12509000000E+03 0.  0.
<mgrwt>
<rscale>  2 0.45656065E+03</rscale>
<asrwt>0</asrwt>
<pdfrwt beam="1">  1       21 0.51447397E-02 0.45656065E+03</pdfrwt>
<pdfrwt beam="2">  1       21 0.21905629E+00 0.45656065E+03</pdfrwt>
<totfact> 0.22904503E+04</totfact>
</mgrwt>
</event>
<event>
 7    0  0.4705418E-002  0.4118140E+03  0.7546771E-02  0.1039764E+00
         21   -1    0    0  502  501  0.00000000000E+00  0.00000000000E+00  0.18005835801E+03  0.18005835801E+03  0.00000000000E+00 0. -1.
         21   -1    0    0  501  502 -0.00000000000E+00 -0.00000000000E+00 -0.23546643369E+03  0.23546643369E+03  0.00000000000E+00 0. -1.
      99926    2    1    2    0    0  0.00000000000E+00  0.33306690739E-15 -0.55408075679E+02  0.41552479169E+03  0.41181403286E+03 0.  0.
      99925    2    3    3    0    0 -0.48780923890E+02  0.25490848555E+00  0.71849432390E+01  0.26738621592E+03  0.26280053566E+03 0.  0.
         25    1    4    4    0    0  0.13060387148E+02  0.11245725151E+02  0.15199326259E+02  0.12718320512E+03  0.12509000000E+03 0.  0.
         25    1    3    3    0    0  0.48780923890E+02 -0.25490848555E+00 -0.62593018918E+02  0.14813857577E+03  0.12509000000E+03 0.  0.
         25    1    4    4    0    0 -0.61841311038E+02 -0.10990816666E+02 -0.80143830196E+01  0.14020301080E+03  0.12509000000E+03 0.  0.
<mgrwt>
<rscale>  2 0.41181403E+03</rscale>
<asrwt>0</asrwt>
<pdfrwt beam="1">  1       21 0.26479170E-01 0.41181403E+03</pdfrwt>
<pdfrwt beam="2">  1       21 0.34627417E-01 0.41181403E+03</pdfrwt>
<totfact> 0.10258035E+05</totfact>
</mgrwt>
</event>
<event>
 7    0  0.4705418E-002  0.4538586E+03  0.7546771E-02  0.1026578E+00
         21   -1    0    0  502  501  0.00000000000E+00  0.00000000000E+00  0.45337561365E+02  0.45337561365E+02  0.00000000000E+00 0. -1.
         21   -1    0    0  501  502 -0.00000000000E+00 -0.00000000000E+00 -0.11358550132E+04  0.11358550132E+04  0.00000000000E+00 0. -1.
      99926    2    1    2    0    0  0.00000000000E+00  0.00000000000E+00 -0.10905174519E+04  0.11811925746E+04  0.45385855226E+03 0.  0.
      99925    2    3    3    0    0  0.60921690903E+02 -0.55802611509E+02 -0.88314242596E+03  0.92530726173E+03  0.26349117670E+03 0.  0.
         25    1    4    4    0    0  0.60215758157E+02 -0.39769355827E+02 -0.56282658457E+03  0.58105835472E+03  0.12509000000E+03 0.  0.
         25    1    3    3    0    0 -0.60921690903E+02  0.55802611509E+02 -0.20737502592E+03  0.25588531288E+03  0.12509000000E+03 0.  0.
         25    1    4    4    0    0  0.70593274599E+00 -0.16033255682E+02 -0.32031584140E+03  0.34424890701E+03  0.12509000000E+03 0.  0.
<mgrwt>
<rscale>  2 0.45385855E+03</rscale>
<asrwt>0</asrwt>
<pdfrwt beam="1">  1       21 0.66672888E-02 0.45385855E+03</pdfrwt>
<pdfrwt beam="2">  1       21 0.16703749E+00 0.45385855E+03</pdfrwt>
<totfact> 0.33050757E+04</totfact>
</mgrwt>
</event>
<event>
 7    0  0.4705418E-002  0.4537450E+03  0.7546771E-02  0.1026611E+00
         21   -1    0    0  502  501  0.00000000000E+00  0.00000000000E+00  0.14246700969E+03  0.14246700969E+03  0.00000000000E+00 0. -1.
         21   -1    0    0  501  502 -0.00000000000E+00 -0.00000000000E+00 -0.36128454316E+03  0.36128454316E+03  0.00000000000E+00 0. -1.
      99926    2    1    2    0    0  0.00000000000E+00  0.35527136788E-14 -0.21881753347E+03  0.50375155285E+03  0.45374498790E+03 0.  0.
      99925    2    3    3    0    0  0.10436572124E+03  0.28429208312E+02 -0.10578171706E+03  0.30343922785E+03  0.26303073904E+03 0.  0.
         25    1    4    4    0    0  0.26613386319E+02  0.10819388555E+02 -0.14244492252E+02  0.12913460094E+03  0.12509000000E+03 0.  0.
         25    1    3    3    0    0 -0.10436572124E+03 -0.28429208312E+02 -0.11303581641E+03  0.20031232500E+03  0.12509000000E+03 0.  0.
         25    1    4    4    0    0  0.77752334922E+02  0.17609819758E+02 -0.91537224805E+02  0.17430462691E+03  0.12509000000E+03 0.  0.
<mgrwt>
<rscale>  2 0.45374499E+03</rscale>
<asrwt>0</asrwt>
<pdfrwt beam="1">  1       21 0.20951031E-01 0.45374499E+03</pdfrwt>
<pdfrwt beam="2">  1       21 0.53130080E-01 0.45374499E+03</pdfrwt>
<totfact> 0.65659535E+04</totfact>
</mgrwt>
</event>
<event>
 7    0  0.4705418E-002  0.4523185E+03  0.7546771E-02  0.1027033E+00
         21   -1    0    0  502  501  0.00000000000E+00  0.00000000000E+00  0.18620743340E+03  0.18620743340E+03  0.00000000000E+00 0. -1.
         21   -1    0    0  501  502 -0.00000000000E+00 -0.00000000000E+00 -0.27468299866E+03  0.27468299866E+03  0.00000000000E+00 0. -1.
      99926    2    1    2    0    0  0.00000000000E+00  0.00000000000E+00 -0.88475565259E+02  0.46089043206E+03  0.45231854342E+03 0.  0.
      99925    2    3    3    0    0 -0.10531778815E+03  0.96821808134E+01 -0.88955242240E+02  0.29708164318E+03  0.26298077204E+03 0.  0.
         25    1    3    3    0    0  0.10531778815E+03 -0.96821808134E+01  0.47967698093E+00  0.16380878888E+03  0.12509000000E+03 0.  0.
         25    1    4    4    0    0 -0.62454892191E+02 -0.11326369194E+02 -0.83154417081E+02  0.16306767116E+03  0.12509000000E+03 0.  0.
         25    1    4    4    0    0 -0.42862895956E+02  0.21008550007E+02 -0.58008251595E+01  0.13401397202E+03  0.12509000000E+03 0.  0.
<mgrwt>
<rscale>  2 0.45231854E+03</rscale>
<asrwt>0</asrwt>
<pdfrwt beam="1">  1       21 0.27383446E-01 0.45231854E+03</pdfrwt>
<pdfrwt beam="2">  1       21 0.40394558E-01 0.45231854E+03</pdfrwt>
<totfact> 0.69587878E+04</totfact>
</mgrwt>
</event>
<event>
 7    0  0.4705418E-002  0.4285658E+03  0.7546771E-02  0.1034314E+00
         21   -1    0    0  502  501  0.00000000000E+00  0.00000000000E+00  0.10796102856E+03  0.10796102856E+03  0.00000000000E+00 0. -1.
         21   -1    0    0  501  502 -0.00000000000E+00 -0.00000000000E+00 -0.42531228122E+03  0.42531228122E+03  0.00000000000E+00 0. -1.
      99926    2    1    2    0    0 -0.17763568394E-14  0.00000000000E+00 -0.31735125266E+03  0.53327330978E+03  0.42856575383E+03 0.  0.
      99925    2    3    3    0    0 -0.13440862223E+02 -0.69853397264E+02 -0.14460510025E+03  0.30844249525E+03  0.26299426604E+03 0.  0.
         25    1    4    4    0    0  0.99104722385E+01 -0.47838973279E+02 -0.34293981784E+02  0.13860147947E+03  0.12509000000E+03 0.  0.
         25    1    3    3    0    0  0.13440862223E+02  0.69853397264E+02 -0.17274615241E+03  0.22483081453E+03  0.12509000000E+03 0.  0.
         25    1    4    4    0    0 -0.23351334462E+02 -0.22014423985E+02 -0.11031111847E+03  0.16984101578E+03  0.12509000000E+03 0.  0.
<mgrwt>
<rscale>  2 0.42856575E+03</rscale>
<asrwt>0</asrwt>
<pdfrwt beam="1">  1       21 0.15876622E-01 0.42856575E+03</pdfrwt>
<pdfrwt beam="2">  1       21 0.62545924E-01 0.42856575E+03</pdfrwt>
<totfact> 0.78085392E+04</totfact>
</mgrwt>
</event>
<event>
 7    0  0.4705418E-002  0.4593365E+03  0.7546771E-02  0.1024974E+00
         21   -1    0    0  502  501  0.00000000000E+00  0.00000000000E+00  0.27807416439E+03  0.27807416439E+03  0.00000000000E+00 0.  1.
         21   -1    0    0  501  502 -0.00000000000E+00 -0.00000000000E+00 -0.18968864009E+03  0.18968864009E+03  0.00000000000E+00 0.  1.
      99926    2    1    2    0    0  0.35527136788E-14 -0.14210854715E-13  0.88385524301E+02  0.46776280448E+03  0.45933652189E+03 0.  0.
      99925    2    3    3    0    0 -0.27291008635E+02  0.75861011001E+02 -0.31256250449E+02  0.27681423939E+03  0.26296288292E+03 0.  0.
         25    1    3    3    0    0  0.27291008635E+02 -0.75861011001E+02  0.11964177475E+03  0.19094856508E+03  0.12509000000E+03 0.  0.
         25    1    4    4    0    0 -0.52486751358E+02  0.51524938712E+02 -0.14423756655E+02  0.14582603071E+03  0.12509000000E+03 0.  0.
         25    1    4    4    0    0  0.25195742723E+02  0.24336072289E+02 -0.16832493794E+02  0.13098820868E+03  0.12509000000E+03 0.  0.
<mgrwt>
<rscale>  2 0.45933652E+03</rscale>
<asrwt>0</asrwt>
<pdfrwt beam="1">  1       21 0.40893259E-01 0.45933652E+03</pdfrwt>
<pdfrwt beam="2">  1       21 0.27895388E-01 0.45933652E+03</pdfrwt>
<totfact> 0.65324516E+04</totfact>
</mgrwt>
</event>
<event>
 7    0  0.4705418E-002  0.4626403E+03  0.7546771E-02  0.1024018E+00
         21   -1    0    0  502  501  0.00000000000E+00  0.00000000000E+00  0.10423312834E+04  0.10423312834E+04  0.00000000000E+00 0. -1.
         21   -1    0    0  501  502 -0.00000000000E+00 -0.00000000000E+00 -0.51335893462E+02  0.51335893462E+02  0.00000000000E+00 0. -1.
      99926    2    1    2    0    0  0.14210854715E-13 -0.14210854715E-13  0.99099538991E+03  0.10936671768E+04  0.46264028236E+03 0.  0.
      99925    2    3    3    0    0 -0.78836944483E+02  0.89441590707E+02  0.65541123586E+03  0.71620288115E+03  0.26299737055E+03 0.  0.
         25    1    3    3    0    0  0.78836944483E+02 -0.89441590707E+02  0.33558415405E+03  0.37746429568E+03  0.12509000000E+03 0.  0.
         25    1    4    4    0    0 -0.34887303149E+02  0.44324815009E+02  0.42461917018E+03  0.44624069842E+03  0.12509000000E+03 0.  0.
         25    1    4    4    0    0 -0.43949641334E+02  0.45116775698E+02  0.23079206568E+03  0.26996218273E+03  0.12509000000E+03 0.  0.
<mgrwt>
<rscale>  2 0.46264028E+03</rscale>
<asrwt>0</asrwt>
<pdfrwt beam="1">  1       21 0.15328400E+00 0.46264028E+03</pdfrwt>
<pdfrwt beam="2">  1       21 0.75493968E-02 0.46264028E+03</pdfrwt>
<totfact> 0.33662882E+04</totfact>
</mgrwt>
</event>
<event>
 7    0  0.4705418E-002  0.4507569E+03  0.7546771E-02  0.1027497E+00
         21   -1    0    0  502  501  0.00000000000E+00  0.00000000000E+00  0.13906472591E+04  0.13906472591E+04  0.00000000000E+00 0. -1.
         21   -1    0    0  501  502 -0.00000000000E+00 -0.00000000000E+00 -0.36526470923E+02  0.36526470923E+02  0.00000000000E+00 0. -1.
      99926    2    1    2    0    0  0.00000000000E+00  0.00000000000E+00  0.13541207881E+04  0.14271737300E+04  0.45075685984E+03 0.  0.
      99925    2    3    3    0    0 -0.40674964684E+02  0.92945105551E+02  0.72860264291E+03  0.78125291169E+03  0.26306093471E+03 0.  0.
         25    1    4    4    0    0  0.15012167480E+01  0.27193881882E+02  0.42261062951E+03  0.44157560297E+03  0.12509000000E+03 0.  0.
         25    1    4    4    0    0 -0.42176181432E+02  0.65751223670E+02  0.30599201340E+03  0.33967730872E+03  0.12509000000E+03 0.  0.
         25    1    3    3    0    0  0.40674964684E+02 -0.92945105551E+02  0.62551814522E+03  0.64592081829E+03  0.12509000000E+03 0.  0.
<mgrwt>
<rscale>  2 0.45075686E+03</rscale>
<asrwt>0</asrwt>
<pdfrwt beam="1">  1       21 0.20450691E+00 0.45075686E+03</pdfrwt>
<pdfrwt beam="2">  1       21 0.53715408E-02 0.45075686E+03</pdfrwt>
<totfact> 0.26479141E+04</totfact>
</mgrwt>
</event>
<event>
 7    0  0.4705418E-002  0.4537297E+03  0.7546771E-02  0.1026616E+00
         21   -1    0    0  502  501  0.00000000000E+00  0.00000000000E+00  0.90446610388E+02  0.90446610388E+02  0.00000000000E+00 0.  1.
         21   -1    0    0  501  502 -0.00000000000E+00 -0.00000000000E+00 -0.56903906111E+03  0.56903906111E+03  0.00000000000E+00 0.  1.
      99926    2    1    2    0    0  0.00000000000E+00  0.00000000000E+00 -0.47859245072E+03  0.65948567150E+03  0.45372967395E+03 0.  0.
      99925    2    3    3    0    0 -0.14847471448E+02 -0.42829778275E+02 -0.15254170597E+03  0.30733310007E+03  0.26292551230E+03 0.  0.
         25    1    4    4    0    0  0.15193408567E+02  0.10573401261E+02 -0.86295459481E+02  0.15309164218E+03  0.12509000000E+03 0.  0.
         25    1    4    4    0    0 -0.30040880015E+02 -0.53403179537E+02 -0.66246246493E+02  0.15424145789E+03  0.12509000000E+03 0.  0.
         25    1    3    3    0    0  0.14847471448E+02  0.42829778275E+02 -0.32605074474E+03  0.35215257143E+03  0.12509000000E+03 0.  0.
<mgrwt>
<rscale>  2 0.45372967E+03</rscale>
<asrwt>0</asrwt>
<pdfrwt beam="1">  1       21 0.13300972E-01 0.45372967E+03</pdfrwt>
<pdfrwt beam="2">  1       21 0.83682213E-01 0.45372967E+03</pdfrwt>
<totfact> 0.55713946E+04</totfact>
</mgrwt>
</event>
<event>
 7    0  0.4705418E-002  0.4523880E+03  0.7546771E-02  0.1027012E+00
         21   -1    0    0  502  501  0.00000000000E+00  0.00000000000E+00  0.17416288080E+03  0.17416288080E+03  0.00000000000E+00 0.  1.
         21   -1    0    0  501  502 -0.00000000000E+00 -0.00000000000E+00 -0.29376937016E+03  0.29376937016E+03  0.00000000000E+00 0.  1.
      99926    2    1    2    0    0  0.00000000000E+00  0.00000000000E+00 -0.11960648936E+03  0.46793225096E+03  0.45238797419E+03 0.  0.
      99925    2    3    3    0    0 -0.71205467923E+02  0.60339808399E+02 -0.13727525342E+03  0.31086282535E+03  0.26283091493E+03 0.  0.
         25    1    4    4    0    0 -0.99436540727E+01  0.21924227005E+01 -0.82992932909E+02  0.15046267971E+03  0.12509000000E+03 0.  0.
         25    1    4    4    0    0 -0.61261813850E+02  0.58147385699E+02 -0.54282320512E+02  0.16040014564E+03  0.12509000000E+03 0.  0.
         25    1    3    3    0    0  0.71205467923E+02 -0.60339808399E+02  0.17668764058E+02  0.15706942562E+03  0.12509000000E+03 0.  0.
<mgrwt>
<rscale>  2 0.45238797E+03</rscale>
<asrwt>0</asrwt>
<pdfrwt beam="1">  1       21 0.25612189E-01 0.45238797E+03</pdfrwt>
<pdfrwt beam="2">  1       21 0.43201377E-01 0.45238797E+03</pdfrwt>
<totfact> 0.69008706E+04</totfact>
</mgrwt>
</event>
<event>
 7    0  0.4705418E-002  0.4602112E+03  0.7546771E-02  0.1024720E+00
         21   -1    0    0  502  501  0.00000000000E+00  0.00000000000E+00  0.14545917235E+04  0.14545917235E+04  0.00000000000E+00 0. -1.
         21   -1    0    0  501  502 -0.00000000000E+00 -0.00000000000E+00 -0.36400994223E+02  0.36400994223E+02  0.00000000000E+00 0. -1.
      99926    2    1    2    0    0  0.00000000000E+00  0.00000000000E+00  0.14181907293E+04  0.14909927177E+04  0.46021119032E+03 0.  0.
      99925    2    3    3    0    0  0.17419386797E+02 -0.88626576701E+02  0.64202891647E+03  0.69964401273E+03  0.26294963364E+03 0.  0.
         25    1    4    4    0    0  0.41787930241E+02 -0.32429298463E+02  0.26636861070E+03  0.29899437349E+03  0.12509000000E+03 0.  0.
         25    1    3    3    0    0 -0.17419386797E+02  0.88626576701E+02  0.77616181280E+03  0.79134870499E+03  0.12509000000E+03 0.  0.
         25    1    4    4    0    0 -0.24368543444E+02 -0.56197278237E+02  0.37566030576E+03  0.40064963923E+03  0.12509000000E+03 0.  0.
<mgrwt>
<rscale>  2 0.46021119E+03</rscale>
<asrwt>0</asrwt>
<pdfrwt beam="1">  1       21 0.21391051E+00 0.46021119E+03</pdfrwt>
<pdfrwt beam="2">  1       21 0.53530884E-02 0.46021119E+03</pdfrwt>
<totfact> 0.23053386E+04</totfact>
</mgrwt>
</event>
<event>
 7    0  0.4705418E-002  0.4548170E+03  0.7546771E-02  0.1026295E+00
         21   -1    0    0  502  501  0.00000000000E+00  0.00000000000E+00  0.65644722852E+02  0.65644722852E+02  0.00000000000E+00 0. -1.
         21   -1    0    0  501  502 -0.00000000000E+00 -0.00000000000E+00 -0.78779571654E+03  0.78779571654E+03  0.00000000000E+00 0. -1.
      99926    2    1    2    0    0  0.00000000000E+00  0.00000000000E+00 -0.72215099369E+03  0.85344043939E+03  0.45481702464E+03 0.  0.
      99925    2    3    3    0    0 -0.61204631644E+02 -0.11003351945E+02 -0.63136633574E+03  0.68683778963E+03  0.26316462276E+03 0.  0.
         25    1    4    4    0    0 -0.69921366235E+02 -0.81859243394E+00 -0.36955227311E+03  0.39636606592E+03  0.12509000000E+03 0.  0.
         25    1    4    4    0    0  0.87167345909E+01 -0.10184759511E+02 -0.26181406263E+03  0.29047172371E+03  0.12509000000E+03 0.  0.
         25    1    3    3    0    0  0.61204631644E+02  0.11003351945E+02 -0.90784657954E+02  0.16660264976E+03  0.12509000000E+03 0.  0.
<mgrwt>
<rscale>  2 0.45481702E+03</rscale>
<asrwt>0</asrwt>
<pdfrwt beam="1">  1       21 0.96536371E-02 0.45481702E+03</pdfrwt>
<pdfrwt beam="2">  1       21 0.11585229E+00 0.45481702E+03</pdfrwt>
<totfact> 0.45350922E+04</totfact>
</mgrwt>
</event>
<event>
 7    0  0.4705418E-002  0.4534318E+03  0.7546771E-02  0.1026704E+00
         21   -1    0    0  502  501  0.00000000000E+00  0.00000000000E+00  0.19697660106E+03  0.19697660106E+03  0.00000000000E+00 0. -1.
         21   -1    0    0  501  502 -0.00000000000E+00 -0.00000000000E+00 -0.26094520932E+03  0.26094520932E+03  0.00000000000E+00 0. -1.
      99926    2    1    2    0    0  0.00000000000E+00  0.00000000000E+00 -0.63968608262E+02  0.45792181038E+03  0.45343180477E+03 0.  0.
      99925    2    3    3    0    0  0.73003959387E+02  0.50582042826E+02  0.28066603482E+02  0.27901929658E+03  0.26301314129E+03 0.  0.
         25    1    3    3    0    0 -0.73003959387E+02 -0.50582042826E+02 -0.92035211744E+02  0.17890251380E+03  0.12509000000E+03 0.  0.
         25    1    4    4    0    0  0.73369735750E+02  0.43049814113E+02  0.27194076538E+02  0.15369915588E+03  0.12509000000E+03 0.  0.
         25    1    4    4    0    0 -0.36577636262E+00  0.75322287130E+01  0.87252694407E+00  0.12532014070E+03  0.12509000000E+03 0.  0.
<mgrwt>
<rscale>  2 0.45343180E+03</rscale>
<asrwt>0</asrwt>
<pdfrwt beam="1">  1       21 0.28967147E-01 0.45343180E+03</pdfrwt>
<pdfrwt beam="2">  1       21 0.38374295E-01 0.45343180E+03</pdfrwt>
<totfact> 0.69193585E+04</totfact>
</mgrwt>
</event>
<event>
 7    0  0.4705418E-002  0.4627609E+03  0.7546771E-02  0.1023984E+00
         21   -1    0    0  502  501  0.00000000000E+00  0.00000000000E+00  0.35642792517E+03  0.35642792517E+03  0.00000000000E+00 0. -1.
         21   -1    0    0  501  502 -0.00000000000E+00 -0.00000000000E+00 -0.15020402891E+03  0.15020402891E+03  0.00000000000E+00 0. -1.
      99926    2    1    2    0    0  0.00000000000E+00  0.00000000000E+00  0.20622389626E+03  0.50663195409E+03  0.46276089021E+03 0.  0.
      99925    2    3    3    0    0 -0.35759219562E+02  0.84649722837E+02  0.21391773134E+03  0.35122603220E+03  0.26297268404E+03 0.  0.
         25    1    4    4    0    0 -0.14229857335E+02  0.62158343202E+01  0.12506355917E+03  0.17756555794E+03  0.12509000000E+03 0.  0.
         25    1    3    3    0    0  0.35759219562E+02 -0.84649722837E+02 -0.76938350779E+01  0.15540592189E+03  0.12509000000E+03 0.  0.
         25    1    4    4    0    0 -0.21529362227E+02  0.78433888517E+02  0.88854172172E+02  0.17366047425E+03  0.12509000000E+03 0.  0.
<mgrwt>
<rscale>  2 0.46276089E+03</rscale>
<asrwt>0</asrwt>
<pdfrwt beam="1">  1       21 0.52415872E-01 0.46276089E+03</pdfrwt>
<pdfrwt beam="2">  1       21 0.22088828E-01 0.46276089E+03</pdfrwt>
<totfact> 0.60964137E+04</totfact>
</mgrwt>
</event>
<event>
 7    0  0.4705418E-002  0.4581504E+03  0.7546771E-02  0.1025319E+00
         21   -1    0    0  502  501  0.00000000000E+00  0.00000000000E+00  0.29738043685E+03  0.29738043685E+03  0.00000000000E+00 0. -1.
         21   -1    0    0  501  502 -0.00000000000E+00 -0.00000000000E+00 -0.17645897677E+03  0.17645897677E+03  0.00000000000E+00 0. -1.
      99926    2    1    2    0    0  0.71054273576E-14 -0.14210854715E-13  0.12092146008E+03  0.47383941361E+03  0.45815040149E+03 0.  0.
      99925    2    3    3    0    0 -0.54067070317E+02  0.98020597385E+02  0.43608179295E+02  0.28902562330E+03  0.26287421330E+03 0.  0.
         25    1    4    4    0    0 -0.24054258141E+02  0.10744770922E+02  0.99236090754E+00  0.12783798464E+03  0.12509000000E+03 0.  0.
         25    1    4    4    0    0 -0.30012812176E+02  0.87275826463E+02  0.42615818387E+02  0.16118763866E+03  0.12509000000E+03 0.  0.
         25    1    3    3    0    0  0.54067070317E+02 -0.98020597385E+02  0.77313280785E+02  0.18481379031E+03  0.12509000000E+03 0.  0.
<mgrwt>
<rscale>  2 0.45815040E+03</rscale>
<asrwt>0</asrwt>
<pdfrwt beam="1">  1       21 0.43732417E-01 0.45815040E+03</pdfrwt>
<pdfrwt beam="2">  1       21 0.25949849E-01 0.45815040E+03</pdfrwt>
<totfact> 0.65498800E+04</totfact>
</mgrwt>
</event>
<event>
 7    0  0.4705418E-002  0.4545349E+03  0.7546771E-02  0.1026378E+00
         21   -1    0    0  502  501  0.00000000000E+00  0.00000000000E+00  0.38880274693E+03  0.38880274693E+03  0.00000000000E+00 0.  1.
         21   -1    0    0  501  502 -0.00000000000E+00 -0.00000000000E+00 -0.13284500700E+03  0.13284500700E+03  0.00000000000E+00 0.  1.
      99926    2    1    2    0    0  0.00000000000E+00 -0.14210854715E-13  0.25595773993E+03  0.52164775393E+03  0.45453494315E+03 0.  0.
      99925    2    3    3    0    0 -0.35239248207E+02 -0.10022969946E+03  0.11777152906E+03  0.30710001041E+03  0.26296860283E+03 0.  0.
         25    1    3    3    0    0  0.35239248207E+02  0.10022969946E+03  0.13818621088E+03  0.21454774351E+03  0.12509000000E+03 0.  0.
         25    1    4    4    0    0 -0.53571113898E+02 -0.72471046745E+02  0.65235888185E+02  0.16740712669E+03  0.12509000000E+03 0.  0.
         25    1    4    4    0    0  0.18331865691E+02 -0.27758652718E+02  0.52535640872E+02  0.13969288372E+03  0.12509000000E+03 0.  0.
<mgrwt>
<rscale>  2 0.45453494E+03</rscale>
<asrwt>0</asrwt>
<pdfrwt beam="1">  1       21 0.57176874E-01 0.45453494E+03</pdfrwt>
<pdfrwt beam="2">  1       21 0.19536031E-01 0.45453494E+03</pdfrwt>
<totfact> 0.64010960E+04</totfact>
</mgrwt>
</event>
<event>
 7    0  0.4705418E-002  0.4414208E+03  0.7546771E-02  0.1030312E+00
         21   -1    0    0  502  501  0.00000000000E+00  0.00000000000E+00  0.23789376620E+02  0.23789376620E+02  0.00000000000E+00 0. -1.
         21   -1    0    0  501  502 -0.00000000000E+00 -0.00000000000E+00 -0.20476819359E+04  0.20476819359E+04  0.00000000000E+00 0. -1.
      99926    2    1    2    0    0 -0.14210854715E-13  0.00000000000E+00 -0.20238925592E+04  0.20714713125E+04  0.44142078234E+03 0.  0.
      99925    2    3    3    0    0 -0.76908439960E+02 -0.41393629136E+02 -0.10651042398E+04  0.11006207111E+04  0.26323101512E+03 0.  0.
         25    1    3    3    0    0  0.76908439960E+02  0.41393629136E+02 -0.95878831943E+03  0.97085060140E+03  0.12509000000E+03 0.  0.
         25    1    4    4    0    0 -0.87613994537E+01  0.10229217886E+02 -0.47736444349E+03  0.49366559433E+03  0.12509000000E+03 0.  0.
         25    1    4    4    0    0 -0.68147040506E+02 -0.51622847022E+02 -0.58773979633E+03  0.60695511675E+03  0.12509000000E+03 0.  0.
<mgrwt>
<rscale>  2 0.44142078E+03</rscale>
<asrwt>0</asrwt>
<pdfrwt beam="1">  1       21 0.34984365E-02 0.44142078E+03</pdfrwt>
<pdfrwt beam="2">  1       21 0.30112980E+00 0.44142078E+03</pdfrwt>
<totfact> 0.13996381E+04</totfact>
</mgrwt>
</event>
<event>
 7    0  0.4705418E-002  0.4555004E+03  0.7546771E-02  0.1026094E+00
         21   -1    0    0  502  501  0.00000000000E+00  0.00000000000E+00  0.30066317686E+03  0.30066317686E+03  0.00000000000E+00 0.  1.
         21   -1    0    0  501  502 -0.00000000000E+00 -0.00000000000E+00 -0.17251916606E+03  0.17251916606E+03  0.00000000000E+00 0.  1.
      99926    2    1    2    0    0  0.00000000000E+00 -0.71054273576E-14  0.12814401080E+03  0.47318234293E+03  0.45550043046E+03 0.  0.
      99925    2    3    3    0    0 -0.70727192193E+02 -0.62496436045E+02  0.14643621086E+03  0.31541589238E+03  0.26293626810E+03 0.  0.
         25    1    4    4    0    0 -0.32820306369E+02  0.10321748838E+02  0.68954306822E+02  0.14692146044E+03  0.12509000000E+03 0.  0.
         25    1    4    4    0    0 -0.37906885824E+02 -0.72818184882E+02  0.77481904036E+02  0.16849443194E+03  0.12509000000E+03 0.  0.
         25    1    3    3    0    0  0.70727192193E+02  0.62496436045E+02 -0.18292200054E+02  0.15776645054E+03  0.12509000000E+03 0.  0.
<mgrwt>
<rscale>  2 0.45550043E+03</rscale>
<asrwt>0</asrwt>
<pdfrwt beam="1">  1       21 0.44215173E-01 0.45550043E+03</pdfrwt>
<pdfrwt beam="2">  1       21 0.25370466E-01 0.45550043E+03</pdfrwt>
<totfact> 0.66933686E+04</totfact>
</mgrwt>
</event>
<event>
 7    0  0.4705418E-002  0.4288667E+03  0.7546771E-02  0.1034219E+00
         21   -1    0    0  502  501  0.00000000000E+00  0.00000000000E+00  0.33390189555E+03  0.33390189555E+03  0.00000000000E+00 0. -1.
         21   -1    0    0  501  502 -0.00000000000E+00 -0.00000000000E+00 -0.13771011830E+03  0.13771011830E+03  0.00000000000E+00 0. -1.
      99926    2    1    2    0    0  0.13322676296E-14  0.00000000000E+00  0.19619177725E+03  0.47161201385E+03  0.42886673704E+03 0.  0.
      99925    2    3    3    0    0  0.58112893368E+00  0.86362817864E+02  0.12980276851E+03  0.30573892199E+03  0.26299934541E+03 0.  0.
         25    1    3    3    0    0 -0.58112893368E+00 -0.86362817864E+02  0.66389008748E+02  0.16587309186E+03  0.12509000000E+03 0.  0.
         25    1    4    4    0    0  0.17351603967E+02  0.30100167880E+02  0.10124605134E+03  0.16463708355E+03  0.12509000000E+03 0.  0.
         25    1    4    4    0    0 -0.16770475033E+02  0.56262649984E+02  0.28556717166E+02  0.14110183844E+03  0.12509000000E+03 0.  0.
<mgrwt>
<rscale>  2 0.42886674E+03</rscale>
<asrwt>0</asrwt>
<pdfrwt beam="1">  1       21 0.49103220E-01 0.42886674E+03</pdfrwt>
<pdfrwt beam="2">  1       21 0.20251488E-01 0.42886674E+03</pdfrwt>
<totfact> 0.83301027E+04</totfact>
</mgrwt>
</event>
<event>
 7    0  0.4705418E-002  0.4409474E+03  0.7546771E-02  0.1030457E+00
         21   -1    0    0  502  501  0.00000000000E+00  0.00000000000E+00  0.62155030001E+02  0.62155030001E+02  0.00000000000E+00 0. -1.
         21   -1    0    0  501  502 -0.00000000000E+00 -0.00000000000E+00 -0.78205517442E+03  0.78205517442E+03  0.00000000000E+00 0. -1.
      99926    2    1    2    0    0  0.00000000000E+00  0.71054273576E-14 -0.71990014442E+03  0.84421020442E+03  0.44094744734E+03 0.  0.
      99925    2    3    3    0    0 -0.74944485836E+02 -0.46736625726E+02 -0.54517657727E+03  0.61188108192E+03  0.26340077805E+03 0.  0.
         25    1    4    4    0    0 -0.20744224743E+02 -0.61023640843E+02 -0.27231487759E+03  0.30652423764E+03  0.12509000000E+03 0.  0.
         25    1    3    3    0    0  0.74944485836E+02  0.46736625726E+02 -0.17472356716E+03  0.23232912250E+03  0.12509000000E+03 0.  0.
         25    1    4    4    0    0 -0.54200261093E+02  0.14287015117E+02 -0.27286169968E+03  0.30535684429E+03  0.12509000000E+03 0.  0.
<mgrwt>
<rscale>  2 0.44094745E+03</rscale>
<asrwt>0</asrwt>
<pdfrwt beam="1">  1       21 0.91404462E-02 0.44094745E+03</pdfrwt>
<pdfrwt beam="2">  1       21 0.11500811E+00 0.44094745E+03</pdfrwt>
<totfact> 0.51104596E+04</totfact>
</mgrwt>
</event>
<event>
 7    0  0.4705418E-002  0.4527944E+03  0.7546771E-02  0.1026892E+00
         21   -1    0    0  502  501  0.00000000000E+00  0.00000000000E+00  0.33423262660E+04  0.33423262660E+04  0.00000000000E+00 0. -1.
         21   -1    0    0  501  502 -0.00000000000E+00 -0.00000000000E+00 -0.15335331605E+02  0.15335331605E+02  0.00000000000E+00 0. -1.
      99926    2    1    2    0    0  0.14210854715E-13  0.71054273576E-14  0.33269909344E+04  0.33576615976E+04  0.45279435342E+03 0.  0.
      99925    2    3    3    0    0  0.73097075849E+02  0.42885642285E+02  0.15659382720E+04  0.15901389390E+04  0.26305287080E+03 0.  0.
         25    1    3    3    0    0 -0.73097075849E+02 -0.42885642285E+02  0.17610526624E+04  0.17675226586E+04  0.12509000000E+03 0.  0.
         25    1    4    4    0    0  0.48207088269E+02 -0.11641954359E+02  0.65268348331E+03  0.66641030600E+03  0.12509000000E+03 0.  0.
         25    1    4    4    0    0  0.24889987580E+02  0.54527596644E+02  0.91325478869E+03  0.92372863301E+03  0.12509000000E+03 0.  0.
<mgrwt>
<rscale>  2 0.45279435E+03</rscale>
<asrwt>0</asrwt>
<pdfrwt beam="1">  1       21 0.49151806E+00 0.45279435E+03</pdfrwt>
<pdfrwt beam="2">  1       21 0.22551981E-02 0.45279435E+03</pdfrwt>
<totfact> 0.17281979E+03</totfact>
</mgrwt>
</event>
<event>
 7    0  0.4705418E-002  0.4549834E+03  0.7546771E-02  0.1026246E+00
         21   -1    0    0  502  501  0.00000000000E+00  0.00000000000E+00  0.14897406029E+04  0.14897406029E+04  0.00000000000E+00 0.  1.
         21   -1    0    0  501  502 -0.00000000000E+00 -0.00000000000E+00 -0.34739255791E+02  0.34739255791E+02  0.00000000000E+00 0.  1.
      99926    2    1    2    0    0  0.00000000000E+00  0.00000000000E+00  0.14550013471E+04  0.15244798587E+04  0.45498342768E+03 0.  0.
      99925    2    3    3    0    0 -0.33966012665E+02  0.80194201367E+02  0.11564309725E+04  0.11892537013E+04  0.26345202938E+03 0.  0.
         25    1    4    4    0    0 -0.49805252511E+02  0.66936424269E+02  0.59846418104E+03  0.61706396116E+03  0.12509000000E+03 0.  0.
         25    1    3    3    0    0  0.33966012665E+02 -0.80194201367E+02  0.29857037457E+03  0.33522615742E+03  0.12509000000E+03 0.  0.
         25    1    4    4    0    0  0.15839239846E+02  0.13257777098E+02  0.55796679149E+03  0.57218974011E+03  0.12509000000E+03 0.  0.
<mgrwt>
<rscale>  2 0.45498343E+03</rscale>
<asrwt>0</asrwt>
<pdfrwt beam="1">  1       21 0.21907946E+00 0.45498343E+03</pdfrwt>
<pdfrwt beam="2">  1       21 0.51087151E-02 0.45498343E+03</pdfrwt>
<totfact> 0.23188476E+04</totfact>
</mgrwt>
</event>
<event>
 7    0  0.4705418E-002  0.4534207E+03  0.7546771E-02  0.1026707E+00
         21   -1    0    0  502  501  0.00000000000E+00  0.00000000000E+00  0.14132625468E+03  0.14132625468E+03  0.00000000000E+00 0. -1.
         21   -1    0    0  501  502 -0.00000000000E+00 -0.00000000000E+00 -0.36368028359E+03  0.36368028359E+03  0.00000000000E+00 0. -1.
      99926    2    1    2    0    0  0.00000000000E+00  0.00000000000E+00 -0.22235402891E+03  0.50500653827E+03  0.45342065406E+03 0.  0.
      99925    2    3    3    0    0  0.76930736805E+02  0.19483730780E+02 -0.22715555488E+03  0.35678873643E+03  0.26343994060E+03 0.  0.
         25    1    4    4    0    0 -0.15046923860E+01 -0.37223638073E+01 -0.92645842212E+02  0.15571409785E+03  0.12509000000E+03 0.  0.
         25    1    4    4    0    0  0.78435429191E+02  0.23206094587E+02 -0.13450971266E+03  0.20107463858E+03  0.12509000000E+03 0.  0.
         25    1    3    3    0    0 -0.76930736805E+02 -0.19483730780E+02  0.48015259708E+01  0.14821780184E+03  0.12509000000E+03 0.  0.
<mgrwt>
<rscale>  2 0.45342065E+03</rscale>
<asrwt>0</asrwt>
<pdfrwt beam="1">  1       21 0.20783273E-01 0.45342065E+03</pdfrwt>
<pdfrwt beam="2">  1       21 0.53482394E-01 0.45342065E+03</pdfrwt>
<totfact> 0.65740581E+04</totfact>
</mgrwt>
</event>
<event>
 7    0  0.4705418E-002  0.4523801E+03  0.7546771E-02  0.1027015E+00
         21   -1    0    0  502  501  0.00000000000E+00  0.00000000000E+00  0.21723846986E+03  0.21723846986E+03  0.00000000000E+00 0.  1.
         21   -1    0    0  501  502 -0.00000000000E+00 -0.00000000000E+00 -0.23551052926E+03  0.23551052926E+03  0.00000000000E+00 0.  1.
      99926    2    1    2    0    0  0.88817841970E-15 -0.14210854715E-13 -0.18272059396E+02  0.45274899913E+03  0.45238013667E+03 0.  0.
      99925    2    3    3    0    0  0.54815144952E+01 -0.10836607388E+03 -0.32986088768E+02  0.28650440905E+03  0.26310348037E+03 0.  0.
         25    1    4    4    0    0  0.33280965069E+02 -0.70996333167E+02 -0.39628788816E+02  0.15285957923E+03  0.12509000000E+03 0.  0.
         25    1    4    4    0    0 -0.27799450574E+02 -0.37369740715E+02  0.66427000479E+01  0.13364482982E+03  0.12509000000E+03 0.  0.
         25    1    3    3    0    0 -0.54815144952E+01  0.10836607388E+03  0.14714029372E+02  0.16624459008E+03  0.12509000000E+03 0.  0.
<mgrwt>
<rscale>  2 0.45238014E+03</rscale>
<asrwt>0</asrwt>
<pdfrwt beam="1">  1       21 0.31946834E-01 0.45238014E+03</pdfrwt>
<pdfrwt beam="2">  1       21 0.34633901E-01 0.45238014E+03</pdfrwt>
<totfact> 0.70166332E+04</totfact>
</mgrwt>
</event>
<event>
 7    0  0.4705418E-002  0.4423053E+03  0.7546771E-02  0.1030042E+00
         21   -1    0    0  502  501  0.00000000000E+00  0.00000000000E+00  0.51517187003E+03  0.51517187003E+03  0.00000000000E+00 0. -1.
         21   -1    0    0  501  502 -0.00000000000E+00 -0.00000000000E+00 -0.94936274707E+02  0.94936274707E+02  0.00000000000E+00 0. -1.
      99926    2    1    2    0    0  0.00000000000E+00  0.00000000000E+00  0.42023559532E+03  0.61010814474E+03  0.44230531615E+03 0.  0.
      99925    2    3    3    0    0  0.88173953600E+02  0.99214160603E+01  0.33343816163E+03  0.43388560592E+03  0.26306392913E+03 0.  0.
         25    1    4    4    0    0  0.33098120213E+01 -0.80890633862E+01  0.15011635260E+03  0.19559860741E+03  0.12509000000E+03 0.  0.
         25    1    4    4    0    0  0.84864141578E+02  0.18010479446E+02  0.18332180902E+03  0.23828699851E+03  0.12509000000E+03 0.  0.
         25    1    3    3    0    0 -0.88173953600E+02 -0.99214160603E+01  0.86797433693E+02  0.17622253881E+03  0.12509000000E+03 0.  0.
<mgrwt>
<rscale>  2 0.44230532E+03</rscale>
<asrwt>0</asrwt>
<pdfrwt beam="1">  1       21 0.75760568E-01 0.44230532E+03</pdfrwt>
<pdfrwt beam="2">  1       21 0.13961217E-01 0.44230532E+03</pdfrwt>
<totfact> 0.64265728E+04</totfact>
</mgrwt>
</event>
<event>
 7    0  0.4705418E-002  0.4526148E+03  0.7546771E-02  0.1026945E+00
         21   -1    0    0  502  501  0.00000000000E+00  0.00000000000E+00  0.15184338668E+03  0.15184338668E+03  0.00000000000E+00 0. -1.
         21   -1    0    0  501  502 -0.00000000000E+00 -0.00000000000E+00 -0.33728852707E+03  0.33728852707E+03  0.00000000000E+00 0. -1.
      99926    2    1    2    0    0  0.00000000000E+00  0.00000000000E+00 -0.18544514040E+03  0.48913191375E+03  0.45261476882E+03 0.  0.
      99925    2    3    3    0    0  0.74609058324E+02  0.35896110395E+02 -0.37030911722E+02  0.27811216657E+03  0.26290691594E+03 0.  0.
         25    1    4    4    0    0  0.48003494557E+02 -0.18395261783E+02 -0.32558296746E+02  0.13910525487E+03  0.12509000000E+03 0.  0.
         25    1    4    4    0    0  0.26605563767E+02  0.54291372178E+02 -0.44726149758E+01  0.13900691170E+03  0.12509000000E+03 0.  0.
         25    1    3    3    0    0 -0.74609058324E+02 -0.35896110395E+02 -0.14841422867E+03  0.21101974718E+03  0.12509000000E+03 0.  0.
<mgrwt>
<rscale>  2 0.45261477E+03</rscale>
<asrwt>0</asrwt>
<pdfrwt beam="1">  1       21 0.22329910E-01 0.45261477E+03</pdfrwt>
<pdfrwt beam="2">  1       21 0.49601253E-01 0.45261477E+03</pdfrwt>
<totfact> 0.67306621E+04</totfact>
</mgrwt>
</event>
<event>
 7    0  0.4705418E-002  0.4326118E+03  0.7546771E-02  0.1033038E+00
         21   -1    0    0  502  501  0.00000000000E+00  0.00000000000E+00  0.14803916436E+03  0.14803916436E+03  0.00000000000E+00 0.  1.
         21   -1    0    0  501  502 -0.00000000000E+00 -0.00000000000E+00 -0.31605319787E+03  0.31605319787E+03  0.00000000000E+00 0.  1.
      99926    2    1    2    0    0  0.00000000000E+00 -0.71054273576E-14 -0.16801403350E+03  0.46409236223E+03  0.43261184129E+03 0.  0.
      99925    2    3    3    0    0 -0.67447528033E+02  0.60313254663E+02 -0.96843552397E+02  0.29409352927E+03  0.26253661191E+03 0.  0.
         25    1    3    3    0    0  0.67447528033E+02 -0.60313254663E+02 -0.71170481105E+02  0.16999883296E+03  0.12509000000E+03 0.  0.
         25    1    4    4    0    0 -0.37522113808E+02  0.68141000058E+02 -0.36245713342E+02  0.15169826877E+03  0.12509000000E+03 0.  0.
         25    1    4    4    0    0 -0.29925414225E+02 -0.78277453955E+01 -0.60597839055E+02  0.14239526050E+03  0.12509000000E+03 0.  0.
<mgrwt>
<rscale>  2 0.43261184E+03</rscale>
<asrwt>0</asrwt>
<pdfrwt beam="1">  1       21 0.21770466E-01 0.43261184E+03</pdfrwt>
<pdfrwt beam="2">  1       21 0.46478410E-01 0.43261184E+03</pdfrwt>
<totfact> 0.81408696E+04</totfact>
</mgrwt>
</event>
<event>
 7    0  0.4705418E-002  0.4456253E+03  0.7546771E-02  0.1029035E+00
         21   -1    0    0  502  501  0.00000000000E+00  0.00000000000E+00  0.50961224803E+03  0.50961224803E+03  0.00000000000E+00 0. -1.
         21   -1    0    0  501  502 -0.00000000000E+00 -0.00000000000E+00 -0.97418152284E+02  0.97418152284E+02  0.00000000000E+00 0. -1.
      99926    2    1    2    0    0  0.71054273576E-14 -0.88817841970E-15  0.41219409575E+03  0.60703040032E+03  0.44562532955E+03 0.  0.
      99925    2    3    3    0    0  0.54460850500E+02  0.73267581587E+01  0.38220541914E+03  0.46715011419E+03  0.26292314685E+03 0.  0.
         25    1    3    3    0    0 -0.54460850500E+02 -0.73267581587E+01  0.29988676612E+02  0.13988028613E+03  0.12509000000E+03 0.  0.
         25    1    4    4    0    0 -0.56398633583E+01  0.27937100258E+02  0.18429877969E+03  0.22455698146E+03  0.12509000000E+03 0.  0.
         25    1    4    4    0    0  0.60100713859E+02 -0.20610342099E+02  0.19790663945E+03  0.24259313272E+03  0.12509000000E+03 0.  0.
<mgrwt>
<rscale>  2 0.44562533E+03</rscale>
<asrwt>0</asrwt>
<pdfrwt beam="1">  1       21 0.74942977E-01 0.44562533E+03</pdfrwt>
<pdfrwt beam="2">  1       21 0.14326199E-01 0.44562533E+03</pdfrwt>
<totfact> 0.62768210E+04</totfact>
</mgrwt>
</event>
<event>
 7    0  0.4705418E-002  0.4547150E+03  0.7546771E-02  0.1026325E+00
         21   -1    0    0  502  501  0.00000000000E+00  0.00000000000E+00  0.73489865208E+03  0.73489865208E+03  0.00000000000E+00 0.  1.
         21   -1    0    0  501  502 -0.00000000000E+00 -0.00000000000E+00 -0.70338187164E+02  0.70338187164E+02  0.00000000000E+00 0.  1.
      99926    2    1    2    0    0  0.17763568394E-14  0.00000000000E+00  0.66456046492E+03  0.80523683924E+03  0.45471502696E+03 0.  0.
      99925    2    3    3    0    0  0.11807334594E+02 -0.93896334613E+02  0.30925907447E+03  0.41685233780E+03  0.26299954675E+03 0.  0.
         25    1    3    3    0    0 -0.11807334594E+02  0.93896334613E+02  0.35530139045E+03  0.38838450144E+03  0.12509000000E+03 0.  0.
         25    1    4    4    0    0  0.24242675447E+02 -0.99522604780E+01  0.15469175416E+03  0.20065842047E+03  0.12509000000E+03 0.  0.
         25    1    4    4    0    0 -0.12435340853E+02 -0.83944074135E+02  0.15456732031E+03  0.21619391733E+03  0.12509000000E+03 0.  0.
<mgrwt>
<rscale>  2 0.45471503E+03</rscale>
<asrwt>0</asrwt>
<pdfrwt beam="1">  1       21 0.10807333E+00 0.45471503E+03</pdfrwt>
<pdfrwt beam="2">  1       21 0.10343851E-01 0.45471503E+03</pdfrwt>
<totfact> 0.47618953E+04</totfact>
</mgrwt>
</event>
<event>
 7    0  0.4705418E-002  0.4228049E+03  0.7546771E-02  0.1036157E+00
         21   -1    0    0  502  501  0.00000000000E+00  0.00000000000E+00  0.16241250026E+04  0.16241250026E+04  0.00000000000E+00 0.  1.
         21   -1    0    0  501  502 -0.00000000000E+00 -0.00000000000E+00 -0.27516973105E+02  0.27516973105E+02  0.00000000000E+00 0.  1.
      99926    2    1    2    0    0 -0.17763568394E-14  0.00000000000E+00  0.15966080295E+04  0.16516419758E+04  0.42280493855E+03 0.  0.
      99925    2    3    3    0    0  0.55117080307E+01 -0.78886586233E+02  0.10509095712E+04  0.10862325772E+04  0.26312888963E+03 0.  0.
         25    1    4    4    0    0 -0.20466593576E+02 -0.68383216129E+02  0.62903670206E+03  0.64531374257E+03  0.12509000000E+03 0.  0.
         25    1    3    3    0    0 -0.55117080307E+01  0.78886586233E+02  0.54569845834E+03  0.56540939853E+03  0.12509000000E+03 0.  0.
         25    1    4    4    0    0  0.25978301607E+02 -0.10503370104E+02  0.42187286914E+03  0.44091883466E+03  0.12509000000E+03 0.  0.
<mgrwt>
<rscale>  2 0.42280494E+03</rscale>
<asrwt>0</asrwt>
<pdfrwt beam="1">  1       21 0.23884185E+00 0.42280494E+03</pdfrwt>
<pdfrwt beam="2">  1       21 0.40466148E-02 0.42280494E+03</pdfrwt>
<totfact> 0.26264517E+04</totfact>
</mgrwt>
</event>
<event>
 7    0  0.4705418E-002  0.4561433E+03  0.7546771E-02  0.1025906E+00
         21   -1    0    0  502  501  0.00000000000E+00  0.00000000000E+00  0.12503671066E+04  0.12503671066E+04  0.00000000000E+00 0.  1.
         21   -1    0    0  501  502 -0.00000000000E+00 -0.00000000000E+00 -0.41601124907E+02  0.41601124907E+02  0.00000000000E+00 0.  1.
      99926    2    1    2    0    0  0.14210854715E-13  0.71054273576E-14  0.12087659817E+04  0.12919682315E+04  0.45614330284E+03 0.  0.
      99925    2    3    3    0    0  0.10494848707E+03  0.44487187409E+02  0.75527740257E+03  0.80793032568E+03  0.26327582787E+03 0.  0.
         25    1    3    3    0    0 -0.10494848707E+03 -0.44487187409E+02  0.45348857912E+03  0.48403790583E+03  0.12509000000E+03 0.  0.
         25    1    4    4    0    0  0.56348505183E+02 -0.44247908390E+01  0.28312779989E+03  0.31464836243E+03  0.12509000000E+03 0.  0.
         25    1    4    4    0    0  0.48599981887E+02  0.48911978248E+02  0.47214960268E+03  0.49328196325E+03  0.12509000000E+03 0.  0.
<mgrwt>
<rscale>  2 0.45614330E+03</rscale>
<asrwt>0</asrwt>
<pdfrwt beam="1">  1       21 0.18387749E+00 0.45614330E+03</pdfrwt>
<pdfrwt beam="2">  1       21 0.61178133E-02 0.45614330E+03</pdfrwt>
<totfact> 0.29089355E+04</totfact>
</mgrwt>
</event>
<event>
 7    0  0.4705418E-002  0.4611284E+03  0.7546771E-02  0.1024454E+00
         21   -1    0    0  502  501  0.00000000000E+00  0.00000000000E+00  0.16214915427E+03  0.16214915427E+03  0.00000000000E+00 0.  1.
         21   -1    0    0  501  502 -0.00000000000E+00 -0.00000000000E+00 -0.32784544374E+03  0.32784544374E+03  0.00000000000E+00 0.  1.
      99926    2    1    2    0    0  0.00000000000E+00  0.00000000000E+00 -0.16569628947E+03  0.48999459801E+03  0.46112844820E+03 0.  0.
      99925    2    3    3    0    0  0.52363929681E+02  0.98259998077E+02 -0.59607629620E+02  0.29175403657E+03  0.26300254750E+03 0.  0.
         25    1    4    4    0    0  0.14188647430E+02  0.76609145751E+01 -0.33782379595E+02  0.13057091789E+03  0.12509000000E+03 0.  0.
         25    1    4    4    0    0  0.38175282251E+02  0.90599083502E+02 -0.25825250025E+02  0.16118311867E+03  0.12509000000E+03 0.  0.
         25    1    3    3    0    0 -0.52363929681E+02 -0.98259998077E+02 -0.10608865985E+03  0.19824056145E+03  0.12509000000E+03 0.  0.
<mgrwt>
<rscale>  2 0.46112845E+03</rscale>
<asrwt>0</asrwt>
<pdfrwt beam="1">  1       21 0.23845464E-01 0.46112845E+03</pdfrwt>
<pdfrwt beam="2">  1       21 0.48212565E-01 0.46112845E+03</pdfrwt>
<totfact> 0.62864918E+04</totfact>
</mgrwt>
</event>
<event>
 7    0  0.4705418E-002  0.4658401E+03  0.7546771E-02  0.1023101E+00
         21   -1    0    0  502  501  0.00000000000E+00  0.00000000000E+00  0.24206794453E+03  0.24206794453E+03  0.00000000000E+00 0. -1.
         21   -1    0    0  501  502 -0.00000000000E+00 -0.00000000000E+00 -0.22411783749E+03  0.22411783749E+03  0.00000000000E+00 0. -1.
      99926    2    1    2    0    0 -0.71054273576E-14  0.00000000000E+00  0.17950107042E+02  0.46618578202E+03  0.46584007665E+03 0.  0.
      99925    2    3    3    0    0 -0.35716180449E+02 -0.98951869862E+02 -0.53139805243E+02  0.28794885592E+03  0.26272340328E+03 0.  0.
         25    1    4    4    0    0  0.11320428571E+02 -0.18966786526E+02 -0.29641520410E+02  0.13043779715E+03  0.12509000000E+03 0.  0.
         25    1    4    4    0    0 -0.47036609020E+02 -0.79985083337E+02 -0.23498284833E+02  0.15751105877E+03  0.12509000000E+03 0.  0.
         25    1    3    3    0    0  0.35716180449E+02  0.98951869862E+02  0.71089912285E+02  0.17823692609E+03  0.12509000000E+03 0.  0.
<mgrwt>
<rscale>  2 0.46584008E+03</rscale>
<asrwt>0</asrwt>
<pdfrwt beam="1">  1       21 0.35598227E-01 0.46584008E+03</pdfrwt>
<pdfrwt beam="2">  1       21 0.32958505E-01 0.46584008E+03</pdfrwt>
<totfact> 0.62179427E+04</totfact>
</mgrwt>
</event>
<event>
 7    0  0.4705418E-002  0.4415607E+03  0.7546771E-02  0.1030269E+00
         21   -1    0    0  502  501  0.00000000000E+00  0.00000000000E+00  0.22180950489E+03  0.22180950489E+03  0.00000000000E+00 0. -1.
         21   -1    0    0  501  502 -0.00000000000E+00 -0.00000000000E+00 -0.21975598055E+03  0.21975598055E+03  0.00000000000E+00 0. -1.
      99926    2    1    2    0    0  0.00000000000E+00  0.00000000000E+00  0.20535243442E+01  0.44156548544E+03  0.44156071040E+03 0.  0.
      99925    2    3    3    0    0 -0.45891360207E+02 -0.69112959937E+02 -0.54030314901E+02  0.28132964895E+03  0.26333339757E+03 0.  0.
         25    1    4    4    0    0 -0.57759135303E+02 -0.25883006201E+02 -0.48467560875E+02  0.14833293727E+03  0.12509000000E+03 0.  0.
         25    1    3    3    0    0  0.45891360207E+02  0.69112959937E+02  0.56083839245E+02  0.16023583650E+03  0.12509000000E+03 0.  0.
         25    1    4    4    0    0  0.11867775096E+02 -0.43229953737E+02 -0.55627540258E+01  0.13299671168E+03  0.12509000000E+03 0.  0.
<mgrwt>
<rscale>  2 0.44156071E+03</rscale>
<asrwt>0</asrwt>
<pdfrwt beam="1">  1       21 0.32619045E-01 0.44156071E+03</pdfrwt>
<pdfrwt beam="2">  1       21 0.32317056E-01 0.44156071E+03</pdfrwt>
<totfact> 0.77527182E+04</totfact>
</mgrwt>
</event>
<event>
 7    0  0.4705418E-002  0.4504305E+03  0.7546771E-02  0.1027594E+00
         21   -1    0    0  502  501  0.00000000000E+00  0.00000000000E+00  0.10684184124E+04  0.10684184124E+04  0.00000000000E+00 0.  1.
         21   -1    0    0  501  502 -0.00000000000E+00 -0.00000000000E+00 -0.47473825471E+02  0.47473825471E+02  0.00000000000E+00 0.  1.
      99926    2    1    2    0    0  0.00000000000E+00  0.00000000000E+00  0.10209445869E+04  0.11158922378E+04  0.45043050180E+03 0.  0.
      99925    2    3    3    0    0 -0.74539714624E+02 -0.60136439407E+02  0.51753369099E+03  0.58840517770E+03  0.26307217912E+03 0.  0.
         25    1    4    4    0    0 -0.54913667524E+02 -0.26239023390E+02  0.34296015623E+03  0.37009887069E+03  0.12509000000E+03 0.  0.
         25    1    3    3    0    0  0.74539714624E+02  0.60136439407E+02  0.50341089589E+03  0.52748706013E+03  0.12509000000E+03 0.  0.
         25    1    4    4    0    0 -0.19626047099E+02 -0.33897416017E+02  0.17457353477E+03  0.21830630701E+03  0.12509000000E+03 0.  0.
<mgrwt>
<rscale>  2 0.45043050E+03</rscale>
<asrwt>0</asrwt>
<pdfrwt beam="1">  1       21 0.15712034E+00 0.45043050E+03</pdfrwt>
<pdfrwt beam="2">  1       21 0.69814456E-02 0.45043050E+03</pdfrwt>
<totfact> 0.36214835E+04</totfact>
</mgrwt>
</event>
<event>
 7    0  0.4705418E-002  0.4332036E+03  0.7546771E-02  0.1032853E+00
         21   -1    0    0  502  501  0.00000000000E+00  0.00000000000E+00  0.17955923679E+03  0.17955923679E+03  0.00000000000E+00 0. -1.
         21   -1    0    0  501  502 -0.00000000000E+00 -0.00000000000E+00 -0.26128610399E+03  0.26128610399E+03  0.00000000000E+00 0. -1.
      99926    2    1    2    0    0  0.00000000000E+00 -0.35527136788E-14 -0.81726867201E+02  0.44084534078E+03  0.43320357070E+03 0.  0.
      99925    2    3    3    0    0 -0.65175040089E+02  0.31197183346E+02 -0.10957661099E+03  0.29372577570E+03  0.26276747808E+03 0.  0.
         25    1    4    4    0    0 -0.29634479559E+02 -0.74556360409E+01 -0.88947982624E+02  0.15650252586E+03  0.12509000000E+03 0.  0.
         25    1    3    3    0    0  0.65175040089E+02 -0.31197183346E+02  0.27849743787E+02  0.14711956508E+03  0.12509000000E+03 0.  0.
         25    1    4    4    0    0 -0.35540560530E+02  0.38652819387E+02 -0.20628628364E+02  0.13722324984E+03  0.12509000000E+03 0.  0.
<mgrwt>
<rscale>  2 0.43320357E+03</rscale>
<asrwt>0</asrwt>
<pdfrwt beam="1">  1       21 0.26405771E-01 0.43320357E+03</pdfrwt>
<pdfrwt beam="2">  1       21 0.38424426E-01 0.43320357E+03</pdfrwt>
<totfact> 0.83132178E+04</totfact>
</mgrwt>
</event>
<event>
 7    0  0.4705418E-002  0.4578357E+03  0.7546771E-02  0.1025411E+00
         21   -1    0    0  502  501  0.00000000000E+00  0.00000000000E+00  0.26050863747E+02  0.26050863747E+02  0.00000000000E+00 0. -1.
         21   -1    0    0  501  502 -0.00000000000E+00 -0.00000000000E+00 -0.20115793547E+04  0.20115793547E+04  0.00000000000E+00 0. -1.
      99926    2    1    2    0    0 -0.71054273576E-14  0.00000000000E+00 -0.19855284910E+04  0.20376302185E+04  0.45783568968E+03 0.  0.
      99925    2    3    3    0    0 -0.50804162906E+02 -0.54425699838E+02 -0.16410474822E+04  0.16636544261E+04  0.26299427916E+03 0.  0.
         25    1    3    3    0    0  0.50804162906E+02  0.54425699838E+02 -0.34448100876E+03  0.37397579236E+03  0.12509000000E+03 0.  0.
         25    1    4    4    0    0 -0.25684510507E+02 -0.67767225144E+02 -0.91851148217E+03  0.92981876829E+03  0.12509000000E+03 0.  0.
         25    1    4    4    0    0 -0.25119652399E+02  0.13341525306E+02 -0.72253600007E+03  0.73383565785E+03  0.12509000000E+03 0.  0.
<mgrwt>
<rscale>  2 0.45783569E+03</rscale>
<asrwt>0</asrwt>
<pdfrwt beam="1">  1       21 0.38310083E-02 0.45783569E+03</pdfrwt>
<pdfrwt beam="2">  1       21 0.29582057E+00 0.45783569E+03</pdfrwt>
<totfact> 0.12820466E+04</totfact>
</mgrwt>
</event>
<event>
 7    0  0.4705418E-002  0.4616123E+03  0.7546771E-02  0.1024315E+00
         21   -1    0    0  502  501  0.00000000000E+00  0.00000000000E+00  0.43675802194E+03  0.43675802194E+03  0.00000000000E+00 0. -1.
         21   -1    0    0  501  502 -0.00000000000E+00 -0.00000000000E+00 -0.12197023481E+03  0.12197023481E+03  0.00000000000E+00 0. -1.
      99926    2    1    2    0    0  0.00000000000E+00  0.00000000000E+00  0.31478778713E+03  0.55872825676E+03  0.46161229833E+03 0.  0.
      99925    2    3    3    0    0 -0.91943727437E+02 -0.47592206727E+02  0.26840713166E+03  0.38985747640E+03  0.26311175652E+03 0.  0.
         25    1    3    3    0    0  0.91943727437E+02  0.47592206727E+02  0.46380655467E+02  0.16887078035E+03  0.12509000000E+03 0.  0.
         25    1    4    4    0    0 -0.43822833790E+02 -0.52992022739E+02  0.17769307375E+03  0.22792747047E+03  0.12509000000E+03 0.  0.
         25    1    4    4    0    0 -0.48120893647E+02  0.53998160124E+01  0.90714057918E+02  0.16193000594E+03  0.12509000000E+03 0.  0.
<mgrwt>
<rscale>  2 0.46161230E+03</rscale>
<asrwt>0</asrwt>
<pdfrwt beam="1">  1       21 0.64229120E-01 0.46161230E+03</pdfrwt>
<pdfrwt beam="2">  1       21 0.17936799E-01 0.46161230E+03</pdfrwt>
<totfact> 0.58189537E+04</totfact>
</mgrwt>
</event>
<event>
 7    0  0.4705418E-002  0.4531331E+03  0.7546771E-02  0.1026792E+00
         21   -1    0    0  502  501  0.00000000000E+00  0.00000000000E+00  0.77477048672E+03  0.77477048672E+03  0.00000000000E+00 0.  1.
         21   -1    0    0  501  502 -0.00000000000E+00 -0.00000000000E+00 -0.66254985156E+02  0.66254985156E+02  0.00000000000E+00 0.  1.
      99926    2    1    2    0    0  0.13322676296E-14  0.00000000000E+00  0.70851550156E+03  0.84102547188E+03  0.45313312435E+03 0.  0.
      99925    2    3    3    0    0 -0.39968153702E+01  0.39117224778E+02  0.64007983458E+03  0.69311644435E+03  0.26298684185E+03 0.  0.
         25    1    3    3    0    0  0.39968153702E+01 -0.39117224778E+02  0.68435666986E+02  0.14790902752E+03  0.12509000000E+03 0.  0.
         25    1    4    4    0    0 -0.19731624498E+02  0.41722788841E+02  0.25254761024E+03  0.28558349331E+03  0.12509000000E+03 0.  0.
         25    1    4    4    0    0  0.15734809128E+02 -0.26055640636E+01  0.38753222434E+03  0.40753295104E+03  0.12509000000E+03 0.  0.
<mgrwt>
<rscale>  2 0.45313312E+03</rscale>
<asrwt>0</asrwt>
<pdfrwt beam="1">  1       21 0.11393683E+00 0.45313312E+03</pdfrwt>
<pdfrwt beam="2">  1       21 0.97433806E-02 0.45313312E+03</pdfrwt>
<totfact> 0.46521169E+04</totfact>
</mgrwt>
</event>
<event>
 7    0  0.4705418E-002  0.4401011E+03  0.7546771E-02  0.1030716E+00
         21   -1    0    0  502  501  0.00000000000E+00  0.00000000000E+00  0.41363348389E+03  0.41363348389E+03  0.00000000000E+00 0.  1.
         21   -1    0    0  501  502 -0.00000000000E+00 -0.00000000000E+00 -0.11706557304E+03  0.11706557304E+03  0.00000000000E+00 0.  1.
      99926    2    1    2    0    0  0.00000000000E+00  0.35527136788E-14  0.29656791085E+03  0.53069905693E+03  0.44010108303E+03 0.  0.
      99925    2    3    3    0    0 -0.90799435432E+02  0.23896056350E+02  0.15259619058E+03  0.31811748830E+03  0.26286418547E+03 0.  0.
         25    1    3    3    0    0  0.90799435432E+02 -0.23896056350E+02  0.14397172027E+03  0.21258156863E+03  0.12509000000E+03 0.  0.
         25    1    4    4    0    0 -0.39657745936E+02  0.44736262324E+02  0.50829591470E+02  0.14766592514E+03  0.12509000000E+03 0.  0.
         25    1    4    4    0    0 -0.51141689496E+02 -0.20840205974E+02  0.10176659911E+03  0.17045156316E+03  0.12509000000E+03 0.  0.
<mgrwt>
<rscale>  2 0.44010108E+03</rscale>
<asrwt>0</asrwt>
<pdfrwt beam="1">  1       21 0.60828453E-01 0.44010108E+03</pdfrwt>
<pdfrwt beam="2">  1       21 0.17215526E-01 0.44010108E+03</pdfrwt>
<totfact> 0.71192047E+04</totfact>
</mgrwt>
</event>
<event>
 7    0  0.4705418E-002  0.4545887E+03  0.7546771E-02  0.1026362E+00
         21   -1    0    0  502  501  0.00000000000E+00  0.00000000000E+00  0.13147231146E+03  0.13147231146E+03  0.00000000000E+00 0. -1.
         21   -1    0    0  501  502 -0.00000000000E+00 -0.00000000000E+00 -0.39295509873E+03  0.39295509873E+03  0.00000000000E+00 0. -1.
      99926    2    1    2    0    0  0.00000000000E+00  0.00000000000E+00 -0.26148278727E+03  0.52442741019E+03  0.45458867178E+03 0.  0.
      99925    2    3    3    0    0  0.20983769761E+02 -0.78454820854E+02 -0.25477980901E+03  0.37513603225E+03  0.26309468658E+03 0.  0.
         25    1    4    4    0    0  0.49477986743E+01 -0.80274332296E+02 -0.12652918285E+03  0.19525775618E+03  0.12509000000E+03 0.  0.
         25    1    4    4    0    0  0.16035971086E+02  0.18195114428E+01 -0.12825062616E+03  0.17987827607E+03  0.12509000000E+03 0.  0.
         25    1    3    3    0    0 -0.20983769761E+02  0.78454820854E+02 -0.67029782669E+01  0.14929137794E+03  0.12509000000E+03 0.  0.
<mgrwt>
<rscale>  2 0.45458867E+03</rscale>
<asrwt>0</asrwt>
<pdfrwt beam="1">  1       21 0.19334164E-01 0.45458867E+03</pdfrwt>
<pdfrwt beam="2">  1       21 0.57787514E-01 0.45458867E+03</pdfrwt>
<totfact> 0.63793078E+04</totfact>
</mgrwt>
</event>
<event>
 7    0  0.4705418E-002  0.4597773E+03  0.7546771E-02  0.1024846E+00
         21   -1    0    0  502  501  0.00000000000E+00  0.00000000000E+00  0.83521444196E+03  0.83521444196E+03  0.00000000000E+00 0. -1.
         21   -1    0    0  501  502 -0.00000000000E+00 -0.00000000000E+00 -0.63275713027E+02  0.63275713027E+02  0.00000000000E+00 0. -1.
      99926    2    1    2    0    0  0.00000000000E+00  0.88817841970E-15  0.77193872893E+03  0.89849015498E+03  0.45977729107E+03 0.  0.
      99925    2    3    3    0    0  0.11428562428E+03 -0.67558689122E+01  0.43337222351E+03  0.51983248324E+03  0.26326313991E+03 0.  0.
         25    1    4    4    0    0  0.22135012387E+02 -0.16356350657E+01  0.14955693397E+03  0.19623307232E+03  0.12509000000E+03 0.  0.
         25    1    4    4    0    0  0.92150611889E+02 -0.51202338465E+01  0.28381528954E+03  0.32359941092E+03  0.12509000000E+03 0.  0.
         25    1    3    3    0    0 -0.11428562428E+03  0.67558689122E+01  0.33856650542E+03  0.37865767174E+03  0.12509000000E+03 0.  0.
<mgrwt>
<rscale>  2 0.45977729E+03</rscale>
<asrwt>0</asrwt>
<pdfrwt beam="1">  1       21 0.12282565E+00 0.45977729E+03</pdfrwt>
<pdfrwt beam="2">  1       21 0.93052524E-02 0.45977729E+03</pdfrwt>
<totfact> 0.41716604E+04</totfact>
</mgrwt>
</event>
<event>
 7    0  0.4705418E-002  0.4355018E+03  0.7546771E-02  0.1032136E+00
         21   -1    0    0  502  501  0.00000000000E+00  0.00000000000E+00  0.37410136968E+02  0.37410136968E+02  0.00000000000E+00 0.  1.
         21   -1    0    0  501  502 -0.00000000000E+00 -0.00000000000E+00 -0.12674490985E+04  0.12674490985E+04  0.00000000000E+00 0.  1.
      99926    2    1    2    0    0  0.00000000000E+00  0.00000000000E+00 -0.12300389616E+04  0.13048592355E+04  0.43550175373E+03 0.  0.
      99925    2    3    3    0    0 -0.42481363860E+02  0.65668761131E+02 -0.94368383677E+03  0.98273531826E+03  0.26289250560E+03 0.  0.
         25    1    3    3    0    0  0.42481363860E+02 -0.65668761131E+02 -0.28635512479E+03  0.32212391724E+03  0.12509000000E+03 0.  0.
         25    1    4    4    0    0 -0.54216768588E+02  0.58566032672E+02 -0.50045106776E+03  0.52198488244E+03  0.12509000000E+03 0.  0.
         25    1    4    4    0    0  0.11735404729E+02  0.71027284595E+01 -0.44323276902E+03  0.46075043582E+03  0.12509000000E+03 0.  0.
<mgrwt>
<rscale>  2 0.43550175E+03</rscale>
<asrwt>0</asrwt>
<pdfrwt beam="1">  1       21 0.55014894E-02 0.43550175E+03</pdfrwt>
<pdfrwt beam="2">  1       21 0.18638962E+00 0.43550175E+03</pdfrwt>
<totfact> 0.33818544E+04</totfact>
</mgrwt>
</event>
<event>
 7    0  0.4705418E-002  0.4566942E+03  0.7546771E-02  0.1025744E+00
         21   -1    0    0  502  501  0.00000000000E+00  0.00000000000E+00  0.48644070467E+03  0.48644070467E+03  0.00000000000E+00 0. -1.
         21   -1    0    0  501  502 -0.00000000000E+00 -0.00000000000E+00 -0.10719167314E+03  0.10719167314E+03  0.00000000000E+00 0. -1.
      99926    2    1    2    0    0  0.00000000000E+00  0.00000000000E+00  0.37924903153E+03  0.59363237780E+03  0.45669417783E+03 0.  0.
      99925    2    3    3    0    0 -0.39815882711E+02  0.98870367468E+02  0.29349303680E+03  0.40826179543E+03  0.26301877666E+03 0.  0.
         25    1    4    4    0    0 -0.22602773639E+02  0.13757064402E+02  0.10172320560E+03  0.16338684419E+03  0.12509000000E+03 0.  0.
         25    1    4    4    0    0 -0.17213109072E+02  0.85113303066E+02  0.19176983120E+03  0.24487495124E+03  0.12509000000E+03 0.  0.
         25    1    3    3    0    0  0.39815882711E+02 -0.98870367468E+02  0.85755994728E+02  0.18537058238E+03  0.12509000000E+03 0.  0.
<mgrwt>
<rscale>  2 0.45669418E+03</rscale>
<asrwt>0</asrwt>
<pdfrwt beam="1">  1       21 0.71535397E-01 0.45669418E+03</pdfrwt>
<pdfrwt beam="2">  1       21 0.15763481E-01 0.45669418E+03</pdfrwt>
<totfact> 0.58287608E+04</totfact>
</mgrwt>
</event>
<event>
 7    0  0.4705418E-002  0.4525902E+03  0.7546771E-02  0.1026952E+00
         21   -1    0    0  502  501  0.00000000000E+00  0.00000000000E+00  0.10362523037E+03  0.10362523037E+03  0.00000000000E+00 0.  1.
         21   -1    0    0  501  502 -0.00000000000E+00 -0.00000000000E+00 -0.49417950965E+03  0.49417950965E+03  0.00000000000E+00 0.  1.
      99926    2    1    2    0    0  0.88817841970E-15  0.00000000000E+00 -0.39055427928E+03  0.59780474002E+03  0.45259017017E+03 0.  0.
      99925    2    3    3    0    0  0.76988008097E+01  0.11041795221E+03 -0.23966436065E+03  0.37271215608E+03  0.26310444660E+03 0.  0.
         25    1    4    4    0    0  0.65366826682E+01  0.78277627374E+02 -0.82152675645E+02  0.16901681982E+03  0.12509000000E+03 0.  0.
         25    1    3    3    0    0 -0.76988008097E+01 -0.11041795221E+03 -0.15088991863E+03  0.22509258395E+03  0.12509000000E+03 0.  0.
         25    1    4    4    0    0  0.11621181416E+01  0.32140324835E+02 -0.15751168500E+03  0.20369533625E+03  0.12509000000E+03 0.  0.
<mgrwt>
<rscale>  2 0.45259017E+03</rscale>
<asrwt>0</asrwt>
<pdfrwt beam="1">  1       21 0.15239005E-01 0.45259017E+03</pdfrwt>
<pdfrwt beam="2">  1       21 0.72673456E-01 0.45259017E+03</pdfrwt>
<totfact> 0.59946957E+04</totfact>
</mgrwt>
</event>
<event>
 7    0  0.4705418E-002  0.4456686E+03  0.7546771E-02  0.1029022E+00
         21   -1    0    0  502  501  0.00000000000E+00  0.00000000000E+00  0.19970610429E+03  0.19970610429E+03  0.00000000000E+00 0.  1.
         21   -1    0    0  501  502 -0.00000000000E+00 -0.00000000000E+00 -0.24864104208E+03  0.24864104208E+03  0.00000000000E+00 0.  1.
      99926    2    1    2    0    0  0.14210854715E-13  0.00000000000E+00 -0.48934937794E+02  0.44834714636E+03  0.44566863870E+03 0.  0.
      99925    2    3    3    0    0  0.90152218202E+02  0.36303968515E+02  0.66171584889E+01  0.28048129493E+03  0.26302199422E+03 0.  0.
         25    1    4    4    0    0  0.50521054338E+02 -0.22221984176E+02  0.30978981563E+01  0.13676000360E+03  0.12509000000E+03 0.  0.
         25    1    3    3    0    0 -0.90152218202E+02 -0.36303968515E+02 -0.55552096282E+02  0.16786585144E+03  0.12509000000E+03 0.  0.
         25    1    4    4    0    0  0.39631163864E+02  0.58525952691E+02  0.35192603326E+01  0.14372129133E+03  0.12509000000E+03 0.  0.
<mgrwt>
<rscale>  2 0.44566864E+03</rscale>
<asrwt>0</asrwt>
<pdfrwt beam="1">  1       21 0.29368545E-01 0.44566864E+03</pdfrwt>
<pdfrwt beam="2">  1       21 0.36564859E-01 0.44566864E+03</pdfrwt>
<totfact> 0.74424354E+04</totfact>
</mgrwt>
</event>
<event>
 7    0  0.4705418E-002  0.4070229E+03  0.7546771E-02  0.1041375E+00
         21   -1    0    0  502  501  0.00000000000E+00  0.00000000000E+00  0.67675728121E+03  0.67675728121E+03  0.00000000000E+00 0.  1.
         21   -1    0    0  501  502 -0.00000000000E+00 -0.00000000000E+00 -0.61199068179E+02  0.61199068179E+02  0.00000000000E+00 0.  1.
      99926    2    1    2    0    0  0.00000000000E+00  0.00000000000E+00  0.61555821303E+03  0.73795634939E+03  0.40702292315E+03 0.  0.
      99925    2    3    3    0    0  0.21248615530E+02  0.39704825345E+02  0.34121242226E+03  0.43309392495E+03  0.26290008351E+03 0.  0.
         25    1    4    4    0    0  0.25654458913E+01  0.33063064352E+02  0.23292205217E+03  0.26645813597E+03  0.12509000000E+03 0.  0.
         25    1    3    3    0    0 -0.21248615530E+02 -0.39704825345E+02  0.27434579077E+03  0.30486242443E+03  0.12509000000E+03 0.  0.
         25    1    4    4    0    0  0.18683169639E+02  0.66417609934E+01  0.10829037009E+03  0.16663578899E+03  0.12509000000E+03 0.  0.
<mgrwt>
<rscale>  2 0.40702292E+03</rscale>
<asrwt>0</asrwt>
<pdfrwt beam="1">  1       21 0.99523125E-01 0.40702292E+03</pdfrwt>
<pdfrwt beam="2">  1       21 0.89998634E-02 0.40702292E+03</pdfrwt>
<totfact> 0.75630850E+04</totfact>
</mgrwt>
</event>
<event>
 7    0  0.4705418E-002  0.4557855E+03  0.7546771E-02  0.1026011E+00
         21   -1    0    0  502  501  0.00000000000E+00  0.00000000000E+00  0.65233984122E+03  0.65233984122E+03  0.00000000000E+00 0. -1.
         21   -1    0    0  501  502 -0.00000000000E+00 -0.00000000000E+00 -0.79613583248E+02  0.79613583248E+02  0.00000000000E+00 0. -1.
      99926    2    1    2    0    0 -0.14210854715E-13 -0.35527136788E-14  0.57272625797E+03  0.73195342447E+03  0.45578552963E+03 0.  0.
      99925    2    3    3    0    0  0.11065767016E+03  0.22857155685E+02  0.38426755636E+03  0.47910611908E+03  0.26289455859E+03 0.  0.
         25    1    4    4    0    0  0.20842269740E+02  0.13799450378E+02  0.13316727955E+03  0.18440677179E+03  0.12509000000E+03 0.  0.
         25    1    3    3    0    0 -0.11065767016E+03 -0.22857155685E+02  0.18845870161E+03  0.25284730539E+03  0.12509000000E+03 0.  0.
         25    1    4    4    0    0  0.89815400417E+02  0.90577053072E+01  0.25110027681E+03  0.29469934729E+03  0.12509000000E+03 0.  0.
<mgrwt>
<rscale>  2 0.45578553E+03</rscale>
<asrwt>0</asrwt>
<pdfrwt beam="1">  1       21 0.95932327E-01 0.45578553E+03</pdfrwt>
<pdfrwt beam="2">  1       21 0.11707880E-01 0.45578553E+03</pdfrwt>
<totfact> 0.50887179E+04</totfact>
</mgrwt>
</event>
<event>
 7    0  0.4705418E-002  0.4508028E+03  0.7546771E-02  0.1027483E+00
         21   -1    0    0  502  501  0.00000000000E+00  0.00000000000E+00  0.62126723774E+03  0.62126723774E+03  0.00000000000E+00 0. -1.
         21   -1    0    0  501  502 -0.00000000000E+00 -0.00000000000E+00 -0.81777673083E+02  0.81777673083E+02  0.00000000000E+00 0. -1.
      99926    2    1    2    0    0 -0.17763568394E-14  0.00000000000E+00  0.53948956465E+03  0.70304491082E+03  0.45080279087E+03 0.  0.
      99925    2    3    3    0    0  0.81152678511E+01  0.44991462841E+02  0.49547923636E+03  0.56277906894E+03  0.26292682913E+03 0.  0.
         25    1    4    4    0    0 -0.68053223258E+01  0.61571228150E+02  0.27078697208E+03  0.30464802788E+03  0.12509000000E+03 0.  0.
         25    1    4    4    0    0  0.14920590177E+02 -0.16579765310E+02  0.22469226428E+03  0.25813104106E+03  0.12509000000E+03 0.  0.
         25    1    3    3    0    0 -0.81152678511E+01 -0.44991462841E+02  0.44010328295E+02  0.14026584188E+03  0.12509000000E+03 0.  0.
<mgrwt>
<rscale>  2 0.45080279E+03</rscale>
<asrwt>0</asrwt>
<pdfrwt beam="1">  1       21 0.91362827E-01 0.45080279E+03</pdfrwt>
<pdfrwt beam="2">  1       21 0.12026129E-01 0.45080279E+03</pdfrwt>
<totfact> 0.54516328E+04</totfact>
</mgrwt>
</event>
<event>
 7    0  0.4705418E-002  0.4449063E+03  0.7546771E-02  0.1029252E+00
         21   -1    0    0  502  501  0.00000000000E+00  0.00000000000E+00  0.13973105127E+03  0.13973105127E+03  0.00000000000E+00 0. -1.
         21   -1    0    0  501  502 -0.00000000000E+00 -0.00000000000E+00 -0.35414755030E+03  0.35414755030E+03  0.00000000000E+00 0. -1.
      99926    2    1    2    0    0  0.71054273576E-14  0.00000000000E+00 -0.21441649903E+03  0.49387860157E+03  0.44490632500E+03 0.  0.
      99925    2    3    3    0    0  0.34398081530E+02 -0.97307406921E+02 -0.13015999280E+03  0.31112569079E+03  0.26306959591E+03 0.  0.
         25    1    4    4    0    0  0.52172475946E+02 -0.72940637518E+02 -0.71339905671E+02  0.16964431641E+03  0.12509000000E+03 0.  0.
         25    1    3    3    0    0 -0.34398081530E+02  0.97307406921E+02 -0.84256506234E+02  0.18275291078E+03  0.12509000000E+03 0.  0.
         25    1    4    4    0    0 -0.17774394415E+02 -0.24366769403E+02 -0.58820087129E+02  0.14148137438E+03  0.12509000000E+03 0.  0.
<mgrwt>
<rscale>  2 0.44490633E+03</rscale>
<asrwt>0</asrwt>
<pdfrwt beam="1">  1       21 0.20548685E-01 0.44490633E+03</pdfrwt>
<pdfrwt beam="2">  1       21 0.52080521E-01 0.44490633E+03</pdfrwt>
<totfact> 0.71242263E+04</totfact>
</mgrwt>
</event>
<event>
 7    0  0.4705418E-002  0.4529258E+03  0.7546771E-02  0.1026853E+00
         21   -1    0    0  502  501  0.00000000000E+00  0.00000000000E+00  0.17046886843E+03  0.17046886843E+03  0.00000000000E+00 0.  1.
         21   -1    0    0  501  502 -0.00000000000E+00 -0.00000000000E+00 -0.30084929475E+03  0.30084929475E+03  0.00000000000E+00 0.  1.
      99926    2    1    2    0    0  0.00000000000E+00 -0.17763568394E-14 -0.13038042632E+03  0.47131816318E+03  0.45292577248E+03 0.  0.
      99925    2    3    3    0    0  0.83523442799E+02  0.90795002931E+01 -0.63401089298E+01  0.27614615889E+03  0.26297889890E+03 0.  0.
         25    1    3    3    0    0 -0.83523442799E+02 -0.90795002931E+01 -0.12404031739E+03  0.19517200429E+03  0.12509000000E+03 0.  0.
         25    1    4    4    0    0  0.28844671009E+02 -0.22782430883E+02  0.24365032750E+02  0.13263565555E+03  0.12509000000E+03 0.  0.
         25    1    4    4    0    0  0.54678771790E+02  0.31861931176E+02 -0.30705141679E+02  0.14351050334E+03  0.12509000000E+03 0.  0.
<mgrwt>
<rscale>  2 0.45292577E+03</rscale>
<asrwt>0</asrwt>
<pdfrwt beam="1">  1       21 0.25068951E-01 0.45292577E+03</pdfrwt>
<pdfrwt beam="2">  1       21 0.44242544E-01 0.45292577E+03</pdfrwt>
<totfact> 0.68457550E+04</totfact>
</mgrwt>
</event>
<event>
 7    0  0.4705418E-002  0.4505788E+03  0.7546771E-02  0.1027550E+00
         21   -1    0    0  502  501  0.00000000000E+00  0.00000000000E+00  0.11105415989E+03  0.11105415989E+03  0.00000000000E+00 0. -1.
         21   -1    0    0  501  502 -0.00000000000E+00 -0.00000000000E+00 -0.45703215310E+03  0.45703215310E+03  0.00000000000E+00 0. -1.
      99926    2    1    2    0    0  0.35527136788E-14  0.00000000000E+00 -0.34597799321E+03  0.56808631299E+03  0.45057883575E+03 0.  0.
      99925    2    3    3    0    0  0.18071297693E+02 -0.58015063234E+02 -0.10450774065E+03  0.28943292555E+03  0.26297762486E+03 0.  0.
         25    1    4    4    0    0 -0.29652744718E+02 -0.27158076349E+02 -0.64252974133E+02  0.14626277437E+03  0.12509000000E+03 0.  0.
         25    1    3    3    0    0 -0.18071297693E+02  0.58015063234E+02 -0.24147025256E+03  0.27865338744E+03  0.12509000000E+03 0.  0.
         25    1    4    4    0    0  0.47724042411E+02 -0.30856986885E+02 -0.40254766518E+02  0.14317015119E+03  0.12509000000E+03 0.  0.
<mgrwt>
<rscale>  2 0.45057884E+03</rscale>
<asrwt>0</asrwt>
<pdfrwt beam="1">  1       21 0.16331494E-01 0.45057884E+03</pdfrwt>
<pdfrwt beam="2">  1       21 0.67210609E-01 0.45057884E+03</pdfrwt>
<totfact> 0.62855922E+04</totfact>
</mgrwt>
</event>
<event>
 7    0  0.4705418E-002  0.4575675E+03  0.7546771E-02  0.1025489E+00
         21   -1    0    0  502  501  0.00000000000E+00  0.00000000000E+00  0.58452578287E+03  0.58452578287E+03  0.00000000000E+00 0.  1.
         21   -1    0    0  501  502 -0.00000000000E+00 -0.00000000000E+00 -0.89546090415E+02  0.89546090415E+02  0.00000000000E+00 0.  1.
      99926    2    1    2    0    0  0.00000000000E+00  0.00000000000E+00  0.49497969246E+03  0.67407187329E+03  0.45756747526E+03 0.  0.
      99925    2    3    3    0    0 -0.64363756751E+02 -0.68331496390E+02  0.21119070215E+03  0.35004164985E+03  0.26289875879E+03 0.  0.
         25    1    3    3    0    0  0.64363756751E+02  0.68331496390E+02  0.28378899031E+03  0.32403022344E+03  0.12509000000E+03 0.  0.
         25    1    4    4    0    0 -0.29606841200E+02 -0.56490480514E+02  0.66755022347E+02  0.15547179983E+03  0.12509000000E+03 0.  0.
         25    1    4    4    0    0 -0.34756915551E+02 -0.11841015876E+02  0.14443567980E+03  0.19456985002E+03  0.12509000000E+03 0.  0.
<mgrwt>
<rscale>  2 0.45756748E+03</rscale>
<asrwt>0</asrwt>
<pdfrwt beam="1">  1       21 0.85959672E-01 0.45756748E+03</pdfrwt>
<pdfrwt beam="2">  1       21 0.13168543E-01 0.45756748E+03</pdfrwt>
<totfact> 0.53247957E+04</totfact>
</mgrwt>
</event>
<event>
 7    0  0.4705418E-002  0.4556160E+03  0.7546771E-02  0.1026060E+00
         21   -1    0    0  502  501  0.00000000000E+00  0.00000000000E+00  0.99990420160E+02  0.99990420160E+02  0.00000000000E+00 0. -1.
         21   -1    0    0  501  502 -0.00000000000E+00 -0.00000000000E+00 -0.51901458270E+03  0.51901458270E+03  0.00000000000E+00 0. -1.
      99926    2    1    2    0    0  0.14210854715E-13  0.00000000000E+00 -0.41902416254E+03  0.61900500286E+03  0.45561600583E+03 0.  0.
      99925    2    3    3    0    0  0.65938496581E+02 -0.89075036334E+02 -0.29879321489E+03  0.41312825259E+03  0.26289792771E+03 0.  0.
         25    1    3    3    0    0 -0.65938496581E+02  0.89075036334E+02 -0.12023094764E+03  0.20587675027E+03  0.12509000000E+03 0.  0.
         25    1    4    4    0    0  0.51992976983E+02 -0.86377519355E+01 -0.14979056297E+03  0.20214500060E+03  0.12509000000E+03 0.  0.
         25    1    4    4    0    0  0.13945519599E+02 -0.80437284398E+02 -0.14900265192E+03  0.21098325198E+03  0.12509000000E+03 0.  0.
<mgrwt>
<rscale>  2 0.45561601E+03</rscale>
<asrwt>0</asrwt>
<pdfrwt beam="1">  1       21 0.14704473E-01 0.45561601E+03</pdfrwt>
<pdfrwt beam="2">  1       21 0.76325675E-01 0.45561601E+03</pdfrwt>
<totfact> 0.57244477E+04</totfact>
</mgrwt>
</event>
<event>
 7    0  0.4705418E-002  0.4549722E+03  0.7546771E-02  0.1026250E+00
         21   -1    0    0  502  501  0.00000000000E+00  0.00000000000E+00  0.69575613479E+02  0.69575613479E+02  0.00000000000E+00 0. -1.
         21   -1    0    0  501  502 -0.00000000000E+00 -0.00000000000E+00 -0.74379413430E+03  0.74379413430E+03  0.00000000000E+00 0. -1.
      99926    2    1    2    0    0  0.00000000000E+00  0.00000000000E+00 -0.67421852082E+03  0.81336974778E+03  0.45497223298E+03 0.  0.
      99925    2    3    3    0    0 -0.61878234354E+02  0.20287843723E+02 -0.25904684106E+03  0.37490020007E+03  0.26306725692E+03 0.  0.
         25    1    4    4    0    0 -0.44257867683E+02 -0.22940343898E+02 -0.15709848784E+03  0.20691172323E+03  0.12509000000E+03 0.  0.
         25    1    3    3    0    0  0.61878234354E+02 -0.20287843723E+02 -0.41517167976E+03  0.43846954770E+03  0.12509000000E+03 0.  0.
         25    1    4    4    0    0 -0.17620366671E+02  0.43228187621E+02 -0.10194835322E+03  0.16798847684E+03  0.12509000000E+03 0.  0.
<mgrwt>
<rscale>  2 0.45497223E+03</rscale>
<asrwt>0</asrwt>
<pdfrwt beam="1">  1       21 0.10231707E-01 0.45497223E+03</pdfrwt>
<pdfrwt beam="2">  1       21 0.10938149E+00 0.45497223E+03</pdfrwt>
<totfact> 0.47135191E+04</totfact>
</mgrwt>
</event>
<event>
 7    0  0.4705418E-002  0.4588179E+03  0.7546771E-02  0.1025125E+00
         21   -1    0    0  502  501  0.00000000000E+00  0.00000000000E+00  0.40405211749E+03  0.40405211749E+03  0.00000000000E+00 0.  1.
         21   -1    0    0  501  502 -0.00000000000E+00 -0.00000000000E+00 -0.13025168705E+03  0.13025168705E+03  0.00000000000E+00 0.  1.
      99926    2    1    2    0    0  0.14210854715E-13  0.00000000000E+00  0.27380043043E+03  0.53430380454E+03  0.45881791578E+03 0.  0.
      99925    2    3    3    0    0 -0.93594954211E+02 -0.23402704057E+02  0.95137352012E+02  0.29581752464E+03  0.26296233594E+03 0.  0.
         25    1    3    3    0    0  0.93594954211E+02  0.23402704057E+02  0.17866307842E+03  0.23848627990E+03  0.12509000000E+03 0.  0.
         25    1    4    4    0    0 -0.13869562345E+02 -0.36882882494E+02  0.45378558023E+02  0.13877836074E+03  0.12509000000E+03 0.  0.
         25    1    4    4    0    0 -0.79725391866E+02  0.13480178437E+02  0.49758793989E+02  0.15703916390E+03  0.12509000000E+03 0.  0.
<mgrwt>
<rscale>  2 0.45881792E+03</rscale>
<asrwt>0</asrwt>
<pdfrwt beam="1">  1       21 0.59419429E-01 0.45881792E+03</pdfrwt>
<pdfrwt beam="2">  1       21 0.19154660E-01 0.45881792E+03</pdfrwt>
<totfact> 0.61047828E+04</totfact>
</mgrwt>
</event>
<event>
 7    0  0.4705418E-002  0.4596912E+03  0.7546771E-02  0.1024871E+00
         21   -1    0    0  502  501  0.00000000000E+00  0.00000000000E+00  0.86360211424E+02  0.86360211424E+02  0.00000000000E+00 0. -1.
         21   -1    0    0  501  502 -0.00000000000E+00 -0.00000000000E+00 -0.61172846628E+03  0.61172846628E+03  0.00000000000E+00 0. -1.
      99926    2    1    2    0    0  0.00000000000E+00  0.00000000000E+00 -0.52536825486E+03  0.69808867770E+03  0.45969119932E+03 0.  0.
      99925    2    3    3    0    0  0.46975819711E+02 -0.10484045017E+03 -0.29588658675E+03  0.41259333321E+03  0.26360223588E+03 0.  0.
         25    1    4    4    0    0  0.15974032836E+02 -0.95323330057E+02 -0.15432596693E+03  0.22092016465E+03  0.12509000000E+03 0.  0.
         25    1    4    4    0    0  0.31001786875E+02 -0.95171201158E+01 -0.14156061982E+03  0.19167316856E+03  0.12509000000E+03 0.  0.
         25    1    3    3    0    0 -0.46975819711E+02  0.10484045017E+03 -0.22948166811E+03  0.28549534449E+03  0.12509000000E+03 0.  0.
<mgrwt>
<rscale>  2 0.45969120E+03</rscale>
<asrwt>0</asrwt>
<pdfrwt beam="1">  1       21 0.12700031E-01 0.45969120E+03</pdfrwt>
<pdfrwt beam="2">  1       21 0.89960068E-01 0.45969120E+03</pdfrwt>
<totfact> 0.51094104E+04</totfact>
</mgrwt>
</event>
<event>
 7    0  0.4705418E-002  0.4691052E+03  0.7546771E-02  0.1022173E+00
         21   -1    0    0  502  501  0.00000000000E+00  0.00000000000E+00  0.18832016353E+03  0.18832016353E+03  0.00000000000E+00 0.  1.
         21   -1    0    0  501  502 -0.00000000000E+00 -0.00000000000E+00 -0.29213507978E+03  0.29213507978E+03  0.00000000000E+00 0.  1.
      99926    2    1    2    0    0 -0.35527136788E-14 -0.17763568394E-14 -0.10381491625E+03  0.48045524332E+03  0.46910521634E+03 0.  0.
      99925    2    3    3    0    0  0.15825706421E+02 -0.75176027463E+01 -0.19225010318E+03  0.32626296815E+03  0.26302177643E+03 0.  0.
         25    1    4    4    0    0  0.19122173579E+02 -0.28060294370E+02 -0.13493210870E+03  0.18710216380E+03  0.12509000000E+03 0.  0.
         25    1    4    4    0    0 -0.32964671586E+01  0.20542691624E+02 -0.57317994485E+02  0.13916080435E+03  0.12509000000E+03 0.  0.
         25    1    3    3    0    0 -0.15825706421E+02  0.75176027463E+01  0.88435186930E+02  0.15419227517E+03  0.12509000000E+03 0.  0.
<mgrwt>
<rscale>  2 0.46910522E+03</rscale>
<asrwt>0</asrwt>
<pdfrwt beam="1">  1       21 0.27694142E-01 0.46910522E+03</pdfrwt>
<pdfrwt beam="2">  1       21 0.42961041E-01 0.46910522E+03</pdfrwt>
<totfact> 0.59698692E+04</totfact>
</mgrwt>
</event>
<event>
 7    0  0.4705418E-002  0.4480094E+03  0.7546771E-02  0.1028317E+00
         21   -1    0    0  502  501  0.00000000000E+00  0.00000000000E+00  0.68025945174E+02  0.68025945174E+02  0.00000000000E+00 0. -1.
         21   -1    0    0  501  502 -0.00000000000E+00 -0.00000000000E+00 -0.73763191391E+03  0.73763191391E+03  0.00000000000E+00 0. -1.
      99926    2    1    2    0    0  0.35527136788E-14  0.00000000000E+00 -0.66960596874E+03  0.80565785909E+03  0.44800941122E+03 0.  0.
      99925    2    3    3    0    0  0.30012758273E+02 -0.92961049486E+02 -0.34802614065E+03  0.44704439543E+03  0.26302846715E+03 0.  0.
         25    1    4    4    0    0 -0.16752578536E+02 -0.67311449975E+02 -0.15482429147E+03  0.21078318129E+03  0.12509000000E+03 0.  0.
         25    1    4    4    0    0  0.46765336809E+02 -0.25649599510E+02 -0.19320184918E+03  0.23626121414E+03  0.12509000000E+03 0.  0.
         25    1    3    3    0    0 -0.30012758273E+02  0.92961049486E+02 -0.32157982809E+03  0.35861346365E+03  0.12509000000E+03 0.  0.
<mgrwt>
<rscale>  2 0.44800941E+03</rscale>
<asrwt>0</asrwt>
<pdfrwt beam="1">  1       21 0.10003817E-01 0.44800941E+03</pdfrwt>
<pdfrwt beam="2">  1       21 0.10847527E+00 0.44800941E+03</pdfrwt>
<totfact> 0.50189575E+04</totfact>
</mgrwt>
</event>
<event>
 7    0  0.4705418E-002  0.4492074E+03  0.7546771E-02  0.1027959E+00
         21   -1    0    0  502  501  0.00000000000E+00  0.00000000000E+00  0.75248126079E+03  0.75248126079E+03  0.00000000000E+00 0.  1.
         21   -1    0    0  501  502 -0.00000000000E+00 -0.00000000000E+00 -0.67040646242E+02  0.67040646242E+02  0.00000000000E+00 0.  1.
      99926    2    1    2    0    0  0.00000000000E+00  0.00000000000E+00  0.68544061455E+03  0.81952190703E+03  0.44920743542E+03 0.  0.
      99925    2    3    3    0    0 -0.78914025277E+02  0.42756840824E+02  0.32507127545E+03  0.42764292127E+03  0.26296684803E+03 0.  0.
         25    1    4    4    0    0 -0.39700290123E+02 -0.14324698268E+02  0.18677864323E+03  0.22872489957E+03  0.12509000000E+03 0.  0.
         25    1    3    3    0    0  0.78914025277E+02 -0.42756840824E+02  0.36036933910E+03  0.39187898576E+03  0.12509000000E+03 0.  0.
         25    1    4    4    0    0 -0.39213735153E+02  0.57081539092E+02  0.13829263222E+03  0.19891802170E+03  0.12509000000E+03 0.  0.
<mgrwt>
<rscale>  2 0.44920744E+03</rscale>
<asrwt>0</asrwt>
<pdfrwt beam="1">  1       21 0.11065900E+00 0.44920744E+03</pdfrwt>
<pdfrwt beam="2">  1       21 0.98589190E-02 0.44920744E+03</pdfrwt>
<totfact> 0.49025658E+04</totfact>
</mgrwt>
</event>
<event>
 7    0  0.4705418E-002  0.4339711E+03  0.7546771E-02  0.1032613E+00
         21   -1    0    0  502  501  0.00000000000E+00  0.00000000000E+00  0.32671062134E+03  0.32671062134E+03  0.00000000000E+00 0.  1.
         21   -1    0    0  501  502 -0.00000000000E+00 -0.00000000000E+00 -0.14411139777E+03  0.14411139777E+03  0.00000000000E+00 0.  1.
      99926    2    1    2    0    0 -0.53290705182E-14  0.00000000000E+00  0.18259922357E+03  0.47082201911E+03  0.43397107880E+03 0.  0.
      99925    2    3    3    0    0  0.85928504740E+01 -0.89463526074E+02  0.94878454637E+02  0.29356514060E+03  0.26287071166E+03 0.  0.
         25    1    3    3    0    0 -0.85928504740E+01  0.89463526074E+02  0.87720768935E+02  0.17725687851E+03  0.12509000000E+03 0.  0.
         25    1    4    4    0    0  0.40655589728E+02 -0.27045307412E+02  0.41947100229E+02  0.14068188564E+03  0.12509000000E+03 0.  0.
         25    1    4    4    0    0 -0.32062739254E+02 -0.62418218661E+02  0.52931354409E+02  0.15288325497E+03  0.12509000000E+03 0.  0.
<mgrwt>
<rscale>  2 0.43397108E+03</rscale>
<asrwt>0</asrwt>
<pdfrwt beam="1">  1       21 0.48045680E-01 0.43397108E+03</pdfrwt>
<pdfrwt beam="2">  1       21 0.21192853E-01 0.43397108E+03</pdfrwt>
<totfact> 0.79901834E+04</totfact>
</mgrwt>
</event>
<event>
 7    0  0.4705418E-002  0.4491592E+03  0.7546771E-02  0.1027973E+00
         21   -1    0    0  502  501  0.00000000000E+00  0.00000000000E+00  0.84830866379E+02  0.84830866379E+02  0.00000000000E+00 0. -1.
         21   -1    0    0  501  502 -0.00000000000E+00 -0.00000000000E+00 -0.59454780709E+03  0.59454780709E+03  0.00000000000E+00 0. -1.
      99926    2    1    2    0    0  0.71054273576E-14  0.00000000000E+00 -0.50971694071E+03  0.67937867347E+03  0.44915923938E+03 0.  0.
      99925    2    3    3    0    0 -0.35699550420E+02  0.56732086342E+02 -0.44979314465E+03  0.52532882129E+03  0.26298956251E+03 0.  0.
         25    1    3    3    0    0  0.35699550420E+02 -0.56732086342E+02 -0.59923796062E+02  0.15404985218E+03  0.12509000000E+03 0.  0.
         25    1    4    4    0    0  0.45086633718E+01  0.45342369127E+02 -0.28252394022E+03  0.31231961735E+03  0.12509000000E+03 0.  0.
         25    1    4    4    0    0 -0.40208213792E+02  0.11389717215E+02 -0.16726920443E+03  0.21300920394E+03  0.12509000000E+03 0.  0.
<mgrwt>
<rscale>  2 0.44915924E+03</rscale>
<asrwt>0</asrwt>
<pdfrwt beam="1">  1       21 0.12475127E-01 0.44915924E+03</pdfrwt>
<pdfrwt beam="2">  1       21 0.87433500E-01 0.44915924E+03</pdfrwt>
<totfact> 0.56595707E+04</totfact>
</mgrwt>
</event>
<event>
 7    0  0.4705418E-002  0.4484272E+03  0.7546771E-02  0.1028192E+00
         21   -1    0    0  502  501  0.00000000000E+00  0.00000000000E+00  0.12908963951E+03  0.12908963951E+03  0.00000000000E+00 0. -1.
         21   -1    0    0  501  502 -0.00000000000E+00 -0.00000000000E+00 -0.38943277169E+03  0.38943277169E+03  0.00000000000E+00 0. -1.
      99926    2    1    2    0    0  0.14210854715E-13  0.00000000000E+00 -0.26034313218E+03  0.51852241120E+03  0.44842718967E+03 0.  0.
      99925    2    3    3    0    0 -0.85341950169E+02  0.52582500958E+02 -0.20773526568E+03  0.34981182000E+03  0.26299467853E+03 0.  0.
         25    1    4    4    0    0 -0.17541470163E+02  0.30192092439E+02 -0.58606688675E+02  0.14248339440E+03  0.12509000000E+03 0.  0.
         25    1    3    3    0    0  0.85341950169E+02 -0.52582500958E+02 -0.52607866507E+02  0.16871059120E+03  0.12509000000E+03 0.  0.
         25    1    4    4    0    0 -0.67800480006E+02  0.22390408520E+02 -0.14912857700E+03  0.20732842560E+03  0.12509000000E+03 0.  0.
<mgrwt>
<rscale>  2 0.44842719E+03</rscale>
<asrwt>0</asrwt>
<pdfrwt beam="1">  1       21 0.18983771E-01 0.44842719E+03</pdfrwt>
<pdfrwt beam="2">  1       21 0.57269525E-01 0.44842719E+03</pdfrwt>
<totfact> 0.67436212E+04</totfact>
</mgrwt>
</event>
<event>
 7    0  0.4705418E-002  0.4587380E+03  0.7546771E-02  0.1025148E+00
         21   -1    0    0  502  501  0.00000000000E+00  0.00000000000E+00  0.34261303976E+03  0.34261303976E+03  0.00000000000E+00 0. -1.
         21   -1    0    0  501  502 -0.00000000000E+00 -0.00000000000E+00 -0.15355555290E+03  0.15355555290E+03  0.00000000000E+00 0. -1.
      99926    2    1    2    0    0  0.55511151231E-15  0.00000000000E+00  0.18905748686E+03  0.49616859266E+03  0.45873798513E+03 0.  0.
      99925    2    3    3    0    0  0.36392913454E+00 -0.11656003635E+03  0.11201548533E+03  0.30863365560E+03  0.26290852002E+03 0.  0.
         25    1    4    4    0    0 -0.79789007414E+01 -0.99965466329E+02  0.51149329056E+02  0.16828701459E+03  0.12509000000E+03 0.  0.
         25    1    3    3    0    0 -0.36392913454E+00  0.11656003635E+03  0.77042001526E+02  0.18753493706E+03  0.12509000000E+03 0.  0.
         25    1    4    4    0    0  0.83428298759E+01 -0.16594570022E+02  0.60866156278E+02  0.14034664102E+03  0.12509000000E+03 0.  0.
<mgrwt>
<rscale>  2 0.45873799E+03</rscale>
<asrwt>0</asrwt>
<pdfrwt beam="1">  1       21 0.50384271E-01 0.45873799E+03</pdfrwt>
<pdfrwt beam="2">  1       21 0.22581699E-01 0.45873799E+03</pdfrwt>
<totfact> 0.63631388E+04</totfact>
</mgrwt>
</event>
<event>
 7    0  0.4705418E-002  0.4547917E+03  0.7546771E-02  0.1026303E+00
         21   -1    0    0  502  501  0.00000000000E+00  0.00000000000E+00  0.17005872858E+04  0.17005872858E+04  0.00000000000E+00 0. -1.
         21   -1    0    0  501  502 -0.00000000000E+00 -0.00000000000E+00 -0.30406481650E+02  0.30406481650E+02  0.00000000000E+00 0. -1.
      99926    2    1    2    0    0  0.00000000000E+00  0.00000000000E+00  0.16701808042E+04  0.17309937675E+04  0.45479171541E+03 0.  0.
      99925    2    3    3    0    0  0.76438989824E+02 -0.77615637164E+02  0.93781434461E+03  0.98007749685E+03  0.26303811240E+03 0.  0.
         25    1    4    4    0    0  0.65074225368E+02 -0.58183068225E+02  0.41837921568E+03  0.44531853818E+03  0.12509000000E+03 0.  0.
         25    1    4    4    0    0  0.11364764456E+02 -0.19432568939E+02  0.51943512893E+03  0.53475895867E+03  0.12509000000E+03 0.  0.
         25    1    3    3    0    0 -0.76438989824E+02  0.77615637164E+02  0.73236645957E+03  0.75091627063E+03  0.12509000000E+03 0.  0.
<mgrwt>
<rscale>  2 0.45479172E+03</rscale>
<asrwt>0</asrwt>
<pdfrwt beam="1">  1       21 0.25008630E+00 0.45479172E+03</pdfrwt>
<pdfrwt beam="2">  1       21 0.44715426E-02 0.45479172E+03</pdfrwt>
<totfact> 0.18654031E+04</totfact>
</mgrwt>
</event>
<event>
 7    0  0.4705418E-002  0.4432421E+03  0.7546771E-02  0.1029757E+00
         21   -1    0    0  502  501  0.00000000000E+00  0.00000000000E+00  0.13455289554E+03  0.13455289554E+03  0.00000000000E+00 0.  1.
         21   -1    0    0  501  502 -0.00000000000E+00 -0.00000000000E+00 -0.36503038827E+03  0.36503038827E+03  0.00000000000E+00 0.  1.
      99926    2    1    2    0    0  0.00000000000E+00  0.35527136788E-14 -0.23047749272E+03  0.49958328381E+03  0.44324212662E+03 0.  0.
      99925    2    3    3    0    0 -0.12940262947E+02  0.28646454268E+02 -0.25569202056E+03  0.36816277452E+03  0.26301587294E+03 0.  0.
         25    1    3    3    0    0  0.12940262947E+02 -0.28646454268E+02  0.25214527836E+02  0.13142050929E+03  0.12509000000E+03 0.  0.
         25    1    4    4    0    0  0.15693655432E+02 -0.59210871223E+00 -0.82621838708E+02  0.15073326688E+03  0.12509000000E+03 0.  0.
         25    1    4    4    0    0 -0.28633918380E+02  0.29238562980E+02 -0.17307018185E+03  0.21742950764E+03  0.12509000000E+03 0.  0.
<mgrwt>
<rscale>  2 0.44324213E+03</rscale>
<asrwt>0</asrwt>
<pdfrwt beam="1">  1       21 0.19787190E-01 0.44324213E+03</pdfrwt>
<pdfrwt beam="2">  1       21 0.53680940E-01 0.44324213E+03</pdfrwt>
<totfact> 0.71767176E+04</totfact>
</mgrwt>
</event>
<event>
 7    0  0.4705418E-002  0.4344339E+03  0.7546771E-02  0.1032468E+00
         21   -1    0    0  502  501  0.00000000000E+00  0.00000000000E+00  0.23259799336E+03  0.23259799336E+03  0.00000000000E+00 0. -1.
         21   -1    0    0  501  502 -0.00000000000E+00 -0.00000000000E+00 -0.20285304399E+03  0.20285304399E+03  0.00000000000E+00 0. -1.
      99926    2    1    2    0    0  0.35527136788E-14  0.00000000000E+00  0.29744949375E+02  0.43545103736E+03  0.43443393505E+03 0.  0.
      99925    2    3    3    0    0  0.86619407129E+01  0.39880714543E+02  0.10232623266E+03  0.28518110892E+03  0.26304392482E+03 0.  0.
         25    1    4    4    0    0  0.43105420058E+02  0.78223902629E+01  0.51724346800E+02  0.14227502655E+03  0.12509000000E+03 0.  0.
         25    1    3    3    0    0 -0.86619407129E+01 -0.39880714543E+02 -0.72581283286E+02  0.15026992844E+03  0.12509000000E+03 0.  0.
         25    1    4    4    0    0 -0.34443479345E+02  0.32058324280E+02  0.50601885861E+02  0.14290608237E+03  0.12509000000E+03 0.  0.
<mgrwt>
<rscale>  2 0.43443394E+03</rscale>
<asrwt>0</asrwt>
<pdfrwt beam="1">  1       21 0.34205587E-01 0.43443394E+03</pdfrwt>
<pdfrwt beam="2">  1       21 0.29831330E-01 0.43443394E+03</pdfrwt>
<totfact> 0.82773557E+04</totfact>
</mgrwt>
</event>
<event>
 7    0  0.4705418E-002  0.4463348E+03  0.7546771E-02  0.1028821E+00
         21   -1    0    0  502  501  0.00000000000E+00  0.00000000000E+00  0.41982751826E+03  0.41982751826E+03  0.00000000000E+00 0. -1.
         21   -1    0    0  501  502 -0.00000000000E+00 -0.00000000000E+00 -0.11862890921E+03  0.11862890921E+03  0.00000000000E+00 0. -1.
      99926    2    1    2    0    0  0.00000000000E+00 -0.71054273576E-14  0.30119860904E+03  0.53845642747E+03  0.44633476472E+03 0.  0.
      99925    2    3    3    0    0  0.43042133860E+02  0.42558851433E+02  0.87873254158E+02  0.28386048041E+03  0.26304216852E+03 0.  0.
         25    1    3    3    0    0 -0.43042133860E+02 -0.42558851433E+02  0.21332535488E+03  0.25459594706E+03  0.12509000000E+03 0.  0.
         25    1    4    4    0    0  0.13840009018E+01  0.53802421182E+02  0.30037297881E+02  0.13945021817E+03  0.12509000000E+03 0.  0.
         25    1    4    4    0    0  0.41658132959E+02 -0.11243569748E+02  0.57835956277E+02  0.14441026224E+03  0.12509000000E+03 0.  0.
<mgrwt>
<rscale>  2 0.44633476E+03</rscale>
<asrwt>0</asrwt>
<pdfrwt beam="1">  1       21 0.61739341E-01 0.44633476E+03</pdfrwt>
<pdfrwt beam="2">  1       21 0.17445428E-01 0.44633476E+03</pdfrwt>
<totfact> 0.67121812E+04</totfact>
</mgrwt>
</event>
<event>
 7    0  0.4705418E-002  0.4506719E+03  0.7546771E-02  0.1027522E+00
         21   -1    0    0  502  501  0.00000000000E+00  0.00000000000E+00  0.60260202001E+02  0.60260202001E+02  0.00000000000E+00 0.  1.
         21   -1    0    0  501  502 -0.00000000000E+00 -0.00000000000E+00 -0.84261735195E+03  0.84261735195E+03  0.00000000000E+00 0.  1.
      99926    2    1    2    0    0  0.14210854715E-13  0.00000000000E+00 -0.78235714995E+03  0.90287755395E+03  0.45067190655E+03 0.  0.
      99925    2    3    3    0    0 -0.79443427288E+02 -0.78736630584E-01 -0.64386501479E+03  0.70005042574E+03  0.26305356292E+03 0.  0.
         25    1    4    4    0    0 -0.22455248874E+02 -0.21751296180E+01 -0.21580383648E+03  0.25045513237E+03  0.12509000000E+03 0.  0.
         25    1    3    3    0    0  0.79443427288E+02  0.78736630584E-01 -0.13849213516E+03  0.20282712821E+03  0.12509000000E+03 0.  0.
         25    1    4    4    0    0 -0.56988178413E+02  0.20963929875E+01 -0.42806117831E+03  0.44959529337E+03  0.12509000000E+03 0.  0.
<mgrwt>
<rscale>  2 0.45067191E+03</rscale>
<asrwt>0</asrwt>
<pdfrwt beam="1">  1       21 0.88617947E-02 0.45067191E+03</pdfrwt>
<pdfrwt beam="2">  1       21 0.12391431E+00 0.45067191E+03</pdfrwt>
<totfact> 0.44601540E+04</totfact>
</mgrwt>
</event>
<event>
 7    0  0.4705418E-002  0.4225270E+03  0.7546771E-02  0.1036247E+00
         21   -1    0    0  502  501  0.00000000000E+00  0.00000000000E+00  0.95233891976E+02  0.95233891976E+02  0.00000000000E+00 0.  1.
         21   -1    0    0  501  502 -0.00000000000E+00 -0.00000000000E+00 -0.46865951306E+03  0.46865951306E+03  0.00000000000E+00 0.  1.
      99926    2    1    2    0    0  0.00000000000E+00  0.00000000000E+00 -0.37342562109E+03  0.56389340504E+03  0.42252701424E+03 0.  0.
      99925    2    3    3    0    0 -0.41919184689E+02 -0.58486601708E+02 -0.19917510475E+03  0.33764431406E+03  0.26297349646E+03 0.  0.
         25    1    4    4    0    0 -0.48854962109E+02  0.14426761290E+00 -0.95786241199E+02  0.16495253935E+03  0.12509000000E+03 0.  0.
         25    1    3    3    0    0  0.41919184689E+02  0.58486601708E+02 -0.17425051634E+03  0.22624909098E+03  0.12509000000E+03 0.  0.
         25    1    4    4    0    0  0.69357774196E+01 -0.58630869320E+02 -0.10338886355E+03  0.17269177471E+03  0.12509000000E+03 0.  0.
<mgrwt>
<rscale>  2 0.42252701E+03</rscale>
<asrwt>0</asrwt>
<pdfrwt beam="1">  1       21 0.14004984E-01 0.42252701E+03</pdfrwt>
<pdfrwt beam="2">  1       21 0.68920518E-01 0.42252701E+03</pdfrwt>
<totfact> 0.79487865E+04</totfact>
</mgrwt>
</event>
<event>
 7    0  0.4705418E-002  0.4507118E+03  0.7546771E-02  0.1027510E+00
         21   -1    0    0  502  501  0.00000000000E+00  0.00000000000E+00  0.85544443577E+02  0.85544443577E+02  0.00000000000E+00 0. -1.
         21   -1    0    0  501  502 -0.00000000000E+00 -0.00000000000E+00 -0.59367121838E+03  0.59367121838E+03  0.00000000000E+00 0. -1.
      99926    2    1    2    0    0  0.88817841970E-15  0.00000000000E+00 -0.50812677480E+03  0.67921566196E+03  0.45071176618E+03 0.  0.
      99925    2    3    3    0    0  0.79623572656E+01 -0.73269947026E+02 -0.44225533567E+03  0.51978405009E+03  0.26297108686E+03 0.  0.
         25    1    4    4    0    0  0.24293722507E+01 -0.50841584744E+02 -0.29972221433E+03  0.32874257779E+03  0.12509000000E+03 0.  0.
         25    1    4    4    0    0  0.55329850149E+01 -0.22428362283E+02 -0.14253312134E+03  0.19104147230E+03  0.12509000000E+03 0.  0.
         25    1    3    3    0    0 -0.79623572656E+01  0.73269947026E+02 -0.65871439129E+02  0.15943161187E+03  0.12509000000E+03 0.  0.
<mgrwt>
<rscale>  2 0.45071177E+03</rscale>
<asrwt>0</asrwt>
<pdfrwt beam="1">  1       21 0.12580065E-01 0.45071177E+03</pdfrwt>
<pdfrwt beam="2">  1       21 0.87304592E-01 0.45071177E+03</pdfrwt>
<totfact> 0.55910590E+04</totfact>
</mgrwt>
</event>
<event>
 7    0  0.4705418E-002  0.4519696E+03  0.7546771E-02  0.1027136E+00
         21   -1    0    0  502  501  0.00000000000E+00  0.00000000000E+00  0.77976413185E+02  0.77976413185E+02  0.00000000000E+00 0. -1.
         21   -1    0    0  501  502 -0.00000000000E+00 -0.00000000000E+00 -0.65493056183E+03  0.65493056183E+03  0.00000000000E+00 0. -1.
      99926    2    1    2    0    0  0.00000000000E+00 -0.17763568394E-14 -0.57695414865E+03  0.73290697502E+03  0.45196962773E+03 0.  0.
      99925    2    3    3    0    0 -0.93586092345E+02 -0.15808615262E+02 -0.45519509667E+03  0.53420860101E+03  0.26299806911E+03 0.  0.
         25    1    4    4    0    0 -0.72010499255E+02 -0.26367505887E+02 -0.19044855847E+03  0.24041405719E+03  0.12509000000E+03 0.  0.
         25    1    3    3    0    0  0.93586092345E+02  0.15808615262E+02 -0.12175905198E+03  0.19869837401E+03  0.12509000000E+03 0.  0.
         25    1    4    4    0    0 -0.21575593090E+02  0.10558890626E+02 -0.26474653820E+03  0.29379454382E+03  0.12509000000E+03 0.  0.
<mgrwt>
<rscale>  2 0.45196963E+03</rscale>
<asrwt>0</asrwt>
<pdfrwt beam="1">  1       21 0.11467120E-01 0.45196963E+03</pdfrwt>
<pdfrwt beam="2">  1       21 0.96313317E-01 0.45196963E+03</pdfrwt>
<totfact> 0.52389698E+04</totfact>
</mgrwt>
</event>
<event>
 7    0  0.4705418E-002  0.4549457E+03  0.7546771E-02  0.1026257E+00
         21   -1    0    0  502  501  0.00000000000E+00  0.00000000000E+00  0.13970041638E+03  0.13970041638E+03  0.00000000000E+00 0. -1.
         21   -1    0    0  501  502 -0.00000000000E+00 -0.00000000000E+00 -0.37039186654E+03  0.37039186654E+03  0.00000000000E+00 0. -1.
      99926    2    1    2    0    0 -0.71054273576E-14  0.00000000000E+00 -0.23069145016E+03  0.51009228292E+03  0.45494570217E+03 0.  0.
      99925    2    3    3    0    0 -0.39028628198E+02  0.32346487895E+02 -0.25857495791E+03  0.37227164876E+03  0.26297460431E+03 0.  0.
         25    1    4    4    0    0 -0.17620966539E+02  0.36442053717E+02 -0.82600525830E+02  0.15527033428E+03  0.12509000000E+03 0.  0.
         25    1    4    4    0    0 -0.21407661659E+02 -0.40955658221E+01 -0.17597443208E+03  0.21700131447E+03  0.12509000000E+03 0.  0.
         25    1    3    3    0    0  0.39028628198E+02 -0.32346487895E+02  0.27883507753E+02  0.13782063417E+03  0.12509000000E+03 0.  0.
<mgrwt>
<rscale>  2 0.45494570E+03</rscale>
<asrwt>0</asrwt>
<pdfrwt beam="1">  1       21 0.20544179E-01 0.45494570E+03</pdfrwt>
<pdfrwt beam="2">  1       21 0.54469391E-01 0.45494570E+03</pdfrwt>
<totfact> 0.64595136E+04</totfact>
</mgrwt>
</event>
<event>
 7    0  0.4705418E-002  0.4594522E+03  0.7546771E-02  0.1024940E+00
         21   -1    0    0  502  501  0.00000000000E+00  0.00000000000E+00  0.11028353912E+04  0.11028353912E+04  0.00000000000E+00 0.  1.
         21   -1    0    0  501  502 -0.00000000000E+00 -0.00000000000E+00 -0.47853092741E+02  0.47853092741E+02  0.00000000000E+00 0.  1.
      99926    2    1    2    0    0  0.35527136788E-14  0.00000000000E+00  0.10549822985E+04  0.11506884839E+04  0.45945221407E+03 0.  0.
      99925    2    3    3    0    0  0.10860452940E+02  0.89428048950E+02  0.84950087095E+03  0.89381215080E+03  0.26293175121E+03 0.  0.
         25    1    4    4    0    0  0.38482048875E+02  0.43135158563E+02  0.35231320102E+03  0.37830359462E+03  0.12509000000E+03 0.  0.
         25    1    4    4    0    0 -0.27621595935E+02  0.46292890387E+02  0.49718766993E+03  0.51550855618E+03  0.12509000000E+03 0.  0.
         25    1    3    3    0    0 -0.10860452940E+02 -0.89428048950E+02  0.20548142751E+03  0.25687633314E+03  0.12509000000E+03 0.  0.
<mgrwt>
<rscale>  2 0.45945221E+03</rscale>
<asrwt>0</asrwt>
<pdfrwt beam="1">  1       21 0.16218166E+00 0.45945221E+03</pdfrwt>
<pdfrwt beam="2">  1       21 0.70372202E-02 0.45945221E+03</pdfrwt>
<totfact> 0.32612973E+04</totfact>
</mgrwt>
</event>
<event>
 7    0  0.4705418E-002  0.4540031E+03  0.7546771E-02  0.1026535E+00
         21   -1    0    0  502  501  0.00000000000E+00  0.00000000000E+00  0.36865158654E+03  0.36865158654E+03  0.00000000000E+00 0. -1.
         21   -1    0    0  501  502 -0.00000000000E+00 -0.00000000000E+00 -0.13977885996E+03  0.13977885996E+03  0.00000000000E+00 0. -1.
      99926    2    1    2    0    0  0.00000000000E+00  0.00000000000E+00  0.22887272658E+03  0.50843044649E+03  0.45400307703E+03 0.  0.
      99925    2    3    3    0    0 -0.86450656036E+02 -0.64250731870E+02  0.10850073091E+03  0.30412969291E+03  0.26290794782E+03 0.  0.
         25    1    4    4    0    0 -0.13611513473E+02 -0.56505404325E+02  0.67014762387E+02  0.15335129766E+03  0.12509000000E+03 0.  0.
         25    1    4    4    0    0 -0.72839142563E+02 -0.77453275446E+01  0.41485968519E+02  0.15077839524E+03  0.12509000000E+03 0.  0.
         25    1    3    3    0    0  0.86450656036E+02  0.64250731870E+02  0.12037199567E+03  0.20430075359E+03  0.12509000000E+03 0.  0.
<mgrwt>
<rscale>  2 0.45400308E+03</rscale>
<asrwt>0</asrwt>
<pdfrwt beam="1">  1       21 0.54213468E-01 0.45400308E+03</pdfrwt>
<pdfrwt beam="2">  1       21 0.20555715E-01 0.45400308E+03</pdfrwt>
<totfact> 0.65196679E+04</totfact>
</mgrwt>
</event>
<event>
 7    0  0.4705418E-002  0.4582395E+03  0.7546771E-02  0.1025293E+00
         21   -1    0    0  502  501  0.00000000000E+00  0.00000000000E+00  0.28588223501E+02  0.28588223501E+02  0.00000000000E+00 0.  1.
         21   -1    0    0  501  502 -0.00000000000E+00 -0.00000000000E+00 -0.18362759741E+04  0.18362759741E+04  0.00000000000E+00 0.  1.
      99926    2    1    2    0    0  0.00000000000E+00  0.00000000000E+00 -0.18076877506E+04  0.18648641976E+04  0.45823953542E+03 0.  0.
      99925    2    3    3    0    0  0.48245259183E+02 -0.52021802180E+02 -0.75995396007E+03  0.80730688149E+03  0.26302187465E+03 0.  0.
         25    1    4    4    0    0 -0.12000876330E+02 -0.34670332055E+02 -0.31625851037E+03  0.34207163934E+03  0.12509000000E+03 0.  0.
         25    1    4    4    0    0  0.60246135513E+02 -0.17351470125E+02 -0.44369544969E+03  0.46523524215E+03  0.12509000000E+03 0.  0.
         25    1    3    3    0    0 -0.48245259183E+02  0.52021802180E+02 -0.10477337905E+04  0.10575573161E+04  0.12509000000E+03 0.  0.
<mgrwt>
<rscale>  2 0.45823954E+03</rscale>
<asrwt>0</asrwt>
<pdfrwt beam="1">  1       21 0.42041499E-02 0.45823954E+03</pdfrwt>
<pdfrwt beam="2">  1       21 0.27004062E+00 0.45823954E+03</pdfrwt>
<totfact> 0.15647178E+04</totfact>
</mgrwt>
</event>
<event>
 7    0  0.4705418E-002  0.4580634E+03  0.7546771E-02  0.1025344E+00
         21   -1    0    0  502  501  0.00000000000E+00  0.00000000000E+00  0.21665497337E+03  0.21665497337E+03  0.00000000000E+00 0.  1.
         21   -1    0    0  501  502 -0.00000000000E+00 -0.00000000000E+00 -0.24211545512E+03  0.24211545512E+03  0.00000000000E+00 0.  1.
      99926    2    1    2    0    0  0.00000000000E+00  0.00000000000E+00 -0.25460481744E+02  0.45877042849E+03  0.45806339073E+03 0.  0.
      99925    2    3    3    0    0 -0.81292006100E+02 -0.65355357414E+02  0.34915961035E+02  0.28506799344E+03  0.26299224998E+03 0.  0.
         25    1    4    4    0    0 -0.62354784309E+02 -0.48115601864E+02  0.51008685625E+02  0.15637334932E+03  0.12509000000E+03 0.  0.
         25    1    4    4    0    0 -0.18937221791E+02 -0.17239755550E+02 -0.16092724590E+02  0.12869464412E+03  0.12509000000E+03 0.  0.
         25    1    3    3    0    0  0.81292006100E+02  0.65355357414E+02 -0.60376442780E+02  0.17370243505E+03  0.12509000000E+03 0.  0.
<mgrwt>
<rscale>  2 0.45806339E+03</rscale>
<asrwt>0</asrwt>
<pdfrwt beam="1">  1       21 0.31861025E-01 0.45806339E+03</pdfrwt>
<pdfrwt beam="2">  1       21 0.35605214E-01 0.45806339E+03</pdfrwt>
<totfact> 0.66627014E+04</totfact>
</mgrwt>
</event>
<event>
 7    0  0.4705418E-002  0.4582187E+03  0.7546771E-02  0.1025299E+00
         21   -1    0    0  502  501  0.00000000000E+00  0.00000000000E+00  0.85437337723E+03  0.85437337723E+03  0.00000000000E+00 0. -1.
         21   -1    0    0  501  502 -0.00000000000E+00 -0.00000000000E+00 -0.61438132165E+02  0.61438132165E+02  0.00000000000E+00 0. -1.
      99926    2    1    2    0    0  0.00000000000E+00  0.00000000000E+00  0.79293524506E+03  0.91581150939E+03  0.45821874457E+03 0.  0.
      99925    2    3    3    0    0 -0.20133859177E+02  0.14512580160E+02  0.27073518317E+03  0.37826486024E+03  0.26300337987E+03 0.  0.
         25    1    4    4    0    0 -0.38167027219E+01  0.49480636045E+00  0.19107415249E+03  0.22841114662E+03  0.12509000000E+03 0.  0.
         25    1    4    4    0    0 -0.16317156455E+02  0.14017773799E+02  0.79661030682E+02  0.14985371362E+03  0.12509000000E+03 0.  0.
         25    1    3    3    0    0  0.20133859177E+02 -0.14512580160E+02  0.52220006189E+03  0.53754664915E+03  0.12509000000E+03 0.  0.
<mgrwt>
<rscale>  2 0.45821874E+03</rscale>
<asrwt>0</asrwt>
<pdfrwt beam="1">  1       21 0.12564314E+00 0.45821874E+03</pdfrwt>
<pdfrwt beam="2">  1       21 0.90350199E-02 0.45821874E+03</pdfrwt>
<totfact> 0.41501635E+04</totfact>
</mgrwt>
</event>
<event>
 7    0  0.4705418E-002  0.4510320E+03  0.7546771E-02  0.1027415E+00
         21   -1    0    0  502  501  0.00000000000E+00  0.00000000000E+00  0.95377417768E+02  0.95377417768E+02  0.00000000000E+00 0. -1.
         21   -1    0    0  501  502 -0.00000000000E+00 -0.00000000000E+00 -0.53322327408E+03  0.53322327408E+03  0.00000000000E+00 0. -1.
      99926    2    1    2    0    0  0.00000000000E+00 -0.35527136788E-14 -0.43784585631E+03  0.62860069185E+03  0.45103196772E+03 0.  0.
      99925    2    3    3    0    0  0.57610664917E+02 -0.19785925577E+02 -0.14997259374E+03  0.30886799886E+03  0.26305358823E+03 0.  0.
         25    1    3    3    0    0 -0.57610664917E+02  0.19785925577E+02 -0.28787326257E+03  0.31973269299E+03  0.12509000000E+03 0.  0.
         25    1    4    4    0    0  0.14695295156E+01 -0.39278472899E+02 -0.81393033123E+02  0.15432851937E+03  0.12509000000E+03 0.  0.
         25    1    4    4    0    0  0.56141135402E+02  0.19492547322E+02 -0.68579560615E+02  0.15453947948E+03  0.12509000000E+03 0.  0.
<mgrwt>
<rscale>  2 0.45103197E+03</rscale>
<asrwt>0</asrwt>
<pdfrwt beam="1">  1       21 0.14026091E-01 0.45103197E+03</pdfrwt>
<pdfrwt beam="2">  1       21 0.78415187E-01 0.45103197E+03</pdfrwt>
<totfact> 0.58770908E+04</totfact>
</mgrwt>
</event>
<event>
 7    0  0.4705418E-002  0.4547804E+03  0.7546771E-02  0.1026306E+00
         21   -1    0    0  502  501  0.00000000000E+00  0.00000000000E+00  0.19733384039E+03  0.19733384039E+03  0.00000000000E+00 0. -1.
         21   -1    0    0  501  502 -0.00000000000E+00 -0.00000000000E+00 -0.26202452062E+03  0.26202452062E+03  0.00000000000E+00 0. -1.
      99926    2    1    2    0    0 -0.35527136788E-14  0.00000000000E+00 -0.64690680232E+02  0.45935836101E+03  0.45478040824E+03 0.  0.
      99925    2    3    3    0    0 -0.50867745736E+01 -0.88873623201E+02 -0.11083869024E+03  0.29904135285E+03  0.26308956514E+03 0.  0.
         25    1    4    4    0    0  0.33499725622E+02 -0.29957611807E+02 -0.67582201469E+02  0.14911254869E+03  0.12509000000E+03 0.  0.
         25    1    3    3    0    0  0.50867745736E+01  0.88873623201E+02  0.46148010011E+02  0.16031700816E+03  0.12509000000E+03 0.  0.
         25    1    4    4    0    0 -0.38586500196E+02 -0.58916011394E+02 -0.43256488773E+02  0.14992880416E+03  0.12509000000E+03 0.  0.
<mgrwt>
<rscale>  2 0.45478041E+03</rscale>
<asrwt>0</asrwt>
<pdfrwt beam="1">  1       21 0.29019682E-01 0.45478041E+03</pdfrwt>
<pdfrwt beam="2">  1       21 0.38533018E-01 0.45478041E+03</pdfrwt>
<totfact> 0.68346972E+04</totfact>
</mgrwt>
</event>
<event>
 7    0  0.4705418E-002  0.4484246E+03  0.7546771E-02  0.1028193E+00
         21   -1    0    0  502  501  0.00000000000E+00  0.00000000000E+00  0.54461899114E+02  0.54461899114E+02  0.00000000000E+00 0.  1.
         21   -1    0    0  501  502 -0.00000000000E+00 -0.00000000000E+00 -0.92305202560E+03  0.92305202560E+03  0.00000000000E+00 0.  1.
      99926    2    1    2    0    0  0.00000000000E+00  0.00000000000E+00 -0.86859012649E+03  0.97751392472E+03  0.44842464828E+03 0.  0.
      99925    2    3    3    0    0  0.89551662773E+02 -0.27976810698E+02 -0.43835041236E+03  0.51974114051E+03  0.26301628635E+03 0.  0.
         25    1    3    3    0    0 -0.89551662773E+02  0.27976810698E+02 -0.43023971413E+03  0.45777278420E+03  0.12509000000E+03 0.  0.
         25    1    4    4    0    0  0.11643041491E+02  0.12908635833E+02 -0.19500327648E+03  0.23232731056E+03  0.12509000000E+03 0.  0.
         25    1    4    4    0    0  0.77908621282E+02 -0.40885446531E+02 -0.24334713588E+03  0.28741382996E+03  0.12509000000E+03 0.  0.
<mgrwt>
<rscale>  2 0.44842465E+03</rscale>
<asrwt>0</asrwt>
<pdfrwt beam="1">  1       21 0.80091030E-02 0.44842465E+03</pdfrwt>
<pdfrwt beam="2">  1       21 0.13574294E+00 0.44842465E+03</pdfrwt>
<totfact> 0.42172543E+04</totfact>
</mgrwt>
</event>
<event>
 7    0  0.4705418E-002  0.4557929E+03  0.7546771E-02  0.1026008E+00
         21   -1    0    0  502  501  0.00000000000E+00  0.00000000000E+00  0.71743941679E+03  0.71743941679E+03  0.00000000000E+00 0.  1.
         21   -1    0    0  501  502 -0.00000000000E+00 -0.00000000000E+00 -0.72391884951E+02  0.72391884951E+02  0.00000000000E+00 0.  1.
      99926    2    1    2    0    0  0.71054273576E-14  0.00000000000E+00  0.64504753184E+03  0.78983130174E+03  0.45579289911E+03 0.  0.
      99925    2    3    3    0    0 -0.37849322995E+02  0.90035625869E+02  0.30406512775E+03  0.41372560758E+03  0.26301005928E+03 0.  0.
         25    1    3    3    0    0  0.37849322995E+02 -0.90035625869E+02  0.34098240409E+03  0.37610569416E+03  0.12509000000E+03 0.  0.
         25    1    4    4    0    0 -0.38331230647E+01  0.23330127657E+02  0.18958404456E+03  0.22836069219E+03  0.12509000000E+03 0.  0.
         25    1    4    4    0    0 -0.34016199930E+02  0.66705498212E+02  0.11448108319E+03  0.18536491539E+03  0.12509000000E+03 0.  0.
<mgrwt>
<rscale>  2 0.45579290E+03</rscale>
<asrwt>0</asrwt>
<pdfrwt beam="1">  1       21 0.10550579E+00 0.45579290E+03</pdfrwt>
<pdfrwt beam="2">  1       21 0.10645866E-01 0.45579290E+03</pdfrwt>
<totfact> 0.47961449E+04</totfact>
</mgrwt>
</event>
<event>
 7    0  0.4705418E-002  0.4566407E+03  0.7546771E-02  0.1025760E+00
         21   -1    0    0  502  501  0.00000000000E+00  0.00000000000E+00  0.24310579182E+04  0.24310579182E+04  0.00000000000E+00 0.  1.
         21   -1    0    0  501  502 -0.00000000000E+00 -0.00000000000E+00 -0.21443412677E+02  0.21443412677E+02  0.00000000000E+00 0.  1.
      99926    2    1    2    0    0 -0.14210854715E-13 -0.14210854715E-13  0.24096145055E+04  0.24525013309E+04  0.45664068230E+03 0.  0.
      99925    2    3    3    0    0  0.88279850890E+02  0.69538983788E+02  0.16378768438E+04  0.16626560745E+04  0.26297464594E+03 0.  0.
         25    1    4    4    0    0  0.34261270995E+02  0.44645859601E+02  0.59409370479E+03  0.60972282690E+03  0.12509000000E+03 0.  0.
         25    1    3    3    0    0 -0.88279850890E+02 -0.69538983788E+02  0.77173766178E+03  0.78984525640E+03  0.12509000000E+03 0.  0.
         25    1    4    4    0    0  0.54018579895E+02  0.24893124187E+02  0.10437831390E+04  0.10529332476E+04  0.12509000000E+03 0.  0.
<mgrwt>
<rscale>  2 0.45664068E+03</rscale>
<asrwt>0</asrwt>
<pdfrwt beam="1">  1       21 0.35750833E+00 0.45664068E+03</pdfrwt>
<pdfrwt beam="2">  1       21 0.31534447E-02 0.45664068E+03</pdfrwt>
<totfact> 0.75336368E+03</totfact>
</mgrwt>
</event>
<event>
 7    0  0.4705418E-002  0.4390180E+03  0.7546771E-02  0.1031049E+00
         21   -1    0    0  502  501  0.00000000000E+00  0.00000000000E+00  0.59425372856E+02  0.59425372856E+02  0.00000000000E+00 0.  1.
         21   -1    0    0  501  502 -0.00000000000E+00 -0.00000000000E+00 -0.81083549790E+03  0.81083549790E+03  0.00000000000E+00 0.  1.
      99926    2    1    2    0    0  0.00000000000E+00  0.00000000000E+00 -0.75141012504E+03  0.87026087075E+03  0.43901800322E+03 0.  0.
      99925    2    3    3    0    0  0.35716147562E+02 -0.55403993694E+02 -0.62219523532E+03  0.67871651156E+03  0.26302841385E+03 0.  0.
         25    1    4    4    0    0  0.19562184708E+01 -0.19213056299E+02 -0.39387494650E+03  0.41371239999E+03  0.12509000000E+03 0.  0.
         25    1    3    3    0    0 -0.35716147562E+02  0.55403993694E+02 -0.12921488972E+03  0.19154435919E+03  0.12509000000E+03 0.  0.
         25    1    4    4    0    0  0.33759929091E+02 -0.36190937395E+02 -0.22832028882E+03  0.26500411157E+03  0.12509000000E+03 0.  0.
<mgrwt>
<rscale>  2 0.43901800E+03</rscale>
<asrwt>0</asrwt>
<pdfrwt beam="1">  1       21 0.87390256E-02 0.43901800E+03</pdfrwt>
<pdfrwt beam="2">  1       21 0.11924051E+00 0.43901800E+03</pdfrwt>
<totfact> 0.50585256E+04</totfact>
</mgrwt>
</event>
<event>
 7    0  0.4705418E-002  0.4525898E+03  0.7546771E-02  0.1026953E+00
         21   -1    0    0  502  501  0.00000000000E+00  0.00000000000E+00  0.33766373577E+03  0.33766373577E+03  0.00000000000E+00 0. -1.
         21   -1    0    0  501  502 -0.00000000000E+00 -0.00000000000E+00 -0.15165789898E+03  0.15165789898E+03  0.00000000000E+00 0. -1.
      99926    2    1    2    0    0  0.00000000000E+00  0.00000000000E+00  0.18600583678E+03  0.48932163475E+03  0.45258976006E+03 0.  0.
      99925    2    3    3    0    0 -0.65832854697E+02  0.52805593916E+02  0.39997913283E+02  0.27934969059E+03  0.26327556108E+03 0.  0.
         25    1    4    4    0    0 -0.64232039192E+02  0.55196730811E+02  0.15554685251E+02  0.15186141802E+03  0.12509000000E+03 0.  0.
         25    1    3    3    0    0  0.65832854697E+02 -0.52805593916E+02  0.14600792350E+03  0.20997194415E+03  0.12509000000E+03 0.  0.
         25    1    4    4    0    0 -0.16008155051E+01 -0.23911368951E+01  0.24443228031E+02  0.12748827257E+03  0.12509000000E+03 0.  0.
<mgrwt>
<rscale>  2 0.45258976E+03</rscale>
<asrwt>0</asrwt>
<pdfrwt beam="1">  1       21 0.49656432E-01 0.45258976E+03</pdfrwt>
<pdfrwt beam="2">  1       21 0.22302632E-01 0.45258976E+03</pdfrwt>
<totfact> 0.67306213E+04</totfact>
</mgrwt>
</event>
<event>
 7    0  0.4705418E-002  0.4758275E+03  0.7546771E-02  0.1020288E+00
         21   -1    0    0  502  501  0.00000000000E+00  0.00000000000E+00  0.20337710339E+02  0.20337710339E+02  0.00000000000E+00 0. -1.
         21   -1    0    0  501  502 -0.00000000000E+00 -0.00000000000E+00 -0.27831526973E+04  0.27831526973E+04  0.00000000000E+00 0. -1.
      99926    2    1    2    0    0  0.00000000000E+00  0.35527136788E-14 -0.27628149870E+04  0.28034904077E+04  0.47582750399E+03 0.  0.
      99925    2    3    3    0    0 -0.95032873422E+02  0.25647758473E+02 -0.11922507174E+04  0.12248806752E+04  0.26302441085E+03 0.  0.
         25    1    4    4    0    0 -0.47858543626E+02 -0.13614404707E+01 -0.42515070277E+03  0.44574984227E+03  0.12509000000E+03 0.  0.
         25    1    3    3    0    0  0.95032873422E+02 -0.25647758473E+02 -0.15705642696E+04  0.15786097325E+04  0.12509000000E+03 0.  0.
         25    1    4    4    0    0 -0.47174329796E+02  0.27009198943E+02 -0.76710001465E+03  0.77913083291E+03  0.12509000000E+03 0.  0.
<mgrwt>
<rscale>  2 0.47582750E+03</rscale>
<asrwt>0</asrwt>
<pdfrwt beam="1">  1       21 0.29908422E-02 0.47582750E+03</pdfrwt>
<pdfrwt beam="2">  1       21 0.40928683E+00 0.47582750E+03</pdfrwt>
<totfact> 0.38382209E+03</totfact>
</mgrwt>
</event>
<event>
 7    0  0.4705418E-002  0.4577292E+03  0.7546771E-02  0.1025442E+00
         21   -1    0    0  502  501  0.00000000000E+00  0.00000000000E+00  0.13288713537E+03  0.13288713537E+03  0.00000000000E+00 0.  1.
         21   -1    0    0  501  502 -0.00000000000E+00 -0.00000000000E+00 -0.39416154552E+03  0.39416154552E+03  0.00000000000E+00 0.  1.
      99926    2    1    2    0    0  0.17763568394E-14  0.00000000000E+00 -0.26127441015E+03  0.52704868088E+03  0.45772917170E+03 0.  0.
      99925    2    3    3    0    0  0.15734030481E+02 -0.53052963105E+02 -0.28152077079E+03  0.38877503977E+03  0.26235455123E+03 0.  0.
         25    1    3    3    0    0 -0.15734030481E+02  0.53052963105E+02  0.20246360634E+02  0.13827364112E+03  0.12509000000E+03 0.  0.
         25    1    4    4    0    0  0.38375990117E+02 -0.40032261324E+02 -0.17676925973E+03  0.22354010345E+03  0.12509000000E+03 0.  0.
         25    1    4    4    0    0 -0.22641959636E+02 -0.13020701781E+02 -0.10475151106E+03  0.16523493632E+03  0.12509000000E+03 0.  0.
<mgrwt>
<rscale>  2 0.45772917E+03</rscale>
<asrwt>0</asrwt>
<pdfrwt beam="1">  1       21 0.19542226E-01 0.45772917E+03</pdfrwt>
<pdfrwt beam="2">  1       21 0.57964934E-01 0.45772917E+03</pdfrwt>
<totfact> 0.62053354E+04</totfact>
</mgrwt>
</event>
<event>
 7    0  0.4705418E-002  0.4245982E+03  0.7546771E-02  0.1035580E+00
         21   -1    0    0  502  501  0.00000000000E+00  0.00000000000E+00  0.10061985467E+04  0.10061985467E+04  0.00000000000E+00 0.  1.
         21   -1    0    0  501  502 -0.00000000000E+00 -0.00000000000E+00 -0.44793250372E+02  0.44793250372E+02  0.00000000000E+00 0.  1.
      99926    2    1    2    0    0  0.00000000000E+00  0.00000000000E+00  0.96140529630E+03  0.10509917970E+04  0.42459817911E+03 0.  0.
      99925    2    3    3    0    0  0.64423645819E+02  0.45176003746E+02  0.66571918154E+03  0.72043308211E+03  0.26391384897E+03 0.  0.
         25    1    4    4    0    0 -0.83766909778E+01  0.20082084771E+02  0.34678180089E+03  0.36929471241E+03  0.12509000000E+03 0.  0.
         25    1    3    3    0    0 -0.64423645819E+02 -0.45176003746E+02  0.29568611476E+03  0.33055871493E+03  0.12509000000E+03 0.  0.
         25    1    4    4    0    0  0.72800336797E+02  0.25093918975E+02  0.31893738065E+03  0.35113836971E+03  0.12509000000E+03 0.  0.
<mgrwt>
<rscale>  2 0.42459818E+03</rscale>
<asrwt>0</asrwt>
<pdfrwt beam="1">  1       21 0.14797036E+00 0.42459818E+03</pdfrwt>
<pdfrwt beam="2">  1       21 0.65872433E-02 0.42459818E+03</pdfrwt>
<totfact> 0.47564365E+04</totfact>
</mgrwt>
</event>
<event>
 7    0  0.4705418E-002  0.4519425E+03  0.7546771E-02  0.1027144E+00
         21   -1    0    0  502  501  0.00000000000E+00  0.00000000000E+00  0.26568911421E+03  0.26568911421E+03  0.00000000000E+00 0.  1.
         21   -1    0    0  501  502 -0.00000000000E+00 -0.00000000000E+00 -0.19219080042E+03  0.19219080042E+03  0.00000000000E+00 0.  1.
      99926    2    1    2    0    0  0.71054273576E-14  0.71054273576E-14  0.73498313791E+02  0.45787991462E+03  0.45194248980E+03 0.  0.
      99925    2    3    3    0    0 -0.48060669473E+02 -0.51736818354E+02  0.13201064271E+03  0.30277437939E+03  0.26317102558E+03 0.  0.
         25    1    4    4    0    0 -0.83155756087E+00 -0.56394628941E+02  0.51112228633E+02  0.14642750314E+03  0.12509000000E+03 0.  0.
         25    1    3    3    0    0  0.48060669473E+02  0.51736818354E+02 -0.58512328920E+02  0.15510553523E+03  0.12509000000E+03 0.  0.
         25    1    4    4    0    0 -0.47229111913E+02  0.46578105873E+01  0.80898414079E+02  0.15634687625E+03  0.12509000000E+03 0.  0.
<mgrwt>
<rscale>  2 0.45194249E+03</rscale>
<asrwt>0</asrwt>
<pdfrwt beam="1">  1       21 0.39071929E-01 0.45194249E+03</pdfrwt>
<pdfrwt beam="2">  1       21 0.28263353E-01 0.45194249E+03</pdfrwt>
<totfact> 0.70027198E+04</totfact>
</mgrwt>
</event>
<event>
 7    0  0.4705418E-002  0.4596200E+03  0.7546771E-02  0.1024892E+00
         21   -1    0    0  502  501  0.00000000000E+00  0.00000000000E+00  0.54670644423E+03  0.54670644423E+03  0.00000000000E+00 0. -1.
         21   -1    0    0  501  502 -0.00000000000E+00 -0.00000000000E+00 -0.96601431682E+02  0.96601431682E+02  0.00000000000E+00 0. -1.
      99926    2    1    2    0    0  0.71054273576E-14  0.00000000000E+00  0.45010501254E+03  0.64330787591E+03  0.45961995267E+03 0.  0.
      99925    2    3    3    0    0 -0.62930093730E+02 -0.94641299970E+02  0.24061364613E+03  0.37414006012E+03  0.26299940213E+03 0.  0.
         25    1    3    3    0    0  0.62930093730E+02  0.94641299970E+02  0.20949136641E+03  0.26916781579E+03  0.12509000000E+03 0.  0.
         25    1    4    4    0    0 -0.43486827400E+01 -0.55641709907E+02  0.15569482852E+03  0.20737236713E+03  0.12509000000E+03 0.  0.
         25    1    4    4    0    0 -0.58581410990E+02 -0.38999590064E+02  0.84918817619E+02  0.16676769299E+03  0.12509000000E+03 0.  0.
<mgrwt>
<rscale>  2 0.45961995E+03</rscale>
<asrwt>0</asrwt>
<pdfrwt beam="1">  1       21 0.80398005E-01 0.45961995E+03</pdfrwt>
<pdfrwt beam="2">  1       21 0.14206093E-01 0.45961995E+03</pdfrwt>
<totfact> 0.54089649E+04</totfact>
</mgrwt>
</event>
<event>
 7    0  0.4705418E-002  0.4565289E+03  0.7546771E-02  0.1025793E+00
         21   -1    0    0  502  501  0.00000000000E+00  0.00000000000E+00  0.10570654362E+04  0.10570654362E+04  0.00000000000E+00 0. -1.
         21   -1    0    0  501  502 -0.00000000000E+00 -0.00000000000E+00 -0.49291790782E+02  0.49291790782E+02  0.00000000000E+00 0. -1.
      99926    2    1    2    0    0  0.00000000000E+00 -0.44408920985E-15  0.10077736454E+04  0.11063572270E+04  0.45652885264E+03 0.  0.
      99925    2    3    3    0    0  0.41001665489E+02  0.39127402551E+01  0.89364548861E+03  0.93208964427E+03  0.26171052620E+03 0.  0.
         25    1    4    4    0    0  0.29435668697E+01  0.57977289613E+00  0.55808125793E+03  0.57193635947E+03  0.12509000000E+03 0.  0.
         25    1    4    4    0    0  0.38058098620E+02  0.33329673590E+01  0.33556423068E+03  0.36015328480E+03  0.12509000000E+03 0.  0.
         25    1    3    3    0    0 -0.41001665489E+02 -0.39127402551E+01  0.11412815681E+03  0.17426758272E+03  0.12509000000E+03 0.  0.
<mgrwt>
<rscale>  2 0.45652885E+03</rscale>
<asrwt>0</asrwt>
<pdfrwt beam="1">  1       21 0.15545078E+00 0.45652885E+03</pdfrwt>
<pdfrwt beam="2">  1       21 0.72487934E-02 0.45652885E+03</pdfrwt>
<totfact> 0.34855848E+04</totfact>
</mgrwt>
</event>
<event>
 7    0  0.4705418E-002  0.4446591E+03  0.7546771E-02  0.1029327E+00
         21   -1    0    0  502  501  0.00000000000E+00  0.00000000000E+00  0.32455223625E+03  0.32455223625E+03  0.00000000000E+00 0. -1.
         21   -1    0    0  501  502 -0.00000000000E+00 -0.00000000000E+00 -0.15230343557E+03  0.15230343557E+03  0.00000000000E+00 0. -1.
      99926    2    1    2    0    0  0.00000000000E+00  0.00000000000E+00  0.17224880068E+03  0.47685567182E+03  0.44465906312E+03 0.  0.
      99925    2    3    3    0    0  0.39777225930E+02  0.17159745270E+02  0.88194475380E+01  0.26653842067E+03  0.26284646180E+03 0.  0.
         25    1    3    3    0    0 -0.39777225930E+02 -0.17159745270E+02  0.16342935315E+03  0.21031725115E+03  0.12509000000E+03 0.  0.
         25    1    4    4    0    0  0.57142165802E+02 -0.33449592271E+01 -0.62779566962E+01  0.13770743155E+03  0.12509000000E+03 0.  0.
         25    1    4    4    0    0 -0.17364939872E+02  0.20504704497E+02  0.15097404234E+02  0.12883098912E+03  0.12509000000E+03 0.  0.
<mgrwt>
<rscale>  2 0.44465906E+03</rscale>
<asrwt>0</asrwt>
<pdfrwt beam="1">  1       21 0.47728270E-01 0.44465906E+03</pdfrwt>
<pdfrwt beam="2">  1       21 0.22397564E-01 0.44465906E+03</pdfrwt>
<totfact> 0.72718003E+04</totfact>
</mgrwt>
</event>
<event>
 6    0  0.4705418E-002  0.4573464E+03  0.7546771E-02  0.1025554E+00
         21   -1    0    0  502  501  0.00000000000E+00  0.00000000000E+00  0.55415509540E+03  0.55415509540E+03  0.00000000000E+00 0.  1.
         21   -1    0    0  501  502 -0.00000000000E+00 -0.00000000000E+00 -0.94362454973E+02  0.94362454973E+02  0.00000000000E+00 0.  1.
      99926    2    1    2    0    0  0.00000000000E+00 -0.14210854715E-13  0.45979264043E+03  0.64851755037E+03  0.45734641242E+03 0.  0.
         25    1    3    3    0    0  0.52879783719E+02  0.19934991232E+02  0.12574840486E+03  0.18615543190E+03  0.12509000000E+03 0.  0.
         25    1    3    3    0    0 -0.64519242667E+02 -0.96073125968E+02  0.20719735526E+03  0.26827417008E+03  0.12509000000E+03 0.  0.
         25    1    3    3    0    0  0.11639458948E+02  0.76138134736E+02  0.12684688032E+03  0.19408794839E+03  0.12509000000E+03 0.  0.
<mgrwt>
<rscale>  2 0.45734641E+03</rscale>
<asrwt>0</asrwt>
<pdfrwt beam="1">  1       21 0.81493395E-01 0.45734641E+03</pdfrwt>
<pdfrwt beam="2">  1       21 0.13876832E-01 0.45734641E+03</pdfrwt>
<totfact> 0.54766080E+04</totfact>
</mgrwt>
</event>
<event>
 7    0  0.4705418E-002  0.4615857E+03  0.7546771E-02  0.1024322E+00
         21   -1    0    0  502  501  0.00000000000E+00  0.00000000000E+00  0.82635810666E+02  0.82635810666E+02  0.00000000000E+00 0. -1.
         21   -1    0    0  501  502 -0.00000000000E+00 -0.00000000000E+00 -0.64457951575E+03  0.64457951575E+03  0.00000000000E+00 0. -1.
      99926    2    1    2    0    0  0.00000000000E+00  0.00000000000E+00 -0.56194370508E+03  0.72721532641E+03  0.46158574858E+03 0.  0.
      99925    2    3    3    0    0 -0.89478532584E+02  0.58298665124E+02 -0.26790143300E+03  0.39029766879E+03  0.26297518953E+03 0.  0.
         25    1    4    4    0    0 -0.67498354825E+02  0.13960851835E+01 -0.16126697935E+03  0.21497098336E+03  0.12509000000E+03 0.  0.
         25    1    4    4    0    0 -0.21980177759E+02  0.56902579941E+02 -0.10663445365E+03  0.17532668543E+03  0.12509000000E+03 0.  0.
         25    1    3    3    0    0  0.89478532584E+02 -0.58298665124E+02 -0.29404227209E+03  0.33691765763E+03  0.12509000000E+03 0.  0.
<mgrwt>
<rscale>  2 0.46158575E+03</rscale>
<asrwt>0</asrwt>
<pdfrwt beam="1">  1       21 0.12152325E-01 0.46158575E+03</pdfrwt>
<pdfrwt beam="2">  1       21 0.94791109E-01 0.46158575E+03</pdfrwt>
<totfact> 0.48869518E+04</totfact>
</mgrwt>
</event>
<event>
 7    0  0.4705418E-002  0.4585316E+03  0.7546771E-02  0.1025208E+00
         21   -1    0    0  502  501  0.00000000000E+00  0.00000000000E+00  0.29582359419E+03  0.29582359419E+03  0.00000000000E+00 0.  1.
         21   -1    0    0  501  502 -0.00000000000E+00 -0.00000000000E+00 -0.17768294746E+03  0.17768294746E+03  0.00000000000E+00 0.  1.
      99926    2    1    2    0    0  0.00000000000E+00 -0.35527136788E-14  0.11814064673E+03  0.47350654165E+03  0.45853160477E+03 0.  0.
      99925    2    3    3    0    0 -0.10595558949E+03  0.26727368168E+02  0.32399437142E+02  0.28658409176E+03  0.26294444084E+03 0.  0.
         25    1    4    4    0    0 -0.65471657293E+02  0.52685533710E+02  0.19327436500E+02  0.15193209428E+03  0.12509000000E+03 0.  0.
         25    1    4    4    0    0 -0.40483932193E+02 -0.25958165542E+02  0.13072000641E+02  0.13465199748E+03  0.12509000000E+03 0.  0.
         25    1    3    3    0    0  0.10595558949E+03 -0.26727368168E+02  0.85741209583E+02  0.18692244989E+03  0.12509000000E+03 0.  0.
<mgrwt>
<rscale>  2 0.45853160E+03</rscale>
<asrwt>0</asrwt>
<pdfrwt beam="1">  1       21 0.43503470E-01 0.45853160E+03</pdfrwt>
<pdfrwt beam="2">  1       21 0.26129845E-01 0.45853160E+03</pdfrwt>
<totfact> 0.65326261E+04</totfact>
</mgrwt>
</event>
<event>
 7    0  0.4705418E-002  0.4510471E+03  0.7546771E-02  0.1027410E+00
         21   -1    0    0  502  501  0.00000000000E+00  0.00000000000E+00  0.89072838386E+02  0.89072838386E+02  0.00000000000E+00 0.  1.
         21   -1    0    0  501  502 -0.00000000000E+00 -0.00000000000E+00 -0.57100307332E+03  0.57100307332E+03  0.00000000000E+00 0.  1.
      99926    2    1    2    0    0  0.71054273576E-14  0.00000000000E+00 -0.48193023493E+03  0.66007591170E+03  0.45104706835E+03 0.  0.
      99925    2    3    3    0    0 -0.43820529759E+02  0.10020251794E+03 -0.30868994448E+03  0.42003322849E+03  0.26301644013E+03 0.  0.
         25    1    3    3    0    0  0.43820529759E+02 -0.10020251794E+03 -0.17324029045E+03  0.24004268322E+03  0.12509000000E+03 0.  0.
         25    1    4    4    0    0 -0.56022370487E+02  0.28130294778E+02 -0.15547327066E+03  0.20916325076E+03  0.12509000000E+03 0.  0.
         25    1    4    4    0    0  0.12201840727E+02  0.72072223167E+02 -0.15321667382E+03  0.21086997772E+03  0.12509000000E+03 0.  0.
<mgrwt>
<rscale>  2 0.45104707E+03</rscale>
<asrwt>0</asrwt>
<pdfrwt beam="1">  1       21 0.13098947E-01 0.45104707E+03</pdfrwt>
<pdfrwt beam="2">  1       21 0.83971037E-01 0.45104707E+03</pdfrwt>
<totfact> 0.56876497E+04</totfact>
</mgrwt>
</event>
<event>
 7    0  0.4705418E-002  0.4583426E+03  0.7546771E-02  0.1025263E+00
         21   -1    0    0  502  501  0.00000000000E+00  0.00000000000E+00  0.44100828621E+02  0.44100828621E+02  0.00000000000E+00 0. -1.
         21   -1    0    0  501  502 -0.00000000000E+00 -0.00000000000E+00 -0.11908955398E+04  0.11908955398E+04  0.00000000000E+00 0. -1.
      99926    2    1    2    0    0  0.00000000000E+00  0.00000000000E+00 -0.11467947112E+04  0.12349963684E+04  0.45834257976E+03 0.  0.
      99925    2    3    3    0    0 -0.61199266398E+02 -0.39727133254E+02 -0.96351167409E+03  0.10014074665E+04  0.26294214667E+03 0.  0.
         25    1    4    4    0    0  0.95536225311E+01 -0.28954421900E+02 -0.45868160540E+03  0.47640943891E+03  0.12509000000E+03 0.  0.
         25    1    3    3    0    0  0.61199266398E+02  0.39727133254E+02 -0.18328303710E+03  0.23358890194E+03  0.12509000000E+03 0.  0.
         25    1    4    4    0    0 -0.70752888929E+02 -0.10772711354E+02 -0.50483006869E+03  0.52499802757E+03  0.12509000000E+03 0.  0.
<mgrwt>
<rscale>  2 0.45834258E+03</rscale>
<asrwt>0</asrwt>
<pdfrwt beam="1">  1       21 0.64854156E-02 0.45834258E+03</pdfrwt>
<pdfrwt beam="2">  1       21 0.17513171E+00 0.45834258E+03</pdfrwt>
<totfact> 0.30267143E+04</totfact>
</mgrwt>
</event>
<event>
 7    0  0.4705418E-002  0.4414991E+03  0.7546771E-02  0.1030288E+00
         21   -1    0    0  502  501  0.00000000000E+00  0.00000000000E+00  0.28196485641E+02  0.28196485641E+02  0.00000000000E+00 0. -1.
         21   -1    0    0  501  502 -0.00000000000E+00 -0.00000000000E+00 -0.17282425814E+04  0.17282425814E+04  0.00000000000E+00 0. -1.
      99926    2    1    2    0    0  0.00000000000E+00  0.00000000000E+00 -0.17000460957E+04  0.17564390670E+04  0.44149911497E+03 0.  0.
      99925    2    3    3    0    0  0.34458887376E+02  0.34689944366E+02 -0.14320625832E+04  0.14566833694E+04  0.26216862769E+03 0.  0.
         25    1    4    4    0    0  0.25507376325E+02 -0.15558401676E+02 -0.59027113641E+03  0.60411936957E+03  0.12509000000E+03 0.  0.
         25    1    4    4    0    0  0.89515110514E+01  0.50248346042E+02 -0.84179144677E+03  0.85256399982E+03  0.12509000000E+03 0.  0.
         25    1    3    3    0    0 -0.34458887376E+02 -0.34689944366E+02 -0.26798351254E+03  0.29975569762E+03  0.12509000000E+03 0.  0.
<mgrwt>
<rscale>  2 0.44149911E+03</rscale>
<asrwt>0</asrwt>
<pdfrwt beam="1">  1       21 0.41465392E-02 0.44149911E+03</pdfrwt>
<pdfrwt beam="2">  1       21 0.25415349E+00 0.44149911E+03</pdfrwt>
<totfact> 0.20141238E+04</totfact>
</mgrwt>
</event>
<event>
 7    0  0.4705418E-002  0.4502506E+03  0.7546771E-02  0.1027647E+00
         21   -1    0    0  502  501  0.00000000000E+00  0.00000000000E+00  0.45500332686E+03  0.45500332686E+03  0.00000000000E+00 0. -1.
         21   -1    0    0  501  502 -0.00000000000E+00 -0.00000000000E+00 -0.11138689643E+03  0.11138689643E+03  0.00000000000E+00 0. -1.
      99926    2    1    2    0    0  0.14210854715E-13  0.00000000000E+00  0.34361643043E+03  0.56639022330E+03  0.45025063441E+03 0.  0.
      99925    2    3    3    0    0  0.72419055815E+02 -0.16723749108E+02  0.11731070675E+03  0.29734377359E+03  0.26292073776E+03 0.  0.
         25    1    3    3    0    0 -0.72419055815E+02  0.16723749108E+02  0.22630572368E+03  0.26904644970E+03  0.12509000000E+03 0.  0.
         25    1    4    4    0    0  0.65648151715E+02  0.11938120887E+02  0.83200431464E+02  0.16438375361E+03  0.12509000000E+03 0.  0.
         25    1    4    4    0    0  0.67709040998E+01 -0.28661869996E+02  0.34110275288E+02  0.13296001998E+03  0.12509000000E+03 0.  0.
<mgrwt>
<rscale>  2 0.45025063E+03</rscale>
<asrwt>0</asrwt>
<pdfrwt beam="1">  1       21 0.66912253E-01 0.45025063E+03</pdfrwt>
<pdfrwt beam="2">  1       21 0.16380426E-01 0.45025063E+03</pdfrwt>
<totfact> 0.63134390E+04</totfact>
</mgrwt>
</event>
<event>
 7    0  0.4705418E-002  0.4702201E+03  0.7546771E-02  0.1021858E+00
         21   -1    0    0  502  501  0.00000000000E+00  0.00000000000E+00  0.12170621511E+03  0.12170621511E+03  0.00000000000E+00 0. -1.
         21   -1    0    0  501  502 -0.00000000000E+00 -0.00000000000E+00 -0.45418171056E+03  0.45418171056E+03  0.00000000000E+00 0. -1.
      99926    2    1    2    0    0 -0.71054273576E-14 -0.14210854715E-13 -0.33247549545E+03  0.57588792566E+03  0.47022010575E+03 0.  0.
      99925    2    3    3    0    0 -0.40987285940E+02 -0.78798854743E+02 -0.95378083932E+02  0.29348412299E+03  0.26295766662E+03 0.  0.
         25    1    4    4    0    0 -0.32780400834E+02 -0.69323442975E+02 -0.79189263883E+02  0.16672954759E+03  0.12509000000E+03 0.  0.
         25    1    3    3    0    0  0.40987285940E+02  0.78798854743E+02 -0.23709741151E+03  0.28240380267E+03  0.12509000000E+03 0.  0.
         25    1    4    4    0    0 -0.82068851057E+01 -0.94754117674E+01 -0.16188820049E+02  0.12675457540E+03  0.12509000000E+03 0.  0.
<mgrwt>
<rscale>  2 0.47022011E+03</rscale>
<asrwt>0</asrwt>
<pdfrwt beam="1">  1       21 0.17897973E-01 0.47022011E+03</pdfrwt>
<pdfrwt beam="2">  1       21 0.66791428E-01 0.47022011E+03</pdfrwt>
<totfact> 0.53457741E+04</totfact>
</mgrwt>
</event>
<event>
 7    0  0.4705418E-002  0.4558411E+03  0.7546771E-02  0.1025994E+00
         21   -1    0    0  502  501  0.00000000000E+00  0.00000000000E+00  0.10249829712E+04  0.10249829712E+04  0.00000000000E+00 0.  1.
         21   -1    0    0  501  502 -0.00000000000E+00 -0.00000000000E+00 -0.50681607940E+02  0.50681607940E+02  0.00000000000E+00 0.  1.
      99926    2    1    2    0    0 -0.71054273576E-14  0.00000000000E+00  0.97430136321E+03  0.10756645791E+04  0.45584113500E+03 0.  0.
      99925    2    3    3    0    0 -0.50599159834E+02 -0.52340568674E+02  0.40593203972E+03  0.48915711445E+03  0.26304762237E+03 0.  0.
         25    1    4    4    0    0 -0.53521990529E+02 -0.27289437107E+02  0.26432026358E+03  0.29853312494E+03  0.12509000000E+03 0.  0.
         25    1    4    4    0    0  0.29228306955E+01 -0.25051131567E+02  0.14161177615E+03  0.19062398951E+03  0.12509000000E+03 0.  0.
         25    1    3    3    0    0  0.50599159834E+02  0.52340568674E+02  0.56836932349E+03  0.58650746465E+03  0.12509000000E+03 0.  0.
<mgrwt>
<rscale>  2 0.45584113E+03</rscale>
<asrwt>0</asrwt>
<pdfrwt beam="1">  1       21 0.15073278E+00 0.45584113E+03</pdfrwt>
<pdfrwt beam="2">  1       21 0.74531783E-02 0.45584113E+03</pdfrwt>
<totfact> 0.36111946E+04</totfact>
</mgrwt>
</event>
<event>
 7    0  0.4705418E-002  0.4593460E+03  0.7546771E-02  0.1024971E+00
         21   -1    0    0  502  501  0.00000000000E+00  0.00000000000E+00  0.23092205246E+03  0.23092205246E+03  0.00000000000E+00 0.  1.
         21   -1    0    0  501  502 -0.00000000000E+00 -0.00000000000E+00 -0.22843067179E+03  0.22843067179E+03  0.00000000000E+00 0.  1.
      99926    2    1    2    0    0  0.00000000000E+00 -0.88817841970E-15  0.24913806741E+01  0.45935272425E+03  0.45934596798E+03 0.  0.
      99925    2    3    3    0    0 -0.90051623163E+02  0.52990553988E+01  0.76356860918E+02  0.28835274737E+03  0.26302007886E+03 0.  0.
         25    1    4    4    0    0 -0.35077164819E+02  0.59072238607E+01  0.78108934145E+02  0.15170305362E+03  0.12509000000E+03 0.  0.
         25    1    3    3    0    0  0.90051623163E+02 -0.52990553988E+01 -0.73865480243E+02  0.17099997688E+03  0.12509000000E+03 0.  0.
         25    1    4    4    0    0 -0.54974458344E+02 -0.60816846195E+00 -0.17520732275E+01  0.13664969374E+03  0.12509000000E+03 0.  0.
<mgrwt>
<rscale>  2 0.45934597E+03</rscale>
<asrwt>0</asrwt>
<pdfrwt beam="1">  1       21 0.33959125E-01 0.45934597E+03</pdfrwt>
<pdfrwt beam="2">  1       21 0.33592746E-01 0.45934597E+03</pdfrwt>
<totfact> 0.65912651E+04</totfact>
</mgrwt>
</event>
<event>
 6    0  0.4705418E-002  0.4419911E+03  0.7546771E-02  0.1030138E+00
         21   -1    0    0  502  501  0.00000000000E+00  0.00000000000E+00  0.63363415263E+03  0.63363415263E+03  0.00000000000E+00 0. -1.
         21   -1    0    0  501  502 -0.00000000000E+00 -0.00000000000E+00 -0.77077639748E+02  0.77077639748E+02  0.00000000000E+00 0. -1.
      99926    2    1    2    0    0  0.00000000000E+00  0.00000000000E+00  0.55655651288E+03  0.71071179238E+03  0.44199106302E+03 0.  0.
         25    1    3    3    0    0  0.67236053903E+02  0.37719167708E+01  0.13078231784E+03  0.19309696285E+03  0.12509000000E+03 0.  0.
         25    1    3    3    0    0 -0.93072336576E+02  0.14564984485E+02  0.16999357931E+03  0.23112750532E+03  0.12509000000E+03 0.  0.
         25    1    3    3    0    0  0.25836282673E+02 -0.18336901256E+02  0.25578061573E+03  0.28648732421E+03  0.12509000000E+03 0.  0.
<mgrwt>
<rscale>  2 0.44199106E+03</rscale>
<asrwt>0</asrwt>
<pdfrwt beam="1">  1       21 0.93181490E-01 0.44199106E+03</pdfrwt>
<pdfrwt beam="2">  1       21 0.11334947E-01 0.44199106E+03</pdfrwt>
<totfact> 0.58041343E+04</totfact>
</mgrwt>
</event>
<event>
 7    0  0.4705418E-002  0.4603540E+03  0.7546771E-02  0.1024679E+00
         21   -1    0    0  502  501  0.00000000000E+00  0.00000000000E+00  0.65699193725E+03  0.65699193725E+03  0.00000000000E+00 0. -1.
         21   -1    0    0  501  502 -0.00000000000E+00 -0.00000000000E+00 -0.80642474270E+02  0.80642474270E+02  0.00000000000E+00 0. -1.
      99926    2    1    2    0    0  0.00000000000E+00  0.00000000000E+00  0.57634946298E+03  0.73763441152E+03  0.46035401767E+03 0.  0.
      99925    2    3    3    0    0  0.45500353278E+02 -0.10589138081E+03  0.31815210197E+03  0.42844732898E+03  0.26279856743E+03 0.  0.
         25    1    3    3    0    0 -0.45500353278E+02  0.10589138081E+03  0.25819736101E+03  0.30918708254E+03  0.12509000000E+03 0.  0.
         25    1    4    4    0    0  0.46162501342E+02 -0.48923030408E+02  0.11296080942E+03  0.18147201437E+03  0.12509000000E+03 0.  0.
         25    1    4    4    0    0 -0.66214806374E+00 -0.56968350405E+02  0.20519129255E+03  0.24697531461E+03  0.12509000000E+03 0.  0.
<mgrwt>
<rscale>  2 0.46035402E+03</rscale>
<asrwt>0</asrwt>
<pdfrwt beam="1">  1       21 0.96616459E-01 0.46035402E+03</pdfrwt>
<pdfrwt beam="2">  1       21 0.11859188E-01 0.46035402E+03</pdfrwt>
<totfact> 0.48819182E+04</totfact>
</mgrwt>
</event>
<event>
 7    0  0.4705418E-002  0.4541070E+03  0.7546771E-02  0.1026504E+00
         21   -1    0    0  502  501  0.00000000000E+00  0.00000000000E+00  0.47460584999E+03  0.47460584999E+03  0.00000000000E+00 0. -1.
         21   -1    0    0  501  502 -0.00000000000E+00 -0.00000000000E+00 -0.10862336405E+03  0.10862336405E+03  0.00000000000E+00 0. -1.
      99926    2    1    2    0    0  0.00000000000E+00  0.71054273576E-14  0.36598248594E+03  0.58322921404E+03  0.45410696547E+03 0.  0.
      99925    2    3    3    0    0  0.74684043215E+02  0.49867782238E+02  0.14379180327E+03  0.31289477379E+03  0.26298774641E+03 0.  0.
         25    1    4    4    0    0  0.37577828674E+02  0.40625567076E+02  0.11559153356E+03  0.17908500953E+03  0.12509000000E+03 0.  0.
         25    1    3    3    0    0 -0.74684043215E+02 -0.49867782238E+02  0.22219068268E+03  0.27033444025E+03  0.12509000000E+03 0.  0.
         25    1    4    4    0    0  0.37106214541E+02  0.92422151619E+01  0.28200269707E+02  0.13380976426E+03  0.12509000000E+03 0.  0.
<mgrwt>
<rscale>  2 0.45410697E+03</rscale>
<asrwt>0</asrwt>
<pdfrwt beam="1">  1       21 0.69794977E-01 0.45410697E+03</pdfrwt>
<pdfrwt beam="2">  1       21 0.15974024E-01 0.45410697E+03</pdfrwt>
<totfact> 0.60146085E+04</totfact>
</mgrwt>
</event>
<event>
 7    0  0.4705418E-002  0.4509075E+03  0.7546771E-02  0.1027452E+00
         21   -1    0    0  502  501  0.00000000000E+00  0.00000000000E+00  0.65511942574E+02  0.65511942574E+02  0.00000000000E+00 0.  1.
         21   -1    0    0  501  502 -0.00000000000E+00 -0.00000000000E+00 -0.77587973048E+03  0.77587973048E+03  0.00000000000E+00 0.  1.
      99926    2    1    2    0    0  0.00000000000E+00  0.00000000000E+00 -0.71036778791E+03  0.84139167306E+03  0.45090747764E+03 0.  0.
      99925    2    3    3    0    0 -0.84582126240E+02 -0.64199491328E+02 -0.49692081013E+03  0.57216531627E+03  0.26299647685E+03 0.  0.
         25    1    3    3    0    0  0.84582126240E+02  0.64199491328E+02 -0.21344697778E+03  0.26922635679E+03  0.12509000000E+03 0.  0.
         25    1    4    4    0    0 -0.55640595807E+02  0.64703889289E+01 -0.23815212669E+03  0.27477570013E+03  0.12509000000E+03 0.  0.
         25    1    4    4    0    0 -0.28941530433E+02 -0.70669880256E+02 -0.25876868344E+03  0.29738961614E+03  0.12509000000E+03 0.  0.
<mgrwt>
<rscale>  2 0.45090748E+03</rscale>
<asrwt>0</asrwt>
<pdfrwt beam="1">  1       21 0.96341095E-02 0.45090748E+03</pdfrwt>
<pdfrwt beam="2">  1       21 0.11409996E+00 0.45090748E+03</pdfrwt>
<totfact> 0.47328302E+04</totfact>
</mgrwt>
</event>
<event>
 7    0  0.4705418E-002  0.4577655E+03  0.7546771E-02  0.1025431E+00
         21   -1    0    0  502  501  0.00000000000E+00  0.00000000000E+00  0.15631598839E+03  0.15631598839E+03  0.00000000000E+00 0.  1.
         21   -1    0    0  501  502 -0.00000000000E+00 -0.00000000000E+00 -0.33513731193E+03  0.33513731193E+03  0.00000000000E+00 0.  1.
      99926    2    1    2    0    0 -0.26645352591E-14 -0.14210854715E-13 -0.17882132354E+03  0.49145330032E+03  0.45776553020E+03 0.  0.
      99925    2    3    3    0    0 -0.59261213702E+01 -0.11544227191E+03 -0.11589280485E+03  0.30987812684E+03  0.26311836541E+03 0.  0.
         25    1    3    3    0    0  0.59261213702E+01  0.11544227191E+03 -0.62928518688E+02  0.18157517348E+03  0.12509000000E+03 0.  0.
         25    1    4    4    0    0  0.22767406375E+02 -0.24907056172E+02 -0.41133983270E+02  0.13593464945E+03  0.12509000000E+03 0.  0.
         25    1    4    4    0    0 -0.28693527745E+02 -0.90535215741E+02 -0.74758821578E+02  0.17394347739E+03  0.12509000000E+03 0.  0.
<mgrwt>
<rscale>  2 0.45776553E+03</rscale>
<asrwt>0</asrwt>
<pdfrwt beam="1">  1       21 0.22987646E-01 0.45776553E+03</pdfrwt>
<pdfrwt beam="2">  1       21 0.49284898E-01 0.45776553E+03</pdfrwt>
<totfact> 0.64448747E+04</totfact>
</mgrwt>
</event>
<event>
 7    0  0.4705418E-002  0.4510458E+03  0.7546771E-02  0.1027411E+00
         21   -1    0    0  502  501  0.00000000000E+00  0.00000000000E+00  0.34853202232E+02  0.34853202232E+02  0.00000000000E+00 0.  1.
         21   -1    0    0  501  502 -0.00000000000E+00 -0.00000000000E+00 -0.14592797859E+04  0.14592797859E+04  0.00000000000E+00 0.  1.
      99926    2    1    2    0    0  0.00000000000E+00 -0.66613381478E-15 -0.14244265836E+04  0.14941329881E+04  0.45104577812E+03 0.  0.
      99925    2    3    3    0    0 -0.77214059481E+02  0.17439304405E+01 -0.11551930609E+04  0.11873769773E+04  0.26349198488E+03 0.  0.
         25    1    4    4    0    0 -0.27579263473E+02 -0.32383735613E+02 -0.46765252027E+03  0.48595854754E+03  0.12509000000E+03 0.  0.
         25    1    3    3    0    0  0.77214059481E+02 -0.17439304405E+01 -0.26923352278E+03  0.30675601081E+03  0.12509000000E+03 0.  0.
         25    1    4    4    0    0 -0.49634796009E+02  0.34127666053E+02 -0.68754054059E+03  0.70141842977E+03  0.12509000000E+03 0.  0.
<mgrwt>
<rscale>  2 0.45104578E+03</rscale>
<asrwt>0</asrwt>
<pdfrwt beam="1">  1       21 0.51254709E-02 0.45104578E+03</pdfrwt>
<pdfrwt beam="2">  1       21 0.21459997E+00 0.45104578E+03</pdfrwt>
<totfact> 0.24672426E+04</totfact>
</mgrwt>
</event>
<event>
 7    0  0.4705418E-002  0.4554440E+03  0.7546771E-02  0.1026111E+00
         21   -1    0    0  502  501  0.00000000000E+00  0.00000000000E+00  0.47241837560E+02  0.47241837560E+02  0.00000000000E+00 0. -1.
         21   -1    0    0  501  502 -0.00000000000E+00 -0.00000000000E+00 -0.10976990100E+04  0.10976990100E+04  0.00000000000E+00 0. -1.
      99926    2    1    2    0    0  0.00000000000E+00  0.00000000000E+00 -0.10504571724E+04  0.11449408476E+04  0.45544403968E+03 0.  0.
      99925    2    3    3    0    0 -0.48397882021E+02 -0.77606365134E+02 -0.83009727946E+03  0.87555062237E+03  0.26298725458E+03 0.  0.
         25    1    4    4    0    0 -0.20609857928E+02 -0.42684099244E+01 -0.45773892393E+03  0.47498991163E+03  0.12509000000E+03 0.  0.
         25    1    3    3    0    0  0.48397882021E+02  0.77606365134E+02 -0.22035989298E+03  0.26939022519E+03  0.12509000000E+03 0.  0.
         25    1    4    4    0    0 -0.27788024093E+02 -0.73337955210E+02 -0.37235835553E+03  0.40056071074E+03  0.12509000000E+03 0.  0.
<mgrwt>
<rscale>  2 0.45544404E+03</rscale>
<asrwt>0</asrwt>
<pdfrwt beam="1">  1       21 0.69473294E-02 0.45544404E+03</pdfrwt>
<pdfrwt beam="2">  1       21 0.16142632E+00 0.45544404E+03</pdfrwt>
<totfact> 0.33834483E+04</totfact>
</mgrwt>
</event>
<event>
 7    0  0.4705418E-002  0.4611009E+03  0.7546771E-02  0.1024462E+00
         21   -1    0    0  502  501  0.00000000000E+00  0.00000000000E+00  0.55789707185E+02  0.55789707185E+02  0.00000000000E+00 0.  1.
         21   -1    0    0  501  502 -0.00000000000E+00 -0.00000000000E+00 -0.95274773431E+03  0.95274773431E+03  0.00000000000E+00 0.  1.
      99926    2    1    2    0    0  0.00000000000E+00  0.00000000000E+00 -0.89695802713E+03  0.10085374415E+04  0.46110093090E+03 0.  0.
      99925    2    3    3    0    0  0.68418118745E+02  0.14358618748E+02 -0.77158517638E+03  0.81813505519E+03  0.26289555954E+03 0.  0.
         25    1    3    3    0    0 -0.68418118745E+02 -0.14358618748E+02 -0.12537285075E+03  0.19040238630E+03  0.12509000000E+03 0.  0.
         25    1    4    4    0    0  0.54764976806E+01  0.12143891568E+02 -0.45264784194E+03  0.46980319608E+03  0.12509000000E+03 0.  0.
         25    1    4    4    0    0  0.62941621065E+02  0.22147271799E+01 -0.31893733443E+03  0.34833185912E+03  0.12509000000E+03 0.  0.
<mgrwt>
<rscale>  2 0.46110093E+03</rscale>
<asrwt>0</asrwt>
<pdfrwt beam="1">  1       21 0.82043692E-02 0.46110093E+03</pdfrwt>
<pdfrwt beam="2">  1       21 0.14010995E+00 0.46110093E+03</pdfrwt>
<totfact> 0.37039973E+04</totfact>
</mgrwt>
</event>
<event>
 7    0  0.4705418E-002  0.4884264E+03  0.7546771E-02  0.1016845E+00
         21   -1    0    0  502  501  0.00000000000E+00  0.00000000000E+00  0.10304842284E+04  0.10304842284E+04  0.00000000000E+00 0. -1.
         21   -1    0    0  501  502 -0.00000000000E+00 -0.00000000000E+00 -0.57875798789E+02  0.57875798789E+02  0.00000000000E+00 0. -1.
      99926    2    1    2    0    0  0.00000000000E+00  0.00000000000E+00  0.97260842960E+03  0.10883600272E+04  0.48842644424E+03 0.  0.
      99925    2    3    3    0    0 -0.12177653501E+03  0.34964398111E+02  0.73954543689E+03  0.79507194306E+03  0.26298271389E+03 0.  0.
         25    1    4    4    0    0 -0.86390744627E+02 -0.11211665605E+02  0.34756279693E+03  0.37952136713E+03  0.12509000000E+03 0.  0.
         25    1    4    4    0    0 -0.35385790385E+02  0.46176063716E+02  0.39198263997E+03  0.41555057593E+03  0.12509000000E+03 0.  0.
         25    1    3    3    0    0  0.12177653501E+03 -0.34964398111E+02  0.23306299271E+03  0.29328808412E+03  0.12509000000E+03 0.  0.
<mgrwt>
<rscale>  2 0.48842644E+03</rscale>
<asrwt>0</asrwt>
<pdfrwt beam="1">  1       21 0.15154179E+00 0.48842644E+03</pdfrwt>
<pdfrwt beam="2">  1       21 0.85111475E-02 0.48842644E+03</pdfrwt>
<totfact> 0.27885898E+04</totfact>
</mgrwt>
</event>
<event>
 7    0  0.4705418E-002  0.4553592E+03  0.7546771E-02  0.1026136E+00
         21   -1    0    0  502  501  0.00000000000E+00  0.00000000000E+00  0.33499158134E+03  0.33499158134E+03  0.00000000000E+00 0.  1.
         21   -1    0    0  501  502 -0.00000000000E+00 -0.00000000000E+00 -0.15474416351E+03  0.15474416351E+03  0.00000000000E+00 0.  1.
      99926    2    1    2    0    0  0.00000000000E+00  0.00000000000E+00  0.18024741783E+03  0.48973574485E+03  0.45535916390E+03 0.  0.
      99925    2    3    3    0    0  0.32469599408E+02 -0.49805463115E+02  0.21727549099E+03  0.34637101647E+03  0.26311477158E+03 0.  0.
         25    1    3    3    0    0 -0.32469599408E+02  0.49805463115E+02 -0.37028073160E+02  0.14336472838E+03  0.12509000000E+03 0.  0.
         25    1    4    4    0    0  0.34127016955E+02 -0.25896526994E+02  0.63442995254E+02  0.14665539589E+03  0.12509000000E+03 0.  0.
         25    1    4    4    0    0 -0.16574175471E+01 -0.23908936121E+02  0.15383249574E+03  0.19971562058E+03  0.12509000000E+03 0.  0.
<mgrwt>
<rscale>  2 0.45535916E+03</rscale>
<asrwt>0</asrwt>
<pdfrwt beam="1">  1       21 0.49263468E-01 0.45535916E+03</pdfrwt>
<pdfrwt beam="2">  1       21 0.22756495E-01 0.45535916E+03</pdfrwt>
<totfact> 0.65810102E+04</totfact>
</mgrwt>
</event>
<event>
 7    0  0.4705418E-002  0.4480026E+03  0.7546771E-02  0.1028319E+00
         21   -1    0    0  502  501  0.00000000000E+00  0.00000000000E+00  0.48938018659E+03  0.48938018659E+03  0.00000000000E+00 0.  1.
         21   -1    0    0  501  502 -0.00000000000E+00 -0.00000000000E+00 -0.10253090245E+03  0.10253090245E+03  0.00000000000E+00 0.  1.
      99926    2    1    2    0    0  0.14210854715E-13  0.00000000000E+00  0.38684928415E+03  0.59191108904E+03  0.44800264361E+03 0.  0.
      99925    2    3    3    0    0 -0.93831429840E+02 -0.23849928303E+02  0.30336619706E+03  0.41305335162E+03  0.26307577893E+03 0.  0.
         25    1    4    4    0    0 -0.85351172778E+02 -0.20672324978E+02  0.14148692025E+03  0.20827439693E+03  0.12509000000E+03 0.  0.
         25    1    3    3    0    0  0.93831429840E+02  0.23849928303E+02  0.83483087085E+02  0.17885773742E+03  0.12509000000E+03 0.  0.
         25    1    4    4    0    0 -0.84802570618E+01 -0.31776033254E+01  0.16187927681E+03  0.20477895469E+03  0.12509000000E+03 0.  0.
<mgrwt>
<rscale>  2 0.44800264E+03</rscale>
<asrwt>0</asrwt>
<pdfrwt beam="1">  1       21 0.71967673E-01 0.44800264E+03</pdfrwt>
<pdfrwt beam="2">  1       21 0.15078074E-01 0.44800264E+03</pdfrwt>
<totfact> 0.62567766E+04</totfact>
</mgrwt>
</event>
<event>
 7    0  0.4705418E-002  0.4560738E+03  0.7546771E-02  0.1025926E+00
         21   -1    0    0  502  501  0.00000000000E+00  0.00000000000E+00  0.39192818868E+03  0.39192818868E+03  0.00000000000E+00 0.  1.
         21   -1    0    0  501  502 -0.00000000000E+00 -0.00000000000E+00 -0.13267949903E+03  0.13267949903E+03  0.00000000000E+00 0.  1.
      99926    2    1    2    0    0 -0.71054273576E-14  0.00000000000E+00  0.25924868965E+03  0.52460768771E+03  0.45607383495E+03 0.  0.
      99925    2    3    3    0    0  0.46062526970E+02  0.18818458706E+02  0.28107992326E+03  0.38822586473E+03  0.26313021112E+03 0.  0.
         25    1    3    3    0    0 -0.46062526970E+02 -0.18818458706E+02 -0.21831233615E+02  0.13638182298E+03  0.12509000000E+03 0.  0.
         25    1    4    4    0    0  0.45777620450E+02 -0.79634899918E+01  0.10110131269E+03  0.16741562422E+03  0.12509000000E+03 0.  0.
         25    1    4    4    0    0  0.28490651996E+00  0.26781948698E+02  0.17997861058E+03  0.22081024051E+03  0.12509000000E+03 0.  0.
<mgrwt>
<rscale>  2 0.45607383E+03</rscale>
<asrwt>0</asrwt>
<pdfrwt beam="1">  1       21 0.57636498E-01 0.45607383E+03</pdfrwt>
<pdfrwt beam="2">  1       21 0.19511691E-01 0.45607383E+03</pdfrwt>
<totfact> 0.63034690E+04</totfact>
</mgrwt>
</event>
<event>
 7    0  0.4705418E-002  0.4102413E+03  0.7546771E-02  0.1040290E+00
         21   -1    0    0  502  501  0.00000000000E+00  0.00000000000E+00  0.12474378932E+04  0.12474378932E+04  0.00000000000E+00 0.  1.
         21   -1    0    0  501  502 -0.00000000000E+00 -0.00000000000E+00 -0.33728713361E+02  0.33728713361E+02  0.00000000000E+00 0.  1.
      99926    2    1    2    0    0  0.00000000000E+00  0.17763568394E-14  0.12137091799E+04  0.12811666066E+04  0.41024127114E+03 0.  0.
      99925    2    3    3    0    0 -0.56948697838E+02 -0.76933264555E+01  0.87929255790E+03  0.91952544936E+03  0.26281040348E+03 0.  0.
         25    1    4    4    0    0 -0.29662379720E+02 -0.34411582417E+02  0.35383603504E+03  0.37803632308E+03  0.12509000000E+03 0.  0.
         25    1    4    4    0    0 -0.27286318119E+02  0.26718255961E+02  0.52545652286E+03  0.54148912627E+03  0.12509000000E+03 0.  0.
         25    1    3    3    0    0  0.56948697838E+02  0.76933264555E+01  0.33441662195E+03  0.36164115722E+03  0.12509000000E+03 0.  0.
<mgrwt>
<rscale>  2 0.41024127E+03</rscale>
<asrwt>0</asrwt>
<pdfrwt beam="1">  1       21 0.18344672E+00 0.41024127E+03</pdfrwt>
<pdfrwt beam="2">  1       21 0.49601057E-02 0.41024127E+03</pdfrwt>
<totfact> 0.42711666E+04</totfact>
</mgrwt>
</event>
<event>
 7    0  0.4705418E-002  0.4645927E+03  0.7546771E-02  0.1023458E+00
         21   -1    0    0  502  501  0.00000000000E+00  0.00000000000E+00  0.20003785551E+03  0.20003785551E+03  0.00000000000E+00 0. -1.
         21   -1    0    0  501  502 -0.00000000000E+00 -0.00000000000E+00 -0.26975686077E+03  0.26975686077E+03  0.00000000000E+00 0. -1.
      99926    2    1    2    0    0  0.71054273576E-14 -0.71054273576E-14 -0.69719005260E+02  0.46979471627E+03  0.46459265571E+03 0.  0.
      99925    2    3    3    0    0 -0.56370726743E+02  0.36455480873E+02 -0.14603532901E+03  0.30861670819E+03  0.26346023292E+03 0.  0.
         25    1    4    4    0    0 -0.35268538716E+02  0.53675267501E+01 -0.29066365681E+02  0.13328556516E+03  0.12509000000E+03 0.  0.
         25    1    4    4    0    0 -0.21102188027E+02  0.31087954123E+02 -0.11696896333E+03  0.17533114302E+03  0.12509000000E+03 0.  0.
         25    1    3    3    0    0  0.56370726743E+02 -0.36455480873E+02  0.76316323755E+02  0.16117800809E+03  0.12509000000E+03 0.  0.
<mgrwt>
<rscale>  2 0.46459266E+03</rscale>
<asrwt>0</asrwt>
<pdfrwt beam="1">  1       21 0.29417332E-01 0.46459266E+03</pdfrwt>
<pdfrwt beam="2">  1       21 0.39670126E-01 0.46459266E+03</pdfrwt>
<totfact> 0.62548215E+04</totfact>
</mgrwt>
</event>
<event>
 7    0  0.4705418E-002  0.4638605E+03  0.7546771E-02  0.1023667E+00
         21   -1    0    0  502  501  0.00000000000E+00  0.00000000000E+00  0.73451719342E+02  0.73451719342E+02  0.00000000000E+00 0.  1.
         21   -1    0    0  501  502 -0.00000000000E+00 -0.00000000000E+00 -0.73234002718E+03  0.73234002718E+03  0.00000000000E+00 0.  1.
      99926    2    1    2    0    0  0.00000000000E+00  0.14210854715E-13 -0.65888830784E+03  0.80579174652E+03  0.46386047100E+03 0.  0.
      99925    2    3    3    0    0  0.72648222389E+02  0.72029309749E+02 -0.29800761167E+03  0.41038262846E+03  0.26294368114E+03 0.  0.
         25    1    4    4    0    0  0.27235845528E+02  0.52741627935E+02 -0.20305380039E+03  0.24576782652E+03  0.12509000000E+03 0.  0.
         25    1    4    4    0    0  0.45412376861E+02  0.19287681815E+02 -0.94953811278E+02  0.16461480194E+03  0.12509000000E+03 0.  0.
         25    1    3    3    0    0 -0.72648222389E+02 -0.72029309749E+02 -0.36088069617E+03  0.39540911807E+03  0.12509000000E+03 0.  0.
<mgrwt>
<rscale>  2 0.46386047E+03</rscale>
<asrwt>0</asrwt>
<pdfrwt beam="1">  1       21 0.10801723E-01 0.46386047E+03</pdfrwt>
<pdfrwt beam="2">  1       21 0.10769707E+00 0.46386047E+03</pdfrwt>
<totfact> 0.44322788E+04</totfact>
</mgrwt>
</event>
<event>
 7    0  0.4705418E-002  0.4551841E+03  0.7546771E-02  0.1026187E+00
         21   -1    0    0  502  501  0.00000000000E+00  0.00000000000E+00  0.15611243144E+03  0.15611243144E+03  0.00000000000E+00 0.  1.
         21   -1    0    0  501  502 -0.00000000000E+00 -0.00000000000E+00 -0.33180018071E+03  0.33180018071E+03  0.00000000000E+00 0.  1.
      99926    2    1    2    0    0 -0.35527136788E-14 -0.71054273576E-14 -0.17568774927E+03  0.48791261215E+03  0.45518406370E+03 0.  0.
      99925    2    3    3    0    0  0.27846419035E+02  0.28894993222E+02 -0.22415109399E+03  0.34788922993E+03  0.26300733769E+03 0.  0.
         25    1    4    4    0    0  0.37593758313E+02  0.41824732905E+02 -0.14167055791E+03  0.19718177914E+03  0.12509000000E+03 0.  0.
         25    1    4    4    0    0 -0.97473392778E+01 -0.12929739683E+02 -0.82480536087E+02  0.15070745079E+03  0.12509000000E+03 0.  0.
         25    1    3    3    0    0 -0.27846419035E+02 -0.28894993222E+02  0.48463344720E+02  0.14002338222E+03  0.12509000000E+03 0.  0.
<mgrwt>
<rscale>  2 0.45518406E+03</rscale>
<asrwt>0</asrwt>
<pdfrwt beam="1">  1       21 0.22957711E-01 0.45518406E+03</pdfrwt>
<pdfrwt beam="2">  1       21 0.48794144E-01 0.45518406E+03</pdfrwt>
<totfact> 0.66031937E+04</totfact>
</mgrwt>
</event>
<event>
 7    0  0.4705418E-002  0.4521245E+03  0.7546771E-02  0.1027090E+00
         21   -1    0    0  502  501  0.00000000000E+00  0.00000000000E+00  0.10073765719E+03  0.10073765719E+03  0.00000000000E+00 0. -1.
         21   -1    0    0  501  502 -0.00000000000E+00 -0.00000000000E+00 -0.50729925833E+03  0.50729925833E+03  0.00000000000E+00 0. -1.
      99926    2    1    2    0    0  0.00000000000E+00  0.00000000000E+00 -0.40656160114E+03  0.60803691552E+03  0.45212449073E+03 0.  0.
      99925    2    3    3    0    0 -0.50062997820E+02 -0.17685882777E+02 -0.38670684118E+03  0.47070223748E+03  0.26305763845E+03 0.  0.
         25    1    4    4    0    0  0.14395611445E+02  0.37318985153E+01 -0.18609180354E+03  0.22471944317E+03  0.12509000000E+03 0.  0.
         25    1    4    4    0    0 -0.64458609265E+02 -0.21417781292E+02 -0.20061503765E+03  0.24598279430E+03  0.12509000000E+03 0.  0.
         25    1    3    3    0    0  0.50062997820E+02  0.17685882777E+02 -0.19854759952E+02  0.13733467804E+03  0.12509000000E+03 0.  0.
<mgrwt>
<rscale>  2 0.45212449E+03</rscale>
<asrwt>0</asrwt>
<pdfrwt beam="1">  1       21 0.14814362E-01 0.45212449E+03</pdfrwt>
<pdfrwt beam="2">  1       21 0.74602831E-01 0.45212449E+03</pdfrwt>
<totfact> 0.59526924E+04</totfact>
</mgrwt>
</event>
<event>
 7    0  0.4705418E-002  0.4567794E+03  0.7546771E-02  0.1025719E+00
         21   -1    0    0  502  501  0.00000000000E+00  0.00000000000E+00  0.97306415389E+03  0.97306415389E+03  0.00000000000E+00 0.  1.
         21   -1    0    0  501  502 -0.00000000000E+00 -0.00000000000E+00 -0.53605778504E+02  0.53605778504E+02  0.00000000000E+00 0.  1.
      99926    2    1    2    0    0  0.14210854715E-13  0.00000000000E+00  0.91945837539E+03  0.10266699324E+04  0.45677942819E+03 0.  0.
      99925    2    3    3    0    0  0.66950033790E+02 -0.92859378973E+02  0.59760508217E+03  0.66288122759E+03  0.26301048719E+03 0.  0.
         25    1    4    4    0    0  0.66734521222E+01 -0.70047539634E+02  0.34626636373E+03  0.37483208977E+03  0.12509000000E+03 0.  0.
         25    1    4    4    0    0  0.60276581668E+02 -0.22811839339E+02  0.25133871844E+03  0.28804913782E+03  0.12509000000E+03 0.  0.
         25    1    3    3    0    0 -0.66950033790E+02  0.92859378973E+02  0.32185329321E+03  0.36378870480E+03  0.12509000000E+03 0.  0.
<mgrwt>
<rscale>  2 0.45677943E+03</rscale>
<asrwt>0</asrwt>
<pdfrwt beam="1">  1       21 0.14309766E+00 0.45677943E+03</pdfrwt>
<pdfrwt beam="2">  1       21 0.78832033E-02 0.45677943E+03</pdfrwt>
<totfact> 0.37619907E+04</totfact>
</mgrwt>
</event>
<event>
 7    0  0.4705418E-002  0.4572428E+03  0.7546771E-02  0.1025584E+00
         21   -1    0    0  502  501  0.00000000000E+00  0.00000000000E+00  0.26714318779E+03  0.26714318779E+03  0.00000000000E+00 0. -1.
         21   -1    0    0  501  502 -0.00000000000E+00 -0.00000000000E+00 -0.19565441526E+03  0.19565441526E+03  0.00000000000E+00 0. -1.
      99926    2    1    2    0    0  0.00000000000E+00  0.00000000000E+00  0.71488772534E+02  0.46279760305E+03  0.45724279851E+03 0.  0.
      99925    2    3    3    0    0 -0.82500269097E+02  0.23577399455E+02 -0.32941579476E+02  0.27863627517E+03  0.26304151386E+03 0.  0.
         25    1    4    4    0    0 -0.72616538137E+02 -0.14976169535E+02 -0.17382543724E+02  0.14644831235E+03  0.12509000000E+03 0.  0.
         25    1    3    3    0    0  0.82500269097E+02 -0.23577399455E+02  0.10443035201E+03  0.18416132788E+03  0.12509000000E+03 0.  0.
         25    1    4    4    0    0 -0.98837309604E+01  0.38553568990E+02 -0.15559035752E+02  0.13218796281E+03  0.12509000000E+03 0.  0.
<mgrwt>
<rscale>  2 0.45724280E+03</rscale>
<asrwt>0</asrwt>
<pdfrwt beam="1">  1       21 0.39285763E-01 0.45724280E+03</pdfrwt>
<pdfrwt beam="2">  1       21 0.28772708E-01 0.45724280E+03</pdfrwt>
<totfact> 0.66774834E+04</totfact>
</mgrwt>
</event>
<event>
 7    0  0.4705418E-002  0.4596930E+03  0.7546771E-02  0.1024870E+00
         21   -1    0    0  502  501  0.00000000000E+00  0.00000000000E+00  0.29094800072E+03  0.29094800072E+03  0.00000000000E+00 0.  1.
         21   -1    0    0  501  502 -0.00000000000E+00 -0.00000000000E+00 -0.18157680921E+03  0.18157680921E+03  0.00000000000E+00 0.  1.
      99926    2    1    2    0    0  0.00000000000E+00  0.00000000000E+00  0.10937119151E+03  0.47252480992E+03  0.45969298283E+03 0.  0.
      99925    2    3    3    0    0  0.17598035071E+02 -0.98149581669E+02  0.44239150544E+01  0.28120186264E+03  0.26289139451E+03 0.  0.
         25    1    4    4    0    0 -0.14347688725E+02 -0.67145310924E+02 -0.25853341152E+02  0.14501811025E+03  0.12509000000E+03 0.  0.
         25    1    4    4    0    0  0.31945723795E+02 -0.31004270745E+02  0.30277256206E+02  0.13618375240E+03  0.12509000000E+03 0.  0.
         25    1    3    3    0    0 -0.17598035071E+02  0.98149581669E+02  0.10494727646E+03  0.19132294728E+03  0.12509000000E+03 0.  0.
<mgrwt>
<rscale>  2 0.45969298E+03</rscale>
<asrwt>0</asrwt>
<pdfrwt beam="1">  1       21 0.42786471E-01 0.45969298E+03</pdfrwt>
<pdfrwt beam="2">  1       21 0.26702472E-01 0.45969298E+03</pdfrwt>
<totfact> 0.64802187E+04</totfact>
</mgrwt>
</event>
<event>
 7    0  0.4705418E-002  0.4405222E+03  0.7546771E-02  0.1030587E+00
         21   -1    0    0  502  501  0.00000000000E+00  0.00000000000E+00  0.18889571286E+03  0.18889571286E+03  0.00000000000E+00 0. -1.
         21   -1    0    0  501  502 -0.00000000000E+00 -0.00000000000E+00 -0.25683456492E+03  0.25683456492E+03  0.00000000000E+00 0. -1.
      99926    2    1    2    0    0  0.00000000000E+00 -0.71054273576E-14 -0.67938852061E+02  0.44573027778E+03  0.44052218209E+03 0.  0.
      99925    2    3    3    0    0 -0.89594883827E+02  0.35240510142E+02 -0.66784305064E+02  0.28787598471E+03  0.26295114072E+03 0.  0.
         25    1    4    4    0    0 -0.17721153612E+02  0.31339692786E+02 -0.33018075627E+01  0.13020992920E+03  0.12509000000E+03 0.  0.
         25    1    4    4    0    0 -0.71873730214E+02  0.39008173562E+01 -0.63482497501E+02  0.15766605551E+03  0.12509000000E+03 0.  0.
         25    1    3    3    0    0  0.89594883827E+02 -0.35240510142E+02 -0.11545469968E+01  0.15785429307E+03  0.12509000000E+03 0.  0.
<mgrwt>
<rscale>  2 0.44052218E+03</rscale>
<asrwt>0</asrwt>
<pdfrwt beam="1">  1       21 0.27778781E-01 0.44052218E+03</pdfrwt>
<pdfrwt beam="2">  1       21 0.37769789E-01 0.44052218E+03</pdfrwt>
<totfact> 0.77839371E+04</totfact>
</mgrwt>
</event>
<event>
 7    0  0.4705418E-002  0.4558246E+03  0.7546771E-02  0.1025999E+00
         21   -1    0    0  502  501  0.00000000000E+00  0.00000000000E+00  0.11101220465E+04  0.11101220465E+04  0.00000000000E+00 0. -1.
         21   -1    0    0  501  502 -0.00000000000E+00 -0.00000000000E+00 -0.46791273193E+02  0.46791273193E+02  0.00000000000E+00 0. -1.
      99926    2    1    2    0    0  0.35527136788E-14 -0.14210854715E-13  0.10633307733E+04  0.11569133196E+04  0.45582463274E+03 0.  0.
      99925    2    3    3    0    0 -0.11701113584E+02 -0.10257328184E+03  0.54730122429E+03  0.61599539822E+03  0.26316060935E+03 0.  0.
         25    1    4    4    0    0 -0.41164758500E+02 -0.45115592019E+02  0.22959495244E+03  0.26849823886E+03  0.12509000000E+03 0.  0.
         25    1    4    4    0    0  0.29463644917E+02 -0.57457689821E+02  0.31770627184E+03  0.34749715936E+03  0.12509000000E+03 0.  0.
         25    1    3    3    0    0  0.11701113584E+02  0.10257328184E+03  0.51602954897E+03  0.54091792143E+03  0.12509000000E+03 0.  0.
<mgrwt>
<rscale>  2 0.45582463E+03</rscale>
<asrwt>0</asrwt>
<pdfrwt beam="1">  1       21 0.16325322E+00 0.45582463E+03</pdfrwt>
<pdfrwt beam="2">  1       21 0.68810703E-02 0.45582463E+03</pdfrwt>
<totfact> 0.33337625E+04</totfact>
</mgrwt>
</event>
<event>
 7    0  0.4705418E-002  0.4423870E+03  0.7546771E-02  0.1030017E+00
         21   -1    0    0  502  501  0.00000000000E+00  0.00000000000E+00  0.47429909185E+03  0.47429909185E+03  0.00000000000E+00 0.  1.
         21   -1    0    0  501  502 -0.00000000000E+00 -0.00000000000E+00 -0.10315552163E+03  0.10315552163E+03  0.00000000000E+00 0.  1.
      99926    2    1    2    0    0  0.00000000000E+00  0.71054273576E-14  0.37114357022E+03  0.57745461348E+03  0.44238702616E+03 0.  0.
      99925    2    3    3    0    0  0.61117979701E+02 -0.55999573535E+02  0.31113751081E+03  0.41583903581E+03  0.26314291439E+03 0.  0.
         25    1    4    4    0    0  0.48152716659E+02 -0.29937528824E+02  0.10464610358E+03  0.17266515238E+03  0.12509000000E+03 0.  0.
         25    1    4    4    0    0  0.12965263042E+02 -0.26062044711E+02  0.20649140723E+03  0.24317388343E+03  0.12509000000E+03 0.  0.
         25    1    3    3    0    0 -0.61117979701E+02  0.55999573535E+02  0.60006059408E+02  0.16161557767E+03  0.12509000000E+03 0.  0.
<mgrwt>
<rscale>  2 0.44238703E+03</rscale>
<asrwt>0</asrwt>
<pdfrwt beam="1">  1       21 0.69749866E-01 0.44238703E+03</pdfrwt>
<pdfrwt beam="2">  1       21 0.15169930E-01 0.44238703E+03</pdfrwt>
<totfact> 0.66472526E+04</totfact>
</mgrwt>
</event>
<event>
 7    0  0.4705418E-002  0.4528860E+03  0.7546771E-02  0.1026865E+00
         21   -1    0    0  502  501  0.00000000000E+00  0.00000000000E+00  0.87131205734E+03  0.87131205734E+03  0.00000000000E+00 0. -1.
         21   -1    0    0  501  502 -0.00000000000E+00 -0.00000000000E+00 -0.58849663214E+02  0.58849663214E+02  0.00000000000E+00 0. -1.
      99926    2    1    2    0    0 -0.14210854715E-13  0.00000000000E+00  0.81246239412E+03  0.93016172055E+03  0.45288595089E+03 0.  0.
      99925    2    3    3    0    0  0.10831156927E+03 -0.24806370754E+02  0.52528172436E+03  0.59779596231E+03  0.26285427624E+03 0.  0.
         25    1    4    4    0    0  0.57509096069E+02  0.27184647034E+02  0.27373259133E+03  0.30760907142E+03  0.12509000000E+03 0.  0.
         25    1    3    3    0    0 -0.10831156927E+03  0.24806370754E+02  0.28718066977E+03  0.33236575825E+03  0.12509000000E+03 0.  0.
         25    1    4    4    0    0  0.50802473200E+02 -0.51991017788E+02  0.25154913303E+03  0.29018689089E+03  0.12509000000E+03 0.  0.
<mgrwt>
<rscale>  2 0.45288595E+03</rscale>
<asrwt>0</asrwt>
<pdfrwt beam="1">  1       21 0.12813412E+00 0.45288595E+03</pdfrwt>
<pdfrwt beam="2">  1       21 0.86543628E-02 0.45288595E+03</pdfrwt>
<totfact> 0.42655712E+04</totfact>
</mgrwt>
</event>
<event>
 7    0  0.4705418E-002  0.4473467E+03  0.7546771E-02  0.1028516E+00
         21   -1    0    0  502  501  0.00000000000E+00  0.00000000000E+00  0.47911769524E+03  0.47911769524E+03  0.00000000000E+00 0. -1.
         21   -1    0    0  501  502 -0.00000000000E+00 -0.00000000000E+00 -0.10442063735E+03  0.10442063735E+03  0.00000000000E+00 0. -1.
      99926    2    1    2    0    0 -0.71054273576E-14  0.00000000000E+00  0.37469705790E+03  0.58353833259E+03  0.44734673398E+03 0.  0.
      99925    2    3    3    0    0 -0.49108938845E+02  0.92517617018E+02  0.25745728809E+03  0.38263071935E+03  0.26296542523E+03 0.  0.
         25    1    4    4    0    0 -0.53565687772E+02  0.25225152329E+02  0.15268467581E+03  0.20607209792E+03  0.12509000000E+03 0.  0.
         25    1    4    4    0    0  0.44567489271E+01  0.67292464689E+02  0.10477261228E+03  0.17655862142E+03  0.12509000000E+03 0.  0.
         25    1    3    3    0    0  0.49108938845E+02 -0.92517617018E+02  0.11723976981E+03  0.20090761324E+03  0.12509000000E+03 0.  0.
<mgrwt>
<rscale>  2 0.44734673E+03</rscale>
<asrwt>0</asrwt>
<pdfrwt beam="1">  1       21 0.70458484E-01 0.44734673E+03</pdfrwt>
<pdfrwt beam="2">  1       21 0.15355976E-01 0.44734673E+03</pdfrwt>
<totfact> 0.63455773E+04</totfact>
</mgrwt>
</event>
<event>
 7    0  0.4705418E-002  0.4558190E+03  0.7546771E-02  0.1026001E+00
         21   -1    0    0  502  501  0.00000000000E+00  0.00000000000E+00  0.37055944169E+03  0.37055944169E+03  0.00000000000E+00 0.  1.
         21   -1    0    0  501  502 -0.00000000000E+00 -0.00000000000E+00 -0.14017386896E+03  0.14017386896E+03  0.00000000000E+00 0.  1.
      99926    2    1    2    0    0  0.00000000000E+00  0.00000000000E+00  0.23038557273E+03  0.51073331065E+03  0.45581904577E+03 0.  0.
      99925    2    3    3    0    0 -0.21215482928E+02  0.11164945934E+03  0.15431655925E+03  0.32539658628E+03  0.26297079575E+03 0.  0.
         25    1    4    4    0    0 -0.14939804467E+02  0.99599064996E+02  0.83299329713E+02  0.18091284624E+03  0.12509000000E+03 0.  0.
         25    1    3    3    0    0  0.21215482928E+02 -0.11164945934E+03  0.76069013482E+02  0.18533672437E+03  0.12509000000E+03 0.  0.
         25    1    4    4    0    0 -0.62756784608E+01  0.12050394345E+02  0.71017229536E+02  0.14448374004E+03  0.12509000000E+03 0.  0.
<mgrwt>
<rscale>  2 0.45581905E+03</rscale>
<asrwt>0</asrwt>
<pdfrwt beam="1">  1       21 0.54494035E-01 0.45581905E+03</pdfrwt>
<pdfrwt beam="2">  1       21 0.20613804E-01 0.45581905E+03</pdfrwt>
<totfact> 0.64105293E+04</totfact>
</mgrwt>
</event>
<event>
 7    0  0.4705418E-002  0.4136025E+03  0.7546771E-02  0.1039169E+00
         21   -1    0    0  502  501  0.00000000000E+00  0.00000000000E+00  0.23328053664E+04  0.23328053664E+04  0.00000000000E+00 0. -1.
         21   -1    0    0  501  502 -0.00000000000E+00 -0.00000000000E+00 -0.18332755064E+02  0.18332755064E+02  0.00000000000E+00 0. -1.
      99926    2    1    2    0    0  0.00000000000E+00  0.00000000000E+00  0.23144726113E+04  0.23511381214E+04  0.41360246321E+03 0.  0.
      99925    2    3    3    0    0  0.94527506721E+01  0.39089955385E+02  0.12116428769E+04  0.12405084306E+04  0.26299301509E+03 0.  0.
         25    1    3    3    0    0 -0.94527506721E+01 -0.39089955385E+02  0.11028297344E+04  0.11106296909E+04  0.12509000000E+03 0.  0.
         25    1    4    4    0    0 -0.19028238358E+01 -0.16423543083E+02  0.66622780013E+03  0.67807104589E+03  0.12509000000E+03 0.  0.
         25    1    4    4    0    0  0.11355574508E+02  0.55513498467E+02  0.54541507679E+03  0.56243738467E+03  0.12509000000E+03 0.  0.
<mgrwt>
<rscale>  2 0.41360246E+03</rscale>
<asrwt>0</asrwt>
<pdfrwt beam="1">  1       21 0.34305941E+00 0.41360246E+03</pdfrwt>
<pdfrwt beam="2">  1       21 0.26959950E-02 0.41360246E+03</pdfrwt>
<totfact> 0.12276853E+04</totfact>
</mgrwt>
</event>
<event>
 7    0  0.4705418E-002  0.4560167E+03  0.7546771E-02  0.1025943E+00
         21   -1    0    0  502  501  0.00000000000E+00  0.00000000000E+00  0.67416801595E+03  0.67416801595E+03  0.00000000000E+00 0.  1.
         21   -1    0    0  501  502 -0.00000000000E+00 -0.00000000000E+00 -0.77114008385E+02  0.77114008385E+02  0.00000000000E+00 0.  1.
      99926    2    1    2    0    0  0.00000000000E+00  0.00000000000E+00  0.59705400757E+03  0.75128202434E+03  0.45601665775E+03 0.  0.
      99925    2    3    3    0    0 -0.34493439156E+02 -0.43034965917E+02  0.53996873953E+03  0.60313330999E+03  0.26298620556E+03 0.  0.
         25    1    3    3    0    0  0.34493439156E+02  0.43034965917E+02  0.57085268042E+02  0.14814871435E+03  0.12509000000E+03 0.  0.
         25    1    4    4    0    0 -0.13493497247E+02 -0.38884923906E+02  0.19267091210E+03  0.23337459212E+03  0.12509000000E+03 0.  0.
         25    1    4    4    0    0 -0.20999941909E+02 -0.41500420105E+01  0.34729782742E+03  0.36975871787E+03  0.12509000000E+03 0.  0.
<mgrwt>
<rscale>  2 0.45601666E+03</rscale>
<asrwt>0</asrwt>
<pdfrwt beam="1">  1       21 0.99142352E-01 0.45601666E+03</pdfrwt>
<pdfrwt beam="2">  1       21 0.11340296E-01 0.45601666E+03</pdfrwt>
<totfact> 0.49806391E+04</totfact>
</mgrwt>
</event>
<event>
 7    0  0.4705418E-002  0.4522490E+03  0.7546771E-02  0.1027053E+00
         21   -1    0    0  502  501  0.00000000000E+00  0.00000000000E+00  0.18619878810E+03  0.18619878810E+03  0.00000000000E+00 0.  1.
         21   -1    0    0  501  502 -0.00000000000E+00 -0.00000000000E+00 -0.27461131699E+03  0.27461131699E+03  0.00000000000E+00 0.  1.
      99926    2    1    2    0    0  0.35527136788E-14  0.00000000000E+00 -0.88412528887E+02  0.46081010508E+03  0.45224902176E+03 0.  0.
      99925    2    3    3    0    0 -0.29433713277E+02  0.10293454695E+03 -0.83773738917E+02  0.29609553103E+03  0.26304497664E+03 0.  0.
         25    1    4    4    0    0  0.23853867970E+02  0.56122292072E+02 -0.28580695274E+02  0.14206717751E+03  0.12509000000E+03 0.  0.
         25    1    4    4    0    0 -0.53287581247E+02  0.46812254873E+02 -0.55193043643E+02  0.15402835352E+03  0.12509000000E+03 0.  0.
         25    1    3    3    0    0  0.29433713277E+02 -0.10293454695E+03 -0.46387899703E+01  0.16471457405E+03  0.12509000000E+03 0.  0.
<mgrwt>
<rscale>  2 0.45224902E+03</rscale>
<asrwt>0</asrwt>
<pdfrwt beam="1">  1       21 0.27382175E-01 0.45224902E+03</pdfrwt>
<pdfrwt beam="2">  1       21 0.40384017E-01 0.45224902E+03</pdfrwt>
<totfact> 0.69632695E+04</totfact>
</mgrwt>
</event>
<event>
 7    0  0.4705418E-002  0.4539379E+03  0.7546771E-02  0.1026554E+00
         21   -1    0    0  502  501  0.00000000000E+00  0.00000000000E+00  0.40456662860E+03  0.40456662860E+03  0.00000000000E+00 0.  1.
         21   -1    0    0  501  502 -0.00000000000E+00 -0.00000000000E+00 -0.12733357438E+03  0.12733357438E+03  0.00000000000E+00 0.  1.
      99926    2    1    2    0    0  0.71054273576E-14  0.00000000000E+00  0.27723305422E+03  0.53190020297E+03  0.45393794683E+03 0.  0.
      99925    2    3    3    0    0  0.56661786030E+02  0.46422229357E+02  0.27418718283E+03  0.38690928323E+03  0.26297262376E+03 0.  0.
         25    1    4    4    0    0 -0.11142267842E+02  0.17036784646E+02  0.11162928567E+03  0.16888755929E+03  0.12509000000E+03 0.  0.
         25    1    3    3    0    0 -0.56661786030E+02 -0.46422229357E+02  0.30458713929E+01  0.14499091974E+03  0.12509000000E+03 0.  0.
         25    1    4    4    0    0  0.67804053873E+02  0.29385444711E+02  0.16255789716E+03  0.21802172394E+03  0.12509000000E+03 0.  0.
<mgrwt>
<rscale>  2 0.45393795E+03</rscale>
<asrwt>0</asrwt>
<pdfrwt beam="1">  1       21 0.59495092E-01 0.45393795E+03</pdfrwt>
<pdfrwt beam="2">  1       21 0.18725526E-01 0.45393795E+03</pdfrwt>
<totfact> 0.63611719E+04</totfact>
</mgrwt>
</event>
<event>
 7    0  0.4705418E-002  0.4488444E+03  0.7546771E-02  0.1028067E+00
         21   -1    0    0  502  501  0.00000000000E+00  0.00000000000E+00  0.11586314619E+03  0.11586314619E+03  0.00000000000E+00 0.  1.
         21   -1    0    0  501  502 -0.00000000000E+00 -0.00000000000E+00 -0.43469671513E+03  0.43469671513E+03  0.00000000000E+00 0.  1.
      99926    2    1    2    0    0  0.00000000000E+00  0.00000000000E+00 -0.31883356894E+03  0.55055986133E+03  0.44884442318E+03 0.  0.
      99925    2    3    3    0    0  0.39453933956E+02  0.51464283895E+02 -0.97013188088E+02  0.28777292313E+03  0.26305229747E+03 0.  0.
         25    1    4    4    0    0  0.64282899302E+01  0.98183102466E+00 -0.78105421842E+02  0.14761521576E+03  0.12509000000E+03 0.  0.
         25    1    3    3    0    0 -0.39453933956E+02 -0.51464283895E+02 -0.22182038086E+03  0.26278693819E+03  0.12509000000E+03 0.  0.
         25    1    4    4    0    0  0.33025644025E+02  0.50482452870E+02 -0.18907766246E+02  0.14015770737E+03  0.12509000000E+03 0.  0.
<mgrwt>
<rscale>  2 0.44884442E+03</rscale>
<asrwt>0</asrwt>
<pdfrwt beam="1">  1       21 0.17038698E-01 0.44884442E+03</pdfrwt>
<pdfrwt beam="2">  1       21 0.63925989E-01 0.44884442E+03</pdfrwt>
<totfact> 0.64934607E+04</totfact>
</mgrwt>
</event>
<event>
 7    0  0.4705418E-002  0.4625148E+03  0.7546771E-02  0.1024054E+00
         21   -1    0    0  502  501  0.00000000000E+00  0.00000000000E+00  0.22097177471E+03  0.22097177471E+03  0.00000000000E+00 0. -1.
         21   -1    0    0  501  502 -0.00000000000E+00 -0.00000000000E+00 -0.24202179014E+03  0.24202179014E+03  0.00000000000E+00 0. -1.
      99926    2    1    2    0    0 -0.14210854715E-13  0.00000000000E+00 -0.21050015428E+02  0.46299356485E+03  0.46251479754E+03 0.  0.
      99925    2    3    3    0    0  0.75181921904E+02  0.93524534728E+02 -0.79479583352E+01  0.28915935655E+03  0.26296540354E+03 0.  0.
         25    1    3    3    0    0 -0.75181921904E+02 -0.93524534728E+02 -0.13102057093E+02  0.17383420831E+03  0.12509000000E+03 0.  0.
         25    1    4    4    0    0  0.75658616220E+02  0.52376173100E+02 -0.21531674757E+02  0.15677567042E+03  0.12509000000E+03 0.  0.
         25    1    4    4    0    0 -0.47669431598E+00  0.41148361627E+02  0.13583716422E+02  0.13238368613E+03  0.12509000000E+03 0.  0.
<mgrwt>
<rscale>  2 0.46251480E+03</rscale>
<asrwt>0</asrwt>
<pdfrwt beam="1">  1       21 0.32495849E-01 0.46251480E+03</pdfrwt>
<pdfrwt beam="2">  1       21 0.35591440E-01 0.46251480E+03</pdfrwt>
<totfact> 0.64037474E+04</totfact>
</mgrwt>
</event>
<event>
 7    0  0.4705418E-002  0.4522184E+03  0.7546771E-02  0.1027063E+00
         21   -1    0    0  502  501  0.00000000000E+00  0.00000000000E+00  0.12411113115E+03  0.12411113115E+03  0.00000000000E+00 0. -1.
         21   -1    0    0  501  502 -0.00000000000E+00 -0.00000000000E+00 -0.41193226420E+03  0.41193226420E+03  0.00000000000E+00 0. -1.
      99926    2    1    2    0    0  0.00000000000E+00  0.00000000000E+00 -0.28782113305E+03  0.53604339535E+03  0.45221843955E+03 0.  0.
      99925    2    3    3    0    0  0.60827082474E+02 -0.79874297450E+02 -0.23644755363E+03  0.36761955465E+03  0.26297690771E+03 0.  0.
         25    1    3    3    0    0 -0.60827082474E+02  0.79874297450E+02 -0.51373579417E+02  0.16842384070E+03  0.12509000000E+03 0.  0.
         25    1    4    4    0    0  0.20117958805E+02 -0.95424230676E+01 -0.14438574292E+03  0.19232925145E+03  0.12509000000E+03 0.  0.
         25    1    4    4    0    0  0.40709123669E+02 -0.70331874382E+02 -0.92061810706E+02  0.17529030320E+03  0.12509000000E+03 0.  0.
<mgrwt>
<rscale>  2 0.45221844E+03</rscale>
<asrwt>0</asrwt>
<pdfrwt beam="1">  1       21 0.18251637E-01 0.45221844E+03</pdfrwt>
<pdfrwt beam="2">  1       21 0.60578275E-01 0.45221844E+03</pdfrwt>
<totfact> 0.64200047E+04</totfact>
</mgrwt>
</event>
<event>
 7    0  0.4705418E-002  0.4572168E+03  0.7546771E-02  0.1025592E+00
         21   -1    0    0  502  501  0.00000000000E+00  0.00000000000E+00  0.26499931839E+03  0.26499931839E+03  0.00000000000E+00 0.  1.
         21   -1    0    0  501  502 -0.00000000000E+00 -0.00000000000E+00 -0.19721487124E+03  0.19721487124E+03  0.00000000000E+00 0.  1.
      99926    2    1    2    0    0  0.00000000000E+00  0.00000000000E+00  0.67784447146E+02  0.46221418963E+03  0.45721682583E+03 0.  0.
      99925    2    3    3    0    0  0.81043496367E+02  0.46207860184E+02  0.11082038591E+03  0.30034135444E+03  0.26309799811E+03 0.  0.
         25    1    4    4    0    0  0.11390408772E+02  0.43076273647E+02  0.30882739903E+02  0.13633252909E+03  0.12509000000E+03 0.  0.
         25    1    3    3    0    0 -0.81043496367E+02 -0.46207860184E+02 -0.43035938760E+02  0.16187283519E+03  0.12509000000E+03 0.  0.
         25    1    4    4    0    0  0.69653087595E+02  0.31315865376E+01  0.79937646003E+02  0.16400882535E+03  0.12509000000E+03 0.  0.
<mgrwt>
<rscale>  2 0.45721683E+03</rscale>
<asrwt>0</asrwt>
<pdfrwt beam="1">  1       21 0.38970488E-01 0.45721683E+03</pdfrwt>
<pdfrwt beam="2">  1       21 0.29002187E-01 0.45721683E+03</pdfrwt>
<totfact> 0.66830214E+04</totfact>
</mgrwt>
</event>
<event>
 7    0  0.4705418E-002  0.4340884E+03  0.7546771E-02  0.1032576E+00
         21   -1    0    0  502  501  0.00000000000E+00  0.00000000000E+00  0.18604347805E+03  0.18604347805E+03  0.00000000000E+00 0. -1.
         21   -1    0    0  501  502 -0.00000000000E+00 -0.00000000000E+00 -0.25321057068E+03  0.25321057068E+03  0.00000000000E+00 0. -1.
      99926    2    1    2    0    0  0.00000000000E+00  0.00000000000E+00 -0.67167092626E+02  0.43925404873E+03  0.43408835621E+03 0.  0.
      99925    2    3    3    0    0  0.28746391973E+02 -0.85856715145E+02 -0.60365922452E+02  0.28468531126E+03  0.26306643889E+03 0.  0.
         25    1    4    4    0    0  0.25741871130E+02 -0.58015994503E+01 -0.44181898800E+02  0.13526215571E+03  0.12509000000E+03 0.  0.
         25    1    3    3    0    0 -0.28746391973E+02  0.85856715145E+02 -0.68011701741E+01  0.15456873747E+03  0.12509000000E+03 0.  0.
         25    1    4    4    0    0  0.30045208428E+01 -0.80055115695E+02 -0.16184023652E+02  0.14942315555E+03  0.12509000000E+03 0.  0.
<mgrwt>
<rscale>  2 0.43408836E+03</rscale>
<asrwt>0</asrwt>
<pdfrwt beam="1">  1       21 0.27359335E-01 0.43408836E+03</pdfrwt>
<pdfrwt beam="2">  1       21 0.37236849E-01 0.43408836E+03</pdfrwt>
<totfact> 0.82669220E+04</totfact>
</mgrwt>
</event>
<event>
 7    0  0.4705418E-002  0.4531112E+03  0.7546771E-02  0.1026798E+00
         21   -1    0    0  502  501  0.00000000000E+00  0.00000000000E+00  0.31270439956E+03  0.31270439956E+03  0.00000000000E+00 0. -1.
         21   -1    0    0  501  502 -0.00000000000E+00 -0.00000000000E+00 -0.16414042833E+03  0.16414042833E+03  0.00000000000E+00 0. -1.
      99926    2    1    2    0    0  0.00000000000E+00  0.35527136788E-14  0.14856397123E+03  0.47684482789E+03  0.45311117437E+03 0.  0.
      99925    2    3    3    0    0  0.32200984259E+02 -0.25582833285E+02 -0.15345989194E+02  0.26659410144E+03  0.26295537795E+03 0.  0.
         25    1    4    4    0    0  0.15774739674E+02  0.84780698592E+01  0.27011279296E+02  0.12922011217E+03  0.12509000000E+03 0.  0.
         25    1    4    4    0    0  0.16426244585E+02 -0.34060903144E+02 -0.42357268490E+02  0.13737398927E+03  0.12509000000E+03 0.  0.
         25    1    3    3    0    0 -0.32200984259E+02  0.25582833285E+02  0.16390996042E+03  0.21025072645E+03  0.12509000000E+03 0.  0.
<mgrwt>
<rscale>  2 0.45311117E+03</rscale>
<asrwt>0</asrwt>
<pdfrwt beam="1">  1       21 0.45985941E-01 0.45311117E+03</pdfrwt>
<pdfrwt beam="2">  1       21 0.24138298E-01 0.45311117E+03</pdfrwt>
<totfact> 0.67943358E+04</totfact>
</mgrwt>
</event>
<event>
 7    0  0.4705418E-002  0.4563950E+03  0.7546771E-02  0.1025832E+00
         21   -1    0    0  502  501  0.00000000000E+00  0.00000000000E+00  0.39935360250E+03  0.39935360250E+03  0.00000000000E+00 0. -1.
         21   -1    0    0  501  502 -0.00000000000E+00 -0.00000000000E+00 -0.13039594104E+03  0.13039594104E+03  0.00000000000E+00 0. -1.
      99926    2    1    2    0    0 -0.17763568394E-14  0.17763568394E-14  0.26895766146E+03  0.52974954354E+03  0.45639495530E+03 0.  0.
      99925    2    3    3    0    0  0.51708019312E+01  0.12134594588E+02  0.36976894207E+02  0.26586212426E+03  0.26294750966E+03 0.  0.
         25    1    4    4    0    0 -0.32639399229E+02 -0.33821774163E+01  0.57827528306E+00  0.12932367149E+03  0.12509000000E+03 0.  0.
         25    1    4    4    0    0  0.37810201160E+02  0.15516772005E+02  0.36398618924E+02  0.13653845277E+03  0.12509000000E+03 0.  0.
         25    1    3    3    0    0 -0.51708019312E+01 -0.12134594588E+02  0.23198076725E+03  0.26388741927E+03  0.12509000000E+03 0.  0.
<mgrwt>
<rscale>  2 0.45639496E+03</rscale>
<asrwt>0</asrwt>
<pdfrwt beam="1">  1       21 0.58728470E-01 0.45639496E+03</pdfrwt>
<pdfrwt beam="2">  1       21 0.19175874E-01 0.45639496E+03</pdfrwt>
<totfact> 0.62529257E+04</totfact>
</mgrwt>
</event>
<event>
 7    0  0.4705418E-002  0.4557340E+03  0.7546771E-02  0.1026026E+00
         21   -1    0    0  502  501  0.00000000000E+00  0.00000000000E+00  0.69453403202E+02  0.69453403202E+02  0.00000000000E+00 0.  1.
         21   -1    0    0  501  502 -0.00000000000E+00 -0.00000000000E+00 -0.74760021197E+03  0.74760021197E+03  0.00000000000E+00 0.  1.
      99926    2    1    2    0    0  0.00000000000E+00  0.00000000000E+00 -0.67814680877E+03  0.81705361518E+03  0.45573404067E+03 0.  0.
      99925    2    3    3    0    0 -0.88592902405E+02  0.22517354556E+02 -0.54792507810E+03  0.61466552053E+03  0.26312749251E+03 0.  0.
         25    1    4    4    0    0 -0.82143393632E+02  0.25614236358E+02 -0.33091107413E+03  0.36407866362E+03  0.12509000000E+03 0.  0.
         25    1    4    4    0    0 -0.64495087729E+01 -0.30968818020E+01 -0.21701400397E+03  0.25058685692E+03  0.12509000000E+03 0.  0.
         25    1    3    3    0    0  0.88592902405E+02 -0.22517354556E+02 -0.13022173067E+03  0.20238809464E+03  0.12509000000E+03 0.  0.
<mgrwt>
<rscale>  2 0.45573404E+03</rscale>
<asrwt>0</asrwt>
<pdfrwt beam="1">  1       21 0.10213736E-01 0.45573404E+03</pdfrwt>
<pdfrwt beam="2">  1       21 0.10994120E+00 0.45573404E+03</pdfrwt>
<totfact> 0.46681528E+04</totfact>
</mgrwt>
</event>
<event>
 7    0  0.4705418E-002  0.4590668E+03  0.7546771E-02  0.1025052E+00
         21   -1    0    0  502  501  0.00000000000E+00  0.00000000000E+00  0.34300366392E+03  0.34300366392E+03  0.00000000000E+00 0. -1.
         21   -1    0    0  501  502 -0.00000000000E+00 -0.00000000000E+00 -0.15360063008E+03  0.15360063008E+03  0.00000000000E+00 0. -1.
      99926    2    1    2    0    0 -0.14210854715E-13  0.71054273576E-14  0.18940303385E+03  0.49660429400E+03  0.45906678772E+03 0.  0.
      99925    2    3    3    0    0 -0.99309685218E+02  0.61101297450E+02  0.12180684848E+03  0.31272244469E+03  0.26336787380E+03 0.  0.
         25    1    3    3    0    0  0.99309685218E+02 -0.61101297450E+02  0.67596185368E+02  0.18388184931E+03  0.12509000000E+03 0.  0.
         25    1    4    4    0    0 -0.22987741629E+02  0.13293797891E+01  0.33647400245E+02  0.13156693794E+03  0.12509000000E+03 0.  0.
         25    1    4    4    0    0 -0.76321943589E+02  0.59771917661E+02  0.88159448232E+02  0.18115550675E+03  0.12509000000E+03 0.  0.
<mgrwt>
<rscale>  2 0.45906679E+03</rscale>
<asrwt>0</asrwt>
<pdfrwt beam="1">  1       21 0.50441715E-01 0.45906679E+03</pdfrwt>
<pdfrwt beam="2">  1       21 0.22588328E-01 0.45906679E+03</pdfrwt>
<totfact> 0.63436981E+04</totfact>
</mgrwt>
</event>
<event>
 7    0  0.4705418E-002  0.4511954E+03  0.7546771E-02  0.1027366E+00
         21   -1    0    0  502  501  0.00000000000E+00  0.00000000000E+00  0.34137185406E+03  0.34137185406E+03  0.00000000000E+00 0. -1.
         21   -1    0    0  501  502 -0.00000000000E+00 -0.00000000000E+00 -0.14908765608E+03  0.14908765608E+03  0.00000000000E+00 0. -1.
      99926    2    1    2    0    0  0.17763568394E-14  0.00000000000E+00  0.19228419798E+03  0.49045951014E+03  0.45119543249E+03 0.  0.
      99925    2    3    3    0    0 -0.14518221220E+02 -0.10157717659E+03  0.16326639532E+03  0.32608724204E+03  0.26296059026E+03 0.  0.
         25    1    3    3    0    0  0.14518221220E+02  0.10157717659E+03  0.29017802661E+02  0.16437226811E+03  0.12509000000E+03 0.  0.
         25    1    4    4    0    0 -0.47036881531E+02 -0.43819264095E+02  0.84818292197E+02  0.16423838443E+03  0.12509000000E+03 0.  0.
         25    1    4    4    0    0  0.32518660311E+02 -0.57757912494E+02  0.78448103123E+02  0.16184885760E+03  0.12509000000E+03 0.  0.
<mgrwt>
<rscale>  2 0.45119543E+03</rscale>
<asrwt>0</asrwt>
<pdfrwt beam="1">  1       21 0.50201743E-01 0.45119543E+03</pdfrwt>
<pdfrwt beam="2">  1       21 0.21924655E-01 0.45119543E+03</pdfrwt>
<totfact> 0.67976256E+04</totfact>
</mgrwt>
</event>
<event>
 7    0  0.4705418E-002  0.4637611E+03  0.7546771E-02  0.1023696E+00
         21   -1    0    0  502  501  0.00000000000E+00  0.00000000000E+00  0.77730392569E+02  0.77730392569E+02  0.00000000000E+00 0. -1.
         21   -1    0    0  501  502 -0.00000000000E+00 -0.00000000000E+00 -0.69173201201E+03  0.69173201201E+03  0.00000000000E+00 0. -1.
      99926    2    1    2    0    0  0.00000000000E+00  0.00000000000E+00 -0.61400161944E+03  0.76946240458E+03  0.46376114907E+03 0.  0.
      99925    2    3    3    0    0  0.11251810735E+03 -0.43718799316E+02 -0.40137359162E+03  0.49481746250E+03  0.26300551943E+03 0.  0.
         25    1    4    4    0    0  0.93565639829E+02 -0.22028985385E+01 -0.21562625399E+03  0.26627348954E+03  0.12509000000E+03 0.  0.
         25    1    4    4    0    0  0.18952467518E+02 -0.41515900778E+02 -0.18574733763E+03  0.22854397296E+03  0.12509000000E+03 0.  0.
         25    1    3    3    0    0 -0.11251810735E+03  0.43718799316E+02 -0.21262802782E+03  0.27464494208E+03  0.12509000000E+03 0.  0.
<mgrwt>
<rscale>  2 0.46376115E+03</rscale>
<asrwt>0</asrwt>
<pdfrwt beam="1">  1       21 0.11430940E-01 0.46376115E+03</pdfrwt>
<pdfrwt beam="2">  1       21 0.10172530E+00 0.46376115E+03</pdfrwt>
<totfact> 0.46028997E+04</totfact>
</mgrwt>
</event>
<event>
 7    0  0.4705418E-002  0.4557672E+03  0.7546771E-02  0.1026016E+00
         21   -1    0    0  502  501  0.00000000000E+00  0.00000000000E+00  0.55928732198E+03  0.55928732198E+03  0.00000000000E+00 0.  1.
         21   -1    0    0  501  502 -0.00000000000E+00 -0.00000000000E+00 -0.92851970923E+02  0.92851970923E+02  0.00000000000E+00 0.  1.
      99926    2    1    2    0    0  0.14210854715E-13  0.00000000000E+00  0.46643535106E+03  0.65213929291E+03  0.45576717810E+03 0.  0.
      99925    2    3    3    0    0  0.10609033960E+03 -0.39085813654E+02  0.31407261608E+03  0.42488443136E+03  0.26287318398E+03 0.  0.
         25    1    3    3    0    0 -0.10609033960E+03  0.39085813654E+02  0.15236273498E+03  0.22725486154E+03  0.12509000000E+03 0.  0.
         25    1    4    4    0    0  0.23891415557E+02  0.15719005897E+01  0.17585940219E+03  0.21713430877E+03  0.12509000000E+03 0.  0.
         25    1    4    4    0    0  0.82198924040E+02 -0.40657714244E+02  0.13821321390E+03  0.20775012259E+03  0.12509000000E+03 0.  0.
<mgrwt>
<rscale>  2 0.45576718E+03</rscale>
<asrwt>0</asrwt>
<pdfrwt beam="1">  1       21 0.82248134E-01 0.45576718E+03</pdfrwt>
<pdfrwt beam="2">  1       21 0.13654702E-01 0.45576718E+03</pdfrwt>
<totfact> 0.55243332E+04</totfact>
</mgrwt>
</event>
<event>
 6    0  0.4705418E-002  0.4536231E+03  0.7546771E-02  0.1026647E+00
         21   -1    0    0  502  501  0.00000000000E+00  0.00000000000E+00  0.34599299505E+03  0.34599299505E+03  0.00000000000E+00 0.  1.
         21   -1    0    0  501  502 -0.00000000000E+00 -0.00000000000E+00 -0.14868359700E+03  0.14868359700E+03  0.00000000000E+00 0.  1.
      99926    2    1    2    0    0  0.00000000000E+00  0.00000000000E+00  0.19730939804E+03  0.49467659205E+03  0.45362311688E+03 0.  0.
         25    1    3    3    0    0 -0.80249927965E+01  0.30555233904E+02  0.62086297613E+02  0.14317904623E+03  0.12509000000E+03 0.  0.
         25    1    3    3    0    0 -0.90200573937E+02 -0.51797099847E+00  0.10570707963E+03  0.18697033619E+03  0.12509000000E+03 0.  0.
         25    1    3    3    0    0  0.98225566733E+02 -0.30037262905E+02  0.29516020802E+02  0.16452720962E+03  0.12509000000E+03 0.  0.
<mgrwt>
<rscale>  2 0.45362312E+03</rscale>
<asrwt>0</asrwt>
<pdfrwt beam="1">  1       21 0.50881323E-01 0.45362312E+03</pdfrwt>
<pdfrwt beam="2">  1       21 0.21865235E-01 0.45362312E+03</pdfrwt>
<totfact> 0.66368758E+04</totfact>
</mgrwt>
</event>
<event>
 7    0  0.4705418E-002  0.4504642E+03  0.7546771E-02  0.1027584E+00
         21   -1    0    0  502  501  0.00000000000E+00  0.00000000000E+00  0.12287812894E+04  0.12287812894E+04  0.00000000000E+00 0. -1.
         21   -1    0    0  501  502 -0.00000000000E+00 -0.00000000000E+00 -0.41284398396E+02  0.41284398396E+02  0.00000000000E+00 0. -1.
      99926    2    1    2    0    0  0.00000000000E+00 -0.14210854715E-13  0.11874968910E+04  0.12700656878E+04  0.45046418856E+03 0.  0.
      99925    2    3    3    0    0 -0.19181532636E+02 -0.10639217808E+03  0.71686567714E+03  0.77123858918E+03  0.26310708016E+03 0.  0.
         25    1    3    3    0    0  0.19181532636E+02  0.10639217808E+03  0.47063121389E+03  0.49882709864E+03  0.12509000000E+03 0.  0.
         25    1    4    4    0    0  0.74576314979E+00 -0.94475825059E+02  0.37367517844E+03  0.40522448687E+03  0.12509000000E+03 0.  0.
         25    1    4    4    0    0 -0.19927295786E+02 -0.11916353019E+02  0.34319049870E+03  0.36601410231E+03  0.12509000000E+03 0.  0.
<mgrwt>
<rscale>  2 0.45046419E+03</rscale>
<asrwt>0</asrwt>
<pdfrwt beam="1">  1       21 0.18070311E+00 0.45046419E+03</pdfrwt>
<pdfrwt beam="2">  1       21 0.60712358E-02 0.45046419E+03</pdfrwt>
<totfact> 0.31079075E+04</totfact>
</mgrwt>
</event>
<event>
 7    0  0.4705418E-002  0.4523602E+03  0.7546771E-02  0.1027021E+00
         21   -1    0    0  502  501  0.00000000000E+00  0.00000000000E+00  0.14694403192E+03  0.14694403192E+03  0.00000000000E+00 0. -1.
         21   -1    0    0  501  502 -0.00000000000E+00 -0.00000000000E+00 -0.34814237864E+03  0.34814237864E+03  0.00000000000E+00 0. -1.
      99926    2    1    2    0    0  0.00000000000E+00 -0.71054273576E-14 -0.20119834673E+03  0.49508641056E+03  0.45236023167E+03 0.  0.
      99925    2    3    3    0    0 -0.97785422974E+02 -0.35257404505E+02 -0.85524239021E+02  0.29550414478E+03  0.26306506915E+03 0.  0.
         25    1    4    4    0    0 -0.76741100752E+02 -0.40077630272E+02 -0.70529404660E+02  0.16768219349E+03  0.12509000000E+03 0.  0.
         25    1    3    3    0    0  0.97785422974E+02  0.35257404505E+02 -0.11567410771E+03  0.19958226578E+03  0.12509000000E+03 0.  0.
         25    1    4    4    0    0 -0.21044322222E+02  0.48202257675E+01 -0.14994834361E+02  0.12782195129E+03  0.12509000000E+03 0.  0.
<mgrwt>
<rscale>  2 0.45236023E+03</rscale>
<asrwt>0</asrwt>
<pdfrwt beam="1">  1       21 0.21609416E-01 0.45236023E+03</pdfrwt>
<pdfrwt beam="2">  1       21 0.51197410E-01 0.45236023E+03</pdfrwt>
<totfact> 0.67010521E+04</totfact>
</mgrwt>
</event>
<event>
 7    0  0.4705418E-002  0.4141240E+03  0.7546771E-02  0.1038996E+00
         21   -1    0    0  502  501  0.00000000000E+00  0.00000000000E+00  0.30252063423E+04  0.30252063423E+04  0.00000000000E+00 0.  1.
         21   -1    0    0  501  502 -0.00000000000E+00 -0.00000000000E+00 -0.14172479855E+02  0.14172479855E+02  0.00000000000E+00 0.  1.
      99926    2    1    2    0    0  0.00000000000E+00 -0.17763568394E-14  0.30110338625E+04  0.30393788222E+04  0.41412401980E+03 0.  0.
      99925    2    3    3    0    0  0.54693293896E+02 -0.13767107279E+02  0.22552024336E+04  0.22711929419E+04  0.26305602699E+03 0.  0.
         25    1    3    3    0    0 -0.54693293896E+02  0.13767107279E+02  0.75583142888E+03  0.76818588026E+03  0.12509000000E+03 0.  0.
         25    1    4    4    0    0  0.47663511546E+02 -0.23975735009E+02  0.14327848697E+04  0.14392243178E+04  0.12509000000E+03 0.  0.
         25    1    4    4    0    0  0.70297823498E+01  0.10208627731E+02  0.82241756395E+03  0.83196862411E+03  0.12509000000E+03 0.  0.
<mgrwt>
<rscale>  2 0.41412402E+03</rscale>
<asrwt>0</asrwt>
<pdfrwt beam="1">  1       21 0.44488284E+00 0.41412402E+03</pdfrwt>
<pdfrwt beam="2">  1       21 0.20841903E-02 0.41412402E+03</pdfrwt>
<totfact> 0.42264687E+03</totfact>
</mgrwt>
</event>
<event>
 7    0  0.4705418E-002  0.4522836E+03  0.7546771E-02  0.1027043E+00
         21   -1    0    0  502  501  0.00000000000E+00  0.00000000000E+00  0.74185164664E+03  0.74185164664E+03  0.00000000000E+00 0.  1.
         21   -1    0    0  501  502 -0.00000000000E+00 -0.00000000000E+00 -0.68935763824E+02  0.68935763824E+02  0.00000000000E+00 0.  1.
      99926    2    1    2    0    0  0.00000000000E+00  0.00000000000E+00  0.67291588281E+03  0.81078741046E+03  0.45228358319E+03 0.  0.
      99925    2    3    3    0    0  0.48482721889E+02  0.35539876197E+02  0.25764000737E+03  0.37293444662E+03  0.26284609747E+03 0.  0.
         25    1    3    3    0    0 -0.48482721889E+02 -0.35539876197E+02  0.41527587544E+03  0.43785296384E+03  0.12509000000E+03 0.  0.
         25    1    4    4    0    0  0.59924836513E+02 -0.12793046563E+01  0.12993554259E+03  0.19006150578E+03  0.12509000000E+03 0.  0.
         25    1    4    4    0    0 -0.11442114624E+02  0.36819180853E+02  0.12770446478E+03  0.18287294084E+03  0.12509000000E+03 0.  0.
<mgrwt>
<rscale>  2 0.45228358E+03</rscale>
<asrwt>0</asrwt>
<pdfrwt beam="1">  1       21 0.10909583E+00 0.45228358E+03</pdfrwt>
<pdfrwt beam="2">  1       21 0.10137613E-01 0.45228358E+03</pdfrwt>
<totfact> 0.48268159E+04</totfact>
</mgrwt>
</event>
<event>
 7    0  0.4705418E-002  0.4568722E+03  0.7546771E-02  0.1025692E+00
         21   -1    0    0  502  501  0.00000000000E+00  0.00000000000E+00  0.80380138625E+02  0.80380138625E+02  0.00000000000E+00 0. -1.
         21   -1    0    0  501  502 -0.00000000000E+00 -0.00000000000E+00 -0.64920325434E+03  0.64920325434E+03  0.00000000000E+00 0. -1.
      99926    2    1    2    0    0  0.00000000000E+00  0.17763568394E-14 -0.56882311571E+03  0.72958339297E+03  0.45687218160E+03 0.  0.
      99925    2    3    3    0    0  0.75471256051E+02  0.66463831293E+01 -0.49536964524E+03  0.56592825151E+03  0.26295173614E+03 0.  0.
         25    1    4    4    0    0  0.80151832603E+01  0.28937078679E+02 -0.25983591077E+03  0.28993759037E+03  0.12509000000E+03 0.  0.
         25    1    3    3    0    0 -0.75471256051E+02 -0.66463831293E+01 -0.73453470474E+02  0.16365514145E+03  0.12509000000E+03 0.  0.
         25    1    4    4    0    0  0.67456072790E+02 -0.22290695550E+02 -0.23553373447E+03  0.27599066115E+03  0.12509000000E+03 0.  0.
<mgrwt>
<rscale>  2 0.45687218E+03</rscale>
<asrwt>0</asrwt>
<pdfrwt beam="1">  1       21 0.11820608E-01 0.45687218E+03</pdfrwt>
<pdfrwt beam="2">  1       21 0.95471068E-01 0.45687218E+03</pdfrwt>
<totfact> 0.50577335E+04</totfact>
</mgrwt>
</event>
<event>
 6    0  0.4705418E-002  0.4566489E+03  0.7546771E-02  0.1025758E+00
         21   -1    0    0  502  501  0.00000000000E+00  0.00000000000E+00  0.27325197800E+03  0.27325197800E+03  0.00000000000E+00 0.  1.
         21   -1    0    0  501  502 -0.00000000000E+00 -0.00000000000E+00 -0.19078380208E+03  0.19078380208E+03  0.00000000000E+00 0.  1.
      99926    2    1    2    0    0  0.00000000000E+00  0.00000000000E+00  0.82468175920E+02  0.46403578007E+03  0.45664888607E+03 0.  0.
         25    1    3    3    0    0  0.68584045761E+02  0.63802882405E+00  0.58545583607E+02  0.15420529133E+03  0.12509000000E+03 0.  0.
         25    1    3    3    0    0  0.21050877521E+02  0.37760671847E+02  0.62851035171E+02  0.14651542071E+03  0.12509000000E+03 0.  0.
         25    1    3    3    0    0 -0.89634923283E+02 -0.38398700671E+02 -0.38928442859E+02  0.16331506804E+03  0.12509000000E+03 0.  0.
<mgrwt>
<rscale>  2 0.45664889E+03</rscale>
<asrwt>0</asrwt>
<pdfrwt beam="1">  1       21 0.40184114E-01 0.45664889E+03</pdfrwt>
<pdfrwt beam="2">  1       21 0.28056441E-01 0.45664889E+03</pdfrwt>
<totfact> 0.66999253E+04</totfact>
</mgrwt>
</event>
<event>
 7    0  0.4705418E-002  0.4528255E+03  0.7546771E-02  0.1026883E+00
         21   -1    0    0  502  501  0.00000000000E+00  0.00000000000E+00  0.26098790576E+03  0.26098790576E+03  0.00000000000E+00 0. -1.
         21   -1    0    0  501  502 -0.00000000000E+00 -0.00000000000E+00 -0.19641804036E+03  0.19641804036E+03  0.00000000000E+00 0. -1.
      99926    2    1    2    0    0 -0.71054273576E-14  0.00000000000E+00  0.64569865393E+02  0.45740594612E+03  0.45282549843E+03 0.  0.
      99925    2    3    3    0    0  0.50807458966E+02 -0.90894388165E+02  0.80537180038E+02  0.29386496984E+03  0.26273027127E+03 0.  0.
         25    1    4    4    0    0  0.54802375856E+02 -0.22467559281E+02  0.24197369621E+02  0.14050306906E+03  0.12509000000E+03 0.  0.
         25    1    3    3    0    0 -0.50807458966E+02  0.90894388165E+02 -0.15967314645E+02  0.16354097628E+03  0.12509000000E+03 0.  0.
         25    1    4    4    0    0 -0.39949168905E+01 -0.68426828884E+02  0.56339810416E+02  0.15336190078E+03  0.12509000000E+03 0.  0.
<mgrwt>
<rscale>  2 0.45282550E+03</rscale>
<asrwt>0</asrwt>
<pdfrwt beam="1">  1       21 0.38380574E-01 0.45282550E+03</pdfrwt>
<pdfrwt beam="2">  1       21 0.28885006E-01 0.45282550E+03</pdfrwt>
<totfact> 0.69568626E+04</totfact>
</mgrwt>
</event>
<event>
 7    0  0.4705418E-002  0.4561117E+03  0.7546771E-02  0.1025915E+00
         21   -1    0    0  502  501  0.00000000000E+00  0.00000000000E+00  0.31473776441E+02  0.31473776441E+02  0.00000000000E+00 0.  1.
         21   -1    0    0  501  502 -0.00000000000E+00 -0.00000000000E+00 -0.16524699618E+04  0.16524699618E+04  0.00000000000E+00 0.  1.
      99926    2    1    2    0    0  0.44408920985E-14  0.17763568394E-14 -0.16209961854E+04  0.16839437383E+04  0.45611169752E+03 0.  0.
      99925    2    3    3    0    0  0.57822776861E+01 -0.14814009218E+02 -0.14366890931E+04  0.14606289336E+04  0.26288484534E+03 0.  0.
         25    1    4    4    0    0  0.40057005541E+02 -0.20445154849E+02 -0.67697246877E+03  0.68989984753E+03  0.12509000000E+03 0.  0.
         25    1    4    4    0    0 -0.34274727855E+02  0.56311456309E+01 -0.75971662433E+03  0.77072908610E+03  0.12509000000E+03 0.  0.
         25    1    3    3    0    0 -0.57822776861E+01  0.14814009218E+02 -0.18430709228E+03  0.22331480463E+03  0.12509000000E+03 0.  0.
<mgrwt>
<rscale>  2 0.45611170E+03</rscale>
<asrwt>0</asrwt>
<pdfrwt beam="1">  1       21 0.46284963E-02 0.45611170E+03</pdfrwt>
<pdfrwt beam="2">  1       21 0.24301030E+00 0.45611170E+03</pdfrwt>
<totfact> 0.19429479E+04</totfact>
</mgrwt>
</event>
<event>
 7    0  0.4705418E-002  0.4613986E+03  0.7546771E-02  0.1024376E+00
         21   -1    0    0  502  501  0.00000000000E+00  0.00000000000E+00  0.38706478376E+03  0.38706478376E+03  0.00000000000E+00 0. -1.
         21   -1    0    0  501  502 -0.00000000000E+00 -0.00000000000E+00 -0.13750196936E+03  0.13750196936E+03  0.00000000000E+00 0. -1.
      99926    2    1    2    0    0  0.00000000000E+00  0.71054273576E-14  0.24956281441E+03  0.52456675312E+03  0.46139861307E+03 0.  0.
      99925    2    3    3    0    0  0.90798327456E+02  0.51856697298E+02  0.22141638056E+03  0.35911832260E+03  0.26269241086E+03 0.  0.
         25    1    4    4    0    0  0.16414723961E+02  0.25085725202E+02  0.66200718102E+02  0.14466782624E+03  0.12509000000E+03 0.  0.
         25    1    4    4    0    0  0.74383603495E+02  0.26770972097E+02  0.15521566246E+03  0.21445049636E+03  0.12509000000E+03 0.  0.
         25    1    3    3    0    0 -0.90798327456E+02 -0.51856697298E+02  0.28146433848E+02  0.16544843052E+03  0.12509000000E+03 0.  0.
<mgrwt>
<rscale>  2 0.46139861E+03</rscale>
<asrwt>0</asrwt>
<pdfrwt beam="1">  1       21 0.56921291E-01 0.46139861E+03</pdfrwt>
<pdfrwt beam="2">  1       21 0.20220878E-01 0.46139861E+03</pdfrwt>
<totfact> 0.60449708E+04</totfact>
</mgrwt>
</event>
<event>
 7    0  0.4705418E-002  0.4551927E+03  0.7546771E-02  0.1026185E+00
         21   -1    0    0  502  501  0.00000000000E+00  0.00000000000E+00  0.52229828237E+03  0.52229828237E+03  0.00000000000E+00 0. -1.
         21   -1    0    0  501  502 -0.00000000000E+00 -0.00000000000E+00 -0.99177244485E+02  0.99177244485E+02  0.00000000000E+00 0. -1.
      99926    2    1    2    0    0 -0.22204460493E-15  0.00000000000E+00  0.42312103788E+03  0.62147552685E+03  0.45519272597E+03 0.  0.
      99925    2    3    3    0    0  0.34815678693E+00  0.96069056125E+02  0.34829909337E+03  0.44690400501E+03  0.26302385157E+03 0.  0.
         25    1    4    4    0    0 -0.58694391751E+01  0.72871462688E+02  0.13260750446E+03  0.19641017980E+03  0.12509000000E+03 0.  0.
         25    1    4    4    0    0  0.62175959620E+01  0.23197593437E+02  0.21569158892E+03  0.25049382521E+03  0.12509000000E+03 0.  0.
         25    1    3    3    0    0 -0.34815678693E+00 -0.96069056125E+02  0.74821944512E+02  0.17457152184E+03  0.12509000000E+03 0.  0.
<mgrwt>
<rscale>  2 0.45519273E+03</rscale>
<asrwt>0</asrwt>
<pdfrwt beam="1">  1       21 0.76808569E-01 0.45519273E+03</pdfrwt>
<pdfrwt beam="2">  1       21 0.14584889E-01 0.45519273E+03</pdfrwt>
<totfact> 0.57288259E+04</totfact>
</mgrwt>
</event>
<event>
 7    0  0.4705418E-002  0.4550398E+03  0.7546771E-02  0.1026230E+00
         21   -1    0    0  502  501  0.00000000000E+00  0.00000000000E+00  0.74625970232E+02  0.74625970232E+02  0.00000000000E+00 0.  1.
         21   -1    0    0  501  502 -0.00000000000E+00 -0.00000000000E+00 -0.69366342283E+03  0.69366342283E+03  0.00000000000E+00 0.  1.
      99926    2    1    2    0    0 -0.71054273576E-14  0.00000000000E+00 -0.61903745260E+03  0.76828939306E+03  0.45503980460E+03 0.  0.
      99925    2    3    3    0    0  0.40822452725E+02  0.32608779953E+02 -0.21936845296E+03  0.34625548145E+03  0.26275565666E+03 0.  0.
         25    1    3    3    0    0 -0.40822452725E+02 -0.32608779953E+02 -0.39966899964E+03  0.42203391161E+03  0.12509000000E+03 0.  0.
         25    1    4    4    0    0  0.15731027212E+02 -0.41093080594E+01 -0.15154329205E+03  0.19717309425E+03  0.12509000000E+03 0.  0.
         25    1    4    4    0    0  0.25091425513E+02  0.36718088013E+02 -0.67825160903E+02  0.14908238720E+03  0.12509000000E+03 0.  0.
<mgrwt>
<rscale>  2 0.45503980E+03</rscale>
<asrwt>0</asrwt>
<pdfrwt beam="1">  1       21 0.10974407E-01 0.45503980E+03</pdfrwt>
<pdfrwt beam="2">  1       21 0.10200933E+00 0.45503980E+03</pdfrwt>
<totfact> 0.49321351E+04</totfact>
</mgrwt>
</event>
<event>
 7    0  0.4705418E-002  0.4290332E+03  0.7546771E-02  0.1034166E+00
         21   -1    0    0  502  501  0.00000000000E+00  0.00000000000E+00  0.53304913391E+02  0.53304913391E+02  0.00000000000E+00 0.  1.
         21   -1    0    0  501  502 -0.00000000000E+00 -0.00000000000E+00 -0.86328588850E+03  0.86328588850E+03  0.00000000000E+00 0.  1.
      99926    2    1    2    0    0  0.00000000000E+00  0.71054273576E-14 -0.80998097511E+03  0.91659080189E+03  0.42903323656E+03 0.  0.
      99925    2    3    3    0    0  0.61896912759E+02 -0.51924394415E+02 -0.59013104057E+03  0.65105573385E+03  0.26285272109E+03 0.  0.
         25    1    4    4    0    0  0.17301464718E+02 -0.42888004448E+02 -0.21495062060E+03  0.25296244583E+03  0.12509000000E+03 0.  0.
         25    1    4    4    0    0  0.44595448041E+02 -0.90363899669E+01 -0.37518041997E+03  0.39809328801E+03  0.12509000000E+03 0.  0.
         25    1    3    3    0    0 -0.61896912759E+02  0.51924394415E+02 -0.21984993454E+03  0.26553506804E+03  0.12509000000E+03 0.  0.
<mgrwt>
<rscale>  2 0.42903324E+03</rscale>
<asrwt>0</asrwt>
<pdfrwt beam="1">  1       21 0.78389590E-02 0.42903324E+03</pdfrwt>
<pdfrwt beam="2">  1       21 0.12695379E+00 0.42903324E+03</pdfrwt>
<totfact> 0.52382141E+04</totfact>
</mgrwt>
</event>
<event>
 7    0  0.4705418E-002  0.4585937E+03  0.7546771E-02  0.1025190E+00
         21   -1    0    0  502  501  0.00000000000E+00  0.00000000000E+00  0.28071830115E+03  0.28071830115E+03  0.00000000000E+00 0.  1.
         21   -1    0    0  501  502 -0.00000000000E+00 -0.00000000000E+00 -0.18729466197E+03  0.18729466197E+03  0.00000000000E+00 0.  1.
      99926    2    1    2    0    0  0.00000000000E+00  0.00000000000E+00  0.93423639186E+02  0.46801296312E+03  0.45859367341E+03 0.  0.
      99925    2    3    3    0    0 -0.62373467092E+02  0.11761072787E+01 -0.42301419289E+02  0.27317807861E+03  0.26257383710E+03 0.  0.
         25    1    4    4    0    0 -0.17068918671E+02  0.14122192285E+02  0.14656027959E+02  0.12787920689E+03  0.12509000000E+03 0.  0.
         25    1    3    3    0    0  0.62373467092E+02 -0.11761072787E+01  0.13572505848E+03  0.19483488451E+03  0.12509000000E+03 0.  0.
         25    1    4    4    0    0 -0.45304548421E+02 -0.12946085006E+02 -0.56957447248E+02  0.14529887171E+03  0.12509000000E+03 0.  0.
<mgrwt>
<rscale>  2 0.45859367E+03</rscale>
<asrwt>0</asrwt>
<pdfrwt beam="1">  1       21 0.41282103E-01 0.45859367E+03</pdfrwt>
<pdfrwt beam="2">  1       21 0.27543333E-01 0.45859367E+03</pdfrwt>
<totfact> 0.65690479E+04</totfact>
</mgrwt>
</event>
<event>
 7    0  0.4705418E-002  0.4569460E+03  0.7546771E-02  0.1025671E+00
         21   -1    0    0  502  501  0.00000000000E+00  0.00000000000E+00  0.13576688113E+03  0.13576688113E+03  0.00000000000E+00 0.  1.
         21   -1    0    0  501  502 -0.00000000000E+00 -0.00000000000E+00 -0.38448191245E+03  0.38448191245E+03  0.00000000000E+00 0.  1.
      99926    2    1    2    0    0  0.00000000000E+00  0.00000000000E+00 -0.24871503132E+03  0.52024879358E+03  0.45694599288E+03 0.  0.
      99925    2    3    3    0    0  0.92855514749E+02  0.59138626111E+02 -0.19422385331E+03  0.34493102409E+03  0.26293531993E+03 0.  0.
         25    1    4    4    0    0  0.52669320034E+02  0.51471764196E+02 -0.14282131985E+03  0.20363898764E+03  0.12509000000E+03 0.  0.
         25    1    3    3    0    0 -0.92855514749E+02 -0.59138626111E+02 -0.54491178014E+02  0.17531776949E+03  0.12509000000E+03 0.  0.
         25    1    4    4    0    0  0.40186194716E+02  0.76668619156E+01 -0.51402533458E+02  0.14129203645E+03  0.12509000000E+03 0.  0.
<mgrwt>
<rscale>  2 0.45694599E+03</rscale>
<asrwt>0</asrwt>
<pdfrwt beam="1">  1       21 0.19965718E-01 0.45694599E+03</pdfrwt>
<pdfrwt beam="2">  1       21 0.56541457E-01 0.45694599E+03</pdfrwt>
<totfact> 0.62893648E+04</totfact>
</mgrwt>
</event>
<event>
 7    0  0.4705418E-002  0.4450709E+03  0.7546771E-02  0.1029202E+00
         21   -1    0    0  502  501  0.00000000000E+00  0.00000000000E+00  0.39913335252E+03  0.39913335252E+03  0.00000000000E+00 0. -1.
         21   -1    0    0  501  502 -0.00000000000E+00 -0.00000000000E+00 -0.12407389208E+03  0.12407389208E+03  0.00000000000E+00 0. -1.
      99926    2    1    2    0    0 -0.35527136788E-14  0.00000000000E+00  0.27505946043E+03  0.52320724460E+03  0.44507090899E+03 0.  0.
      99925    2    3    3    0    0 -0.17741399546E+02 -0.10056632456E+02  0.55179856354E+02  0.26941512198E+03  0.26291405115E+03 0.  0.
         25    1    4    4    0    0 -0.33062503898E+02  0.22173828870E+02  0.97662406940E+01  0.13163470442E+03  0.12509000000E+03 0.  0.
         25    1    4    4    0    0  0.15321104353E+02 -0.32230461326E+02  0.45413615660E+02  0.13778041756E+03  0.12509000000E+03 0.  0.
         25    1    3    3    0    0  0.17741399546E+02  0.10056632456E+02  0.21987960408E+03  0.25379212262E+03  0.12509000000E+03 0.  0.
<mgrwt>
<rscale>  2 0.44507091E+03</rscale>
<asrwt>0</asrwt>
<pdfrwt beam="1">  1       21 0.58696081E-01 0.44507091E+03</pdfrwt>
<pdfrwt beam="2">  1       21 0.18246161E-01 0.44507091E+03</pdfrwt>
<totfact> 0.68933658E+04</totfact>
</mgrwt>
</event>
<event>
 7    0  0.4705418E-002  0.4446265E+03  0.7546771E-02  0.1029337E+00
         21   -1    0    0  502  501  0.00000000000E+00  0.00000000000E+00  0.53236259798E+03  0.53236259798E+03  0.00000000000E+00 0.  1.
         21   -1    0    0  501  502 -0.00000000000E+00 -0.00000000000E+00 -0.92837426233E+02  0.92837426233E+02  0.00000000000E+00 0.  1.
      99926    2    1    2    0    0  0.00000000000E+00  0.00000000000E+00  0.43952517174E+03  0.62520002421E+03  0.44462646533E+03 0.  0.
      99925    2    3    3    0    0 -0.39302747277E+02  0.73212420832E+02  0.19342435279E+03  0.33689829737E+03  0.26302607858E+03 0.  0.
         25    1    4    4    0    0 -0.46802092443E+02  0.19429621471E+02  0.65903691078E+02  0.15019570781E+03  0.12509000000E+03 0.  0.
         25    1    4    4    0    0  0.74993451659E+01  0.53782799361E+02  0.12752066171E+03  0.18670258956E+03  0.12509000000E+03 0.  0.
         25    1    3    3    0    0  0.39302747277E+02 -0.73212420832E+02  0.24610081896E+03  0.28830172684E+03  0.12509000000E+03 0.  0.
<mgrwt>
<rscale>  2 0.44462647E+03</rscale>
<asrwt>0</asrwt>
<pdfrwt beam="1">  1       21 0.78288616E-01 0.44462647E+03</pdfrwt>
<pdfrwt beam="2">  1       21 0.13652563E-01 0.44462647E+03</pdfrwt>
<totfact> 0.62083646E+04</totfact>
</mgrwt>
</event>
<event>
 7    0  0.4705418E-002  0.4527092E+03  0.7546771E-02  0.1026917E+00
         21   -1    0    0  502  501  0.00000000000E+00  0.00000000000E+00  0.10804793912E+04  0.10804793912E+04  0.00000000000E+00 0.  1.
         21   -1    0    0  501  502 -0.00000000000E+00 -0.00000000000E+00 -0.47420061132E+02  0.47420061132E+02  0.00000000000E+00 0.  1.
      99926    2    1    2    0    0  0.00000000000E+00 -0.35527136788E-14  0.10330593301E+04  0.11278994524E+04  0.45270917280E+03 0.  0.
      99925    2    3    3    0    0  0.10472245794E+03  0.20328144377E+02  0.72804279908E+03  0.78139891997E+03  0.26297895009E+03 0.  0.
         25    1    3    3    0    0 -0.10472245794E+03 -0.20328144377E+02  0.30501653101E+03  0.34650053238E+03  0.12509000000E+03 0.  0.
         25    1    4    4    0    0  0.17061291603E+02 -0.13298573703E+02  0.34791709512E+03  0.37035355123E+03  0.12509000000E+03 0.  0.
         25    1    4    4    0    0  0.87661166338E+02  0.33626718081E+02  0.38012570397E+03  0.41104536875E+03  0.12509000000E+03 0.  0.
<mgrwt>
<rscale>  2 0.45270917E+03</rscale>
<asrwt>0</asrwt>
<pdfrwt beam="1">  1       21 0.15889401E+00 0.45270917E+03</pdfrwt>
<pdfrwt beam="2">  1       21 0.69735391E-02 0.45270917E+03</pdfrwt>
<totfact> 0.35152459E+04</totfact>
</mgrwt>
</event>
<event>
 7    0  0.4705418E-002  0.4445999E+03  0.7546771E-02  0.1029345E+00
         21   -1    0    0  502  501  0.00000000000E+00  0.00000000000E+00  0.22005073371E+03  0.22005073371E+03  0.00000000000E+00 0.  1.
         21   -1    0    0  501  502 -0.00000000000E+00 -0.00000000000E+00 -0.22457215638E+03  0.22457215638E+03  0.00000000000E+00 0.  1.
      99926    2    1    2    0    0 -0.14210854715E-13 -0.14210854715E-13 -0.45214226742E+01  0.44462289009E+03  0.44459990006E+03 0.  0.
      99925    2    3    3    0    0 -0.73012124478E+02 -0.72025614605E+02  0.82006427348E+01  0.28236439716E+03  0.26295235835E+03 0.  0.
         25    1    4    4    0    0 -0.23442743497E+02 -0.73353301704E+02 -0.62768610841E+01  0.14702780750E+03  0.12509000000E+03 0.  0.
         25    1    4    4    0    0 -0.49569380981E+02  0.13276870987E+01  0.14477503819E+02  0.13533658966E+03  0.12509000000E+03 0.  0.
         25    1    3    3    0    0  0.73012124478E+02  0.72025614605E+02 -0.12722065409E+02  0.16225849293E+03  0.12509000000E+03 0.  0.
<mgrwt>
<rscale>  2 0.44459990E+03</rscale>
<asrwt>0</asrwt>
<pdfrwt beam="1">  1       21 0.32360402E-01 0.44459990E+03</pdfrwt>
<pdfrwt beam="2">  1       21 0.33025317E-01 0.44459990E+03</pdfrwt>
<totfact> 0.75376140E+04</totfact>
</mgrwt>
</event>
<event>
 7    0  0.4705418E-002  0.4550638E+03  0.7546771E-02  0.1026223E+00
         21   -1    0    0  502  501  0.00000000000E+00  0.00000000000E+00  0.65497571514E+03  0.65497571514E+03  0.00000000000E+00 0.  1.
         21   -1    0    0  501  502 -0.00000000000E+00 -0.00000000000E+00 -0.79042264220E+02  0.79042264220E+02  0.00000000000E+00 0.  1.
      99926    2    1    2    0    0  0.00000000000E+00  0.00000000000E+00  0.57593345092E+03  0.73401797936E+03  0.45506379128E+03 0.  0.
      99925    2    3    3    0    0  0.83748436428E+02  0.57443184560E+02  0.44327184015E+03  0.52530733965E+03  0.26295314557E+03 0.  0.
         25    1    4    4    0    0  0.57485013983E+02  0.50031357475E+02  0.17619905018E+03  0.22913157126E+03  0.12509000000E+03 0.  0.
         25    1    4    4    0    0  0.26263422445E+02  0.74118270849E+01  0.26707278997E+03  0.29617576839E+03  0.12509000000E+03 0.  0.
         25    1    3    3    0    0 -0.83748436428E+02 -0.57443184560E+02  0.13266161078E+03  0.20871063972E+03  0.12509000000E+03 0.  0.
<mgrwt>
<rscale>  2 0.45506379E+03</rscale>
<asrwt>0</asrwt>
<pdfrwt beam="1">  1       21 0.96319956E-01 0.45506379E+03</pdfrwt>
<pdfrwt beam="2">  1       21 0.11623863E-01 0.45506379E+03</pdfrwt>
<totfact> 0.51069018E+04</totfact>
</mgrwt>
</event>
<event>
 7    0  0.4705418E-002  0.4544319E+03  0.7546771E-02  0.1026409E+00
         21   -1    0    0  502  501  0.00000000000E+00  0.00000000000E+00  0.21113644927E+03  0.21113644927E+03  0.00000000000E+00 0. -1.
         21   -1    0    0  501  502 -0.00000000000E+00 -0.00000000000E+00 -0.24451999218E+03  0.24451999218E+03  0.00000000000E+00 0. -1.
      99926    2    1    2    0    0 -0.14210854715E-13 -0.14210854715E-13 -0.33383542913E+02  0.45565644145E+03  0.45443187795E+03 0.  0.
      99925    2    3    3    0    0  0.70497378746E+02  0.86961792091E+02 -0.11309117680E+02  0.28634305733E+03  0.26331011496E+03 0.  0.
         25    1    3    3    0    0 -0.70497378746E+02 -0.86961792091E+02 -0.22074425233E+02  0.16931338412E+03  0.12509000000E+03 0.  0.
         25    1    4    4    0    0  0.35020636529E+02  0.37253444775E+00 -0.45818228767E+01  0.12998109465E+03  0.12509000000E+03 0.  0.
         25    1    4    4    0    0  0.35476742217E+02  0.86589257644E+02 -0.67272948037E+01  0.15636196268E+03  0.12509000000E+03 0.  0.
<mgrwt>
<rscale>  2 0.45443188E+03</rscale>
<asrwt>0</asrwt>
<pdfrwt beam="1">  1       21 0.31049478E-01 0.45443188E+03</pdfrwt>
<pdfrwt beam="2">  1       21 0.35958822E-01 0.45443188E+03</pdfrwt>
<totfact> 0.68809141E+04</totfact>
</mgrwt>
</event>
<event>
 7    0  0.4705418E-002  0.4480362E+03  0.7546771E-02  0.1028309E+00
         21   -1    0    0  502  501  0.00000000000E+00  0.00000000000E+00  0.49643759945E+03  0.49643759945E+03  0.00000000000E+00 0. -1.
         21   -1    0    0  501  502 -0.00000000000E+00 -0.00000000000E+00 -0.10108845942E+03  0.10108845942E+03  0.00000000000E+00 0. -1.
      99926    2    1    2    0    0  0.00000000000E+00  0.00000000000E+00  0.39534914003E+03  0.59752605887E+03  0.44803621339E+03 0.  0.
      99925    2    3    3    0    0 -0.77001978711E+02 -0.25914929747E+02  0.34217151487E+03  0.43917121611E+03  0.26303825417E+03 0.  0.
         25    1    3    3    0    0  0.77001978711E+02  0.25914929747E+02  0.53177625164E+02  0.15835484277E+03  0.12509000000E+03 0.  0.
         25    1    4    4    0    0 -0.55406438763E+02 -0.15821719884E+02  0.23657494818E+03  0.27374333687E+03  0.12509000000E+03 0.  0.
         25    1    4    4    0    0 -0.21595539949E+02 -0.10093209863E+02  0.10559656669E+03  0.16542787923E+03  0.12509000000E+03 0.  0.
<mgrwt>
<rscale>  2 0.44803621E+03</rscale>
<asrwt>0</asrwt>
<pdfrwt beam="1">  1       21 0.73005528E-01 0.44803621E+03</pdfrwt>
<pdfrwt beam="2">  1       21 0.14865950E-01 0.44803621E+03</pdfrwt>
<totfact> 0.62182394E+04</totfact>
</mgrwt>
</event>
<event>
 7    0  0.4705418E-002  0.4623606E+03  0.7546771E-02  0.1024099E+00
         21   -1    0    0  502  501  0.00000000000E+00  0.00000000000E+00  0.83446639109E+03  0.83446639109E+03  0.00000000000E+00 0.  1.
         21   -1    0    0  501  502 -0.00000000000E+00 -0.00000000000E+00 -0.64046118977E+02  0.64046118977E+02  0.00000000000E+00 0.  1.
      99926    2    1    2    0    0 -0.22204460493E-15  0.00000000000E+00  0.77042027211E+03  0.89851251007E+03  0.46236061150E+03 0.  0.
      99925    2    3    3    0    0  0.12397972426E+01  0.18913849340E+02  0.71130837991E+03  0.75886654810E+03  0.26374145617E+03 0.  0.
         25    1    4    4    0    0 -0.26524099877E+02  0.37989344421E+02  0.32071071374E+03  0.34734649584E+03  0.12509000000E+03 0.  0.
         25    1    4    4    0    0  0.27763897120E+02 -0.19075495081E+02  0.39059766616E+03  0.41152005226E+03  0.12509000000E+03 0.  0.
         25    1    3    3    0    0 -0.12397972426E+01 -0.18913849340E+02  0.59111892206E+02  0.13964596197E+03  0.12509000000E+03 0.  0.
<mgrwt>
<rscale>  2 0.46236061E+03</rscale>
<asrwt>0</asrwt>
<pdfrwt beam="1">  1       21 0.12271564E+00 0.46236061E+03</pdfrwt>
<pdfrwt beam="2">  1       21 0.94185474E-02 0.46236061E+03</pdfrwt>
<totfact> 0.40890073E+04</totfact>
</mgrwt>
</event>
<event>
 7    0  0.4705418E-002  0.4565402E+03  0.7546771E-02  0.1025789E+00
         21   -1    0    0  502  501  0.00000000000E+00  0.00000000000E+00  0.91609432950E+02  0.91609432950E+02  0.00000000000E+00 0. -1.
         21   -1    0    0  501  502 -0.00000000000E+00 -0.00000000000E+00 -0.56879779333E+03  0.56879779333E+03  0.00000000000E+00 0. -1.
      99926    2    1    2    0    0  0.00000000000E+00 -0.14210854715E-13 -0.47718836038E+03  0.66040722628E+03  0.45654022084E+03 0.  0.
      99925    2    3    3    0    0 -0.32088635741E+02  0.72426371247E+02 -0.42001007244E+03  0.50168695502E+03  0.26269008374E+03 0.  0.
         25    1    3    3    0    0  0.32088635741E+02 -0.72426371247E+02 -0.57178287938E+02  0.15872027126E+03  0.12509000000E+03 0.  0.
         25    1    4    4    0    0 -0.15600117597E+02  0.73060394705E+02 -0.25851509562E+03  0.29674694221E+03  0.12509000000E+03 0.  0.
         25    1    4    4    0    0 -0.16488518145E+02 -0.63402345792E+00 -0.16149497681E+03  0.20494001282E+03  0.12509000000E+03 0.  0.
<mgrwt>
<rscale>  2 0.45654022E+03</rscale>
<asrwt>0</asrwt>
<pdfrwt beam="1">  1       21 0.13471976E-01 0.45654022E+03</pdfrwt>
<pdfrwt beam="2">  1       21 0.83646729E-01 0.45654022E+03</pdfrwt>
<totfact> 0.54441181E+04</totfact>
</mgrwt>
</event>
<event>
 7    0  0.4705418E-002  0.4494858E+03  0.7546771E-02  0.1027875E+00
         21   -1    0    0  502  501  0.00000000000E+00  0.00000000000E+00  0.13767639158E+03  0.13767639158E+03  0.00000000000E+00 0. -1.
         21   -1    0    0  501  502 -0.00000000000E+00 -0.00000000000E+00 -0.36687023813E+03  0.36687023813E+03  0.00000000000E+00 0. -1.
      99926    2    1    2    0    0  0.00000000000E+00  0.00000000000E+00 -0.22919384655E+03  0.50454662970E+03  0.44948579760E+03 0.  0.
      99925    2    3    3    0    0 -0.83708677727E+02  0.34542308364E+02 -0.79031326644E+02  0.28914791968E+03  0.26298337413E+03 0.  0.
         25    1    4    4    0    0 -0.22861350614E+02  0.40945258319E+02 -0.10656801938E+02  0.13401578660E+03  0.12509000000E+03 0.  0.
         25    1    3    3    0    0  0.83708677727E+02 -0.34542308364E+02 -0.15016251991E+03  0.21539871002E+03  0.12509000000E+03 0.  0.
         25    1    4    4    0    0 -0.60847327114E+02 -0.64029499550E+01 -0.68374524705E+02  0.15513213308E+03  0.12509000000E+03 0.  0.
<mgrwt>
<rscale>  2 0.44948580E+03</rscale>
<asrwt>0</asrwt>
<pdfrwt beam="1">  1       21 0.20246528E-01 0.44948580E+03</pdfrwt>
<pdfrwt beam="2">  1       21 0.53951505E-01 0.44948580E+03</pdfrwt>
<totfact> 0.67874654E+04</totfact>
</mgrwt>
</event>
<event>
 7    0  0.4705418E-002  0.4558605E+03  0.7546771E-02  0.1025989E+00
         21   -1    0    0  502  501  0.00000000000E+00  0.00000000000E+00  0.12239098121E+03  0.12239098121E+03  0.00000000000E+00 0.  1.
         21   -1    0    0  501  502 -0.00000000000E+00 -0.00000000000E+00 -0.42447732263E+03  0.42447732263E+03  0.00000000000E+00 0.  1.
      99926    2    1    2    0    0  0.00000000000E+00  0.00000000000E+00 -0.30208634142E+03  0.54686830383E+03  0.45586048750E+03 0.  0.
      99925    2    3    3    0    0  0.60410363975E+02 -0.74703216029E+02 -0.11641185297E+03  0.30324460564E+03  0.26301252589E+03 0.  0.
         25    1    4    4    0    0  0.34019537254E+02 -0.63969291688E+02 -0.95508812098E+02  0.17325946001E+03  0.12509000000E+03 0.  0.
         25    1    4    4    0    0  0.26390826721E+02 -0.10733924341E+02 -0.20903040875E+02  0.12998514563E+03  0.12509000000E+03 0.  0.
         25    1    3    3    0    0 -0.60410363975E+02  0.74703216029E+02 -0.18567448845E+03  0.24362369819E+03  0.12509000000E+03 0.  0.
<mgrwt>
<rscale>  2 0.45586049E+03</rscale>
<asrwt>0</asrwt>
<pdfrwt beam="1">  1       21 0.17998674E-01 0.45586049E+03</pdfrwt>
<pdfrwt beam="2">  1       21 0.62423136E-01 0.45586049E+03</pdfrwt>
<totfact> 0.61653085E+04</totfact>
</mgrwt>
</event>
<event>
 7    0  0.4705418E-002  0.4652115E+03  0.7546771E-02  0.1023280E+00
         21   -1    0    0  502  501  0.00000000000E+00  0.00000000000E+00  0.26847821878E+03  0.26847821878E+03  0.00000000000E+00 0.  1.
         21   -1    0    0  501  502 -0.00000000000E+00 -0.00000000000E+00 -0.20152634749E+03  0.20152634749E+03  0.00000000000E+00 0.  1.
      99926    2    1    2    0    0  0.00000000000E+00  0.00000000000E+00  0.66951871296E+02  0.47000456627E+03  0.46521149947E+03 0.  0.
      99925    2    3    3    0    0  0.12061749465E+03 -0.18354855999E+02  0.28631021685E+02  0.29111500154E+03  0.26275982943E+03 0.  0.
         25    1    4    4    0    0  0.97450847863E+02 -0.10040059716E+02  0.37720431869E+02  0.16330281574E+03  0.12509000000E+03 0.  0.
         25    1    3    3    0    0 -0.12061749465E+03  0.18354855999E+02  0.38320849611E+02  0.17888956473E+03  0.12509000000E+03 0.  0.
         25    1    4    4    0    0  0.23166646789E+02 -0.83147962832E+01 -0.90894101835E+01  0.12781218580E+03  0.12509000000E+03 0.  0.
<mgrwt>
<rscale>  2 0.46521150E+03</rscale>
<asrwt>0</asrwt>
<pdfrwt beam="1">  1       21 0.39482091E-01 0.46521150E+03</pdfrwt>
<pdfrwt beam="2">  1       21 0.29636227E-01 0.46521150E+03</pdfrwt>
<totfact> 0.62232987E+04</totfact>
</mgrwt>
</event>
<event>
 7    0  0.4705418E-002  0.4557973E+03  0.7546771E-02  0.1026007E+00
         21   -1    0    0  502  501  0.00000000000E+00  0.00000000000E+00  0.36097645833E+03  0.36097645833E+03  0.00000000000E+00 0. -1.
         21   -1    0    0  501  502 -0.00000000000E+00 -0.00000000000E+00 -0.14388140242E+03  0.14388140242E+03  0.00000000000E+00 0. -1.
      99926    2    1    2    0    0  0.00000000000E+00 -0.14210854715E-13  0.21709505591E+03  0.50485786075E+03  0.45579731928E+03 0.  0.
      99925    2    3    3    0    0 -0.35438102170E+02 -0.70738320073E+02  0.45638987223E+02  0.27835298089E+03  0.26294047958E+03 0.  0.
         25    1    4    4    0    0 -0.20844964232E+02 -0.30593998477E+02 -0.17930305901E+02  0.13167957035E+03  0.12509000000E+03 0.  0.
         25    1    4    4    0    0 -0.14593137937E+02 -0.40144321596E+02  0.63569293124E+02  0.14667341054E+03  0.12509000000E+03 0.  0.
         25    1    3    3    0    0  0.35438102170E+02  0.70738320073E+02  0.17145606869E+03  0.22650487986E+03  0.12509000000E+03 0.  0.
<mgrwt>
<rscale>  2 0.45579732E+03</rscale>
<asrwt>0</asrwt>
<pdfrwt beam="1">  1       21 0.53084773E-01 0.45579732E+03</pdfrwt>
<pdfrwt beam="2">  1       21 0.21159030E-01 0.45579732E+03</pdfrwt>
<totfact> 0.64521413E+04</totfact>
</mgrwt>
</event>
<event>
 7    0  0.4705418E-002  0.4556560E+03  0.7546771E-02  0.1026049E+00
         21   -1    0    0  502  501  0.00000000000E+00  0.00000000000E+00  0.96686099907E+02  0.96686099907E+02  0.00000000000E+00 0. -1.
         21   -1    0    0  501  502 -0.00000000000E+00 -0.00000000000E+00 -0.53684664871E+03  0.53684664871E+03  0.00000000000E+00 0. -1.
      99926    2    1    2    0    0 -0.35527136788E-14  0.00000000000E+00 -0.44016054881E+03  0.63353274862E+03  0.45565604884E+03 0.  0.
      99925    2    3    3    0    0  0.30156958623E+02  0.25397435014E+02 -0.42514243169E+03  0.50151940157E+03  0.26309912783E+03 0.  0.
         25    1    3    3    0    0 -0.30156958623E+02 -0.25397435014E+02 -0.15018117119E+02  0.13201334705E+03  0.12509000000E+03 0.  0.
         25    1    4    4    0    0 -0.10620121789E+02 -0.15775807027E+02 -0.23142337161E+03  0.26375357457E+03  0.12509000000E+03 0.  0.
         25    1    4    4    0    0  0.40777080413E+02  0.41173242041E+02 -0.19371906008E+03  0.23776582699E+03  0.12509000000E+03 0.  0.
<mgrwt>
<rscale>  2 0.45565605E+03</rscale>
<asrwt>0</asrwt>
<pdfrwt beam="1">  1       21 0.14218545E-01 0.45565605E+03</pdfrwt>
<pdfrwt beam="2">  1       21 0.78948034E-01 0.45565605E+03</pdfrwt>
<totfact> 0.56367825E+04</totfact>
</mgrwt>
</event>
<event>
 7    0  0.4705418E-002  0.4696835E+03  0.7546771E-02  0.1022010E+00
         21   -1    0    0  502  501  0.00000000000E+00  0.00000000000E+00  0.64659888208E+03  0.64659888208E+03  0.00000000000E+00 0.  1.
         21   -1    0    0  501  502 -0.00000000000E+00 -0.00000000000E+00 -0.85293450377E+02  0.85293450377E+02  0.00000000000E+00 0.  1.
      99926    2    1    2    0    0  0.71054273576E-14  0.00000000000E+00  0.56130543170E+03  0.73189233245E+03  0.46968350902E+03 0.  0.
      99925    2    3    3    0    0  0.56724067049E+02  0.47836012559E+02  0.18865548109E+03  0.33186558626E+03  0.26275078100E+03 0.  0.
         25    1    4    4    0    0 -0.64903718278E+01  0.13980021879E+01  0.81846155897E+02  0.14963415610E+03  0.12509000000E+03 0.  0.
         25    1    3    3    0    0 -0.56724067049E+02 -0.47836012559E+02  0.37264995061E+03  0.40002674620E+03  0.12509000000E+03 0.  0.
         25    1    4    4    0    0  0.63214438877E+02  0.46438010371E+02  0.10680932519E+03  0.18223143016E+03  0.12509000000E+03 0.  0.
<mgrwt>
<rscale>  2 0.46968351E+03</rscale>
<asrwt>0</asrwt>
<pdfrwt beam="1">  1       21 0.95088069E-01 0.46968351E+03</pdfrwt>
<pdfrwt beam="2">  1       21 0.12543155E-01 0.46968351E+03</pdfrwt>
<totfact> 0.45696158E+04</totfact>
</mgrwt>
</event>
<event>
 7    0  0.4705418E-002  0.4614143E+03  0.7546771E-02  0.1024372E+00
         21   -1    0    0  502  501  0.00000000000E+00  0.00000000000E+00  0.42368941686E+03  0.42368941686E+03  0.00000000000E+00 0.  1.
         21   -1    0    0  501  502 -0.00000000000E+00 -0.00000000000E+00 -0.12562452161E+03  0.12562452161E+03  0.00000000000E+00 0.  1.
      99926    2    1    2    0    0  0.00000000000E+00 -0.17763568394E-14  0.29806489525E+03  0.54931393847E+03  0.46141426205E+03 0.  0.
      99925    2    3    3    0    0 -0.32833634335E+02  0.92706482218E+01  0.51109777211E+02  0.27039041690E+03  0.26331497443E+03 0.  0.
         25    1    3    3    0    0  0.32833634335E+02 -0.92706482218E+01  0.24695511804E+03  0.27892352158E+03  0.12509000000E+03 0.  0.
         25    1    4    4    0    0 -0.13289232099E+02 -0.15123665800E+02  0.61883082863E+02  0.14100479780E+03  0.12509000000E+03 0.  0.
         25    1    4    4    0    0 -0.19544402236E+02  0.24394314022E+02 -0.10773305651E+02  0.12938561910E+03  0.12509000000E+03 0.  0.
<mgrwt>
<rscale>  2 0.46141426E+03</rscale>
<asrwt>0</asrwt>
<pdfrwt beam="1">  1       21 0.62307267E-01 0.46141426E+03</pdfrwt>
<pdfrwt beam="2">  1       21 0.18474194E-01 0.46141426E+03</pdfrwt>
<totfact> 0.58866955E+04</totfact>
</mgrwt>
</event>
<event>
 7    0  0.4705418E-002  0.4575624E+03  0.7546771E-02  0.1025491E+00
         21   -1    0    0  502  501  0.00000000000E+00  0.00000000000E+00  0.12885861687E+03  0.12885861687E+03  0.00000000000E+00 0.  1.
         21   -1    0    0  501  502 -0.00000000000E+00 -0.00000000000E+00 -0.40618819428E+03  0.40618819428E+03  0.00000000000E+00 0.  1.
      99926    2    1    2    0    0 -0.14210854715E-13  0.14210854715E-13 -0.27732957740E+03  0.53504681115E+03  0.45756244997E+03 0.  0.
      99925    2    3    3    0    0  0.79774518001E+02 -0.76023091880E+02 -0.13330729465E+03  0.31474381469E+03  0.26296263966E+03 0.  0.
         25    1    4    4    0    0  0.54882079121E+02 -0.69584292937E+02 -0.46028701437E+02  0.16006300599E+03  0.12509000000E+03 0.  0.
         25    1    3    3    0    0 -0.79774518001E+02  0.76023091880E+02 -0.14402228275E+03  0.22030299646E+03  0.12509000000E+03 0.  0.
         25    1    4    4    0    0  0.24892438880E+02 -0.64387989428E+01 -0.87278593217E+02  0.15468080870E+03  0.12509000000E+03 0.  0.
<mgrwt>
<rscale>  2 0.45756245E+03</rscale>
<asrwt>0</asrwt>
<pdfrwt beam="1">  1       21 0.18949797E-01 0.45756245E+03</pdfrwt>
<pdfrwt beam="2">  1       21 0.59733558E-01 0.45756245E+03</pdfrwt>
<totfact> 0.61605498E+04</totfact>
</mgrwt>
</event>
<event>
 7    0  0.4705418E-002  0.4719041E+03  0.7546771E-02  0.1021384E+00
         21   -1    0    0  502  501  0.00000000000E+00  0.00000000000E+00  0.14460762729E+03  0.14460762729E+03  0.00000000000E+00 0. -1.
         21   -1    0    0  501  502 -0.00000000000E+00 -0.00000000000E+00 -0.38499615389E+03  0.38499615389E+03  0.00000000000E+00 0. -1.
      99926    2    1    2    0    0 -0.17763568394E-14 -0.88817841970E-15 -0.24038852660E+03  0.52960378118E+03  0.47190414420E+03 0.  0.
      99925    2    3    3    0    0 -0.15867284058E+02  0.42148835348E+01 -0.29197026405E+03  0.39330367228E+03  0.26300495736E+03 0.  0.
         25    1    3    3    0    0  0.15867284058E+02 -0.42148835348E+01  0.51581737448E+02  0.13630010889E+03  0.12509000000E+03 0.  0.
         25    1    4    4    0    0  0.28329585448E+00 -0.28290006762E+02 -0.18309134014E+03  0.22354049224E+03  0.12509000000E+03 0.  0.
         25    1    4    4    0    0 -0.16150579912E+02  0.32504890297E+02 -0.10887892391E+03  0.16976318004E+03  0.12509000000E+03 0.  0.
<mgrwt>
<rscale>  2 0.47190414E+03</rscale>
<asrwt>0</asrwt>
<pdfrwt beam="1">  1       21 0.21265828E-01 0.47190414E+03</pdfrwt>
<pdfrwt beam="2">  1       21 0.56617080E-01 0.47190414E+03</pdfrwt>
<totfact> 0.55423000E+04</totfact>
</mgrwt>
</event>
<event>
 7    0  0.4705418E-002  0.4587651E+03  0.7546771E-02  0.1025140E+00
         21   -1    0    0  502  501  0.00000000000E+00  0.00000000000E+00  0.90521702196E+02  0.90521702196E+02  0.00000000000E+00 0.  1.
         21   -1    0    0  501  502 -0.00000000000E+00 -0.00000000000E+00 -0.58125682134E+03  0.58125682134E+03  0.00000000000E+00 0.  1.
      99926    2    1    2    0    0  0.00000000000E+00  0.00000000000E+00 -0.49073511914E+03  0.67177852353E+03  0.45876511149E+03 0.  0.
      99925    2    3    3    0    0  0.94618654416E+02 -0.67172860782E+02 -0.29014819993E+03  0.40843938241E+03  0.26300545278E+03 0.  0.
         25    1    4    4    0    0  0.63371193499E+02 -0.50526256591E+02 -0.10547475008E+03  0.18259584271E+03  0.12509000000E+03 0.  0.
         25    1    3    3    0    0 -0.94618654416E+02  0.67172860782E+02 -0.20058691921E+03  0.26333914112E+03  0.12509000000E+03 0.  0.
         25    1    4    4    0    0  0.31247460917E+02 -0.16646604191E+02 -0.18467344985E+03  0.22584353970E+03  0.12509000000E+03 0.  0.
<mgrwt>
<rscale>  2 0.45876511E+03</rscale>
<asrwt>0</asrwt>
<pdfrwt beam="1">  1       21 0.13312015E-01 0.45876511E+03</pdfrwt>
<pdfrwt beam="2">  1       21 0.85478944E-01 0.45876511E+03</pdfrwt>
<totfact> 0.52875440E+04</totfact>
</mgrwt>
</event>
<event>
 7    0  0.4705418E-002  0.4539448E+03  0.7546771E-02  0.1026552E+00
         21   -1    0    0  502  501  0.00000000000E+00  0.00000000000E+00  0.10464293836E+03  0.10464293836E+03  0.00000000000E+00 0.  1.
         21   -1    0    0  501  502 -0.00000000000E+00 -0.00000000000E+00 -0.49230723139E+03  0.49230723139E+03  0.00000000000E+00 0.  1.
      99926    2    1    2    0    0  0.00000000000E+00  0.71054273576E-14 -0.38766429303E+03  0.59695016976E+03  0.45394482163E+03 0.  0.
      99925    2    3    3    0    0 -0.64215782377E+02 -0.52144902584E+02 -0.34360966738E+03  0.44064573696E+03  0.26316972548E+03 0.  0.
         25    1    4    4    0    0 -0.50035931612E+02 -0.11156517194E+01 -0.12817386012E+03  0.18595936559E+03  0.12509000000E+03 0.  0.
         25    1    3    3    0    0  0.64215782377E+02  0.52144902584E+02 -0.44054625646E+02  0.15630443280E+03  0.12509000000E+03 0.  0.
         25    1    4    4    0    0 -0.14179850765E+02 -0.51029250864E+02 -0.21543580726E+03  0.25468637137E+03  0.12509000000E+03 0.  0.
<mgrwt>
<rscale>  2 0.45394482E+03</rscale>
<asrwt>0</asrwt>
<pdfrwt beam="1">  1       21 0.15388668E-01 0.45394482E+03</pdfrwt>
<pdfrwt beam="2">  1       21 0.72398122E-01 0.45394482E+03</pdfrwt>
<totfact> 0.59359777E+04</totfact>
</mgrwt>
</event>
<event>
 7    0  0.4705418E-002  0.4558052E+03  0.7546771E-02  0.1026005E+00
         21   -1    0    0  502  501  0.00000000000E+00  0.00000000000E+00  0.23694421901E+03  0.23694421901E+03  0.00000000000E+00 0. -1.
         21   -1    0    0  501  502 -0.00000000000E+00 -0.00000000000E+00 -0.21920595625E+03  0.21920595625E+03  0.00000000000E+00 0. -1.
      99926    2    1    2    0    0 -0.17763568394E-14  0.00000000000E+00  0.17738262765E+02  0.45615017526E+03  0.45580515182E+03 0.  0.
      99925    2    3    3    0    0  0.15230620477E+02  0.33890177136E+02 -0.96644147456E+02  0.28262392430E+03  0.26297466692E+03 0.  0.
         25    1    4    4    0    0  0.68475343219E+01  0.36242997328E+02 -0.87188882181E+02  0.15687527803E+03  0.12509000000E+03 0.  0.
         25    1    3    3    0    0 -0.15230620477E+02 -0.33890177136E+02  0.11438241022E+03  0.17352625097E+03  0.12509000000E+03 0.  0.
         25    1    4    4    0    0  0.83830861551E+01 -0.23528201920E+01 -0.94552652755E+01  0.12574864627E+03  0.12509000000E+03 0.  0.
<mgrwt>
<rscale>  2 0.45580515E+03</rscale>
<asrwt>0</asrwt>
<pdfrwt beam="1">  1       21 0.34844738E-01 0.45580515E+03</pdfrwt>
<pdfrwt beam="2">  1       21 0.32236170E-01 0.45580515E+03</pdfrwt>
<totfact> 0.68023581E+04</totfact>
</mgrwt>
</event>
<event>
 7    0  0.4705418E-002  0.4560392E+03  0.7546771E-02  0.1025936E+00
         21   -1    0    0  502  501  0.00000000000E+00  0.00000000000E+00  0.64832081989E+03  0.64832081989E+03  0.00000000000E+00 0.  1.
         21   -1    0    0  501  502 -0.00000000000E+00 -0.00000000000E+00 -0.80196304883E+02  0.80196304883E+02  0.00000000000E+00 0.  1.
      99926    2    1    2    0    0  0.14210854715E-13 -0.35527136788E-14  0.56812451500E+03  0.72851712477E+03  0.45603918311E+03 0.  0.
      99925    2    3    3    0    0  0.66615904237E+02 -0.18876184610E+02  0.50219695504E+03  0.57107526151E+03  0.26292809591E+03 0.  0.
         25    1    4    4    0    0  0.39854851503E+02  0.96300665125E+01  0.17798568229E+03  0.22137650862E+03  0.12509000000E+03 0.  0.
         25    1    3    3    0    0 -0.66615904237E+02  0.18876184610E+02  0.65927559964E+02  0.15744186326E+03  0.12509000000E+03 0.  0.
         25    1    4    4    0    0  0.26761052733E+02 -0.28506251122E+02  0.32421127275E+03  0.34969875289E+03  0.12509000000E+03 0.  0.
<mgrwt>
<rscale>  2 0.45603918E+03</rscale>
<asrwt>0</asrwt>
<pdfrwt beam="1">  1       21 0.95341294E-01 0.45603918E+03</pdfrwt>
<pdfrwt beam="2">  1       21 0.11793575E-01 0.45603918E+03</pdfrwt>
<totfact> 0.50964144E+04</totfact>
</mgrwt>
</event>
<event>
 7    0  0.4705418E-002  0.4536149E+03  0.7546771E-02  0.1026650E+00
         21   -1    0    0  502  501  0.00000000000E+00  0.00000000000E+00  0.12012304847E+03  0.12012304847E+03  0.00000000000E+00 0.  1.
         21   -1    0    0  501  502 -0.00000000000E+00 -0.00000000000E+00 -0.42824095426E+03  0.42824095426E+03  0.00000000000E+00 0.  1.
      99926    2    1    2    0    0  0.00000000000E+00  0.00000000000E+00 -0.30811790580E+03  0.54836400273E+03  0.45361485383E+03 0.  0.
      99925    2    3    3    0    0 -0.50373016268E+02 -0.53986236021E+02 -0.92716950201E+02  0.28856208931E+03  0.26309635513E+03 0.  0.
         25    1    4    4    0    0 -0.90990913453E+01 -0.96972699971E+01 -0.85352823440E+01  0.12608405789E+03  0.12509000000E+03 0.  0.
         25    1    3    3    0    0  0.50373016268E+02  0.53986236021E+02 -0.21540095560E+03  0.25980191342E+03  0.12509000000E+03 0.  0.
         25    1    4    4    0    0 -0.41273924923E+02 -0.44288966024E+02 -0.84181667857E+02  0.16247803142E+03  0.12509000000E+03 0.  0.
<mgrwt>
<rscale>  2 0.45361485E+03</rscale>
<asrwt>0</asrwt>
<pdfrwt beam="1">  1       21 0.17665154E-01 0.45361485E+03</pdfrwt>
<pdfrwt beam="2">  1       21 0.62976611E-01 0.45361485E+03</pdfrwt>
<totfact> 0.62658643E+04</totfact>
</mgrwt>
</event>
<event>
 7    0  0.4705418E-002  0.4521882E+03  0.7546771E-02  0.1027072E+00
         21   -1    0    0  502  501  0.00000000000E+00  0.00000000000E+00  0.10940537766E+04  0.10940537766E+04  0.00000000000E+00 0. -1.
         21   -1    0    0  501  502 -0.00000000000E+00 -0.00000000000E+00 -0.46723978793E+02  0.46723978793E+02  0.00000000000E+00 0. -1.
      99926    2    1    2    0    0  0.17763568394E-14  0.14210854715E-13  0.10473297978E+04  0.11407777554E+04  0.45218821504E+03 0.  0.
      99925    2    3    3    0    0 -0.13241322706E+02  0.10502903090E+03  0.57875221259E+03  0.64437178098E+03  0.26278211239E+03 0.  0.
         25    1    3    3    0    0  0.13241322706E+02 -0.10502903090E+03  0.46857758518E+03  0.49640597437E+03  0.12509000000E+03 0.  0.
         25    1    4    4    0    0  0.22045522416E+02  0.70794271986E+02  0.35081910959E+03  0.37976228059E+03  0.12509000000E+03 0.  0.
         25    1    4    4    0    0 -0.35286845122E+02  0.34234758910E+02  0.22793310299E+03  0.26460950039E+03  0.12509000000E+03 0.  0.
<mgrwt>
<rscale>  2 0.45218822E+03</rscale>
<asrwt>0</asrwt>
<pdfrwt beam="1">  1       21 0.16089025E+00 0.45218822E+03</pdfrwt>
<pdfrwt beam="2">  1       21 0.68711740E-02 0.45218822E+03</pdfrwt>
<totfact> 0.34849300E+04</totfact>
</mgrwt>
</event>
<event>
 7    0  0.4705418E-002  0.4498820E+03  0.7546771E-02  0.1027757E+00
         21   -1    0    0  502  501  0.00000000000E+00  0.00000000000E+00  0.60178263683E+02  0.60178263683E+02  0.00000000000E+00 0. -1.
         21   -1    0    0  501  502 -0.00000000000E+00 -0.00000000000E+00 -0.84080939588E+03  0.84080939588E+03  0.00000000000E+00 0. -1.
      99926    2    1    2    0    0 -0.17763568394E-14  0.71054273576E-14 -0.78063113220E+03  0.90098765956E+03  0.44988198244E+03 0.  0.
      99925    2    3    3    0    0 -0.96518621749E+00  0.57791918735E+02 -0.31007283962E+03  0.41066791463E+03  0.26298694413E+03 0.  0.
         25    1    4    4    0    0  0.18682396565E+02  0.98936114428E+01 -0.10370392907E+03  0.16385642647E+03  0.12509000000E+03 0.  0.
         25    1    3    3    0    0  0.96518621749E+00 -0.57791918735E+02 -0.47055829258E+03  0.49031974493E+03  0.12509000000E+03 0.  0.
         25    1    4    4    0    0 -0.19647582783E+02  0.47898307293E+02 -0.20636891055E+03  0.24681148817E+03  0.12509000000E+03 0.  0.
<mgrwt>
<rscale>  2 0.44988198E+03</rscale>
<asrwt>0</asrwt>
<pdfrwt beam="1">  1       21 0.88497454E-02 0.44988198E+03</pdfrwt>
<pdfrwt beam="2">  1       21 0.12364843E+00 0.44988198E+03</pdfrwt>
<totfact> 0.44965651E+04</totfact>
</mgrwt>
</event>
<event>
 7    0  0.4705418E-002  0.4555105E+03  0.7546771E-02  0.1026091E+00
         21   -1    0    0  502  501  0.00000000000E+00  0.00000000000E+00  0.38360187107E+03  0.38360187107E+03  0.00000000000E+00 0. -1.
         21   -1    0    0  501  502 -0.00000000000E+00 -0.00000000000E+00 -0.13522468594E+03  0.13522468594E+03  0.00000000000E+00 0. -1.
      99926    2    1    2    0    0  0.00000000000E+00  0.00000000000E+00  0.24837718513E+03  0.51882655701E+03  0.45551045012E+03 0.  0.
      99925    2    3    3    0    0  0.84252267318E+01 -0.53249850399E+02  0.27007239999E+03  0.38089642448E+03  0.26312820817E+03 0.  0.
         25    1    4    4    0    0 -0.28594521262E+02 -0.19287742231E+02  0.16542037575E+03  0.21024051099E+03  0.12509000000E+03 0.  0.
         25    1    3    3    0    0 -0.84252267318E+01  0.53249850399E+02 -0.21695214861E+02  0.13793013253E+03  0.12509000000E+03 0.  0.
         25    1    4    4    0    0  0.37019747993E+02 -0.33962108168E+02  0.10465202424E+03  0.17065591349E+03  0.12509000000E+03 0.  0.
<mgrwt>
<rscale>  2 0.45551045E+03</rscale>
<asrwt>0</asrwt>
<pdfrwt beam="1">  1       21 0.56412039E-01 0.45551045E+03</pdfrwt>
<pdfrwt beam="2">  1       21 0.19885983E-01 0.45551045E+03</pdfrwt>
<totfact> 0.63708879E+04</totfact>
</mgrwt>
</event>
<event>
 7    0  0.4705418E-002  0.4563941E+03  0.7546771E-02  0.1025832E+00
         21   -1    0    0  502  501  0.00000000000E+00  0.00000000000E+00  0.21076908219E+03  0.21076908219E+03  0.00000000000E+00 0.  1.
         21   -1    0    0  501  502 -0.00000000000E+00 -0.00000000000E+00 -0.24706609130E+03  0.24706609130E+03  0.00000000000E+00 0.  1.
      99926    2    1    2    0    0  0.14210854715E-13  0.14210854715E-13 -0.36297009102E+02  0.45783517349E+03  0.45639409857E+03 0.  0.
      99925    2    3    3    0    0 -0.81128515387E+02 -0.75208876633E+02  0.67425165010E+01  0.28538773223E+03  0.26298761386E+03 0.  0.
         25    1    3    3    0    0  0.81128515387E+02  0.75208876633E+02 -0.43039525603E+02  0.17244744126E+03  0.12509000000E+03 0.  0.
         25    1    4    4    0    0 -0.78249462906E+02 -0.59932592228E+02  0.38680785327E+01  0.15930274382E+03  0.12509000000E+03 0.  0.
         25    1    4    4    0    0 -0.28790524812E+01 -0.15276284405E+02  0.28744379682E+01  0.12608498841E+03  0.12509000000E+03 0.  0.
<mgrwt>
<rscale>  2 0.45639410E+03</rscale>
<asrwt>0</asrwt>
<pdfrwt beam="1">  1       21 0.30995453E-01 0.45639410E+03</pdfrwt>
<pdfrwt beam="2">  1       21 0.36333249E-01 0.45639410E+03</pdfrwt>
<totfact> 0.67583745E+04</totfact>
</mgrwt>
</event>
<event>
 7    0  0.4705418E-002  0.4550801E+03  0.7546771E-02  0.1026218E+00
         21   -1    0    0  502  501  0.00000000000E+00  0.00000000000E+00  0.12826702466E+04  0.12826702466E+04  0.00000000000E+00 0. -1.
         21   -1    0    0  501  502 -0.00000000000E+00 -0.00000000000E+00 -0.40364603867E+02  0.40364603867E+02  0.00000000000E+00 0. -1.
      99926    2    1    2    0    0  0.00000000000E+00 -0.66613381478E-15  0.12423056427E+04  0.13230348505E+04  0.45508010898E+03 0.  0.
      99925    2    3    3    0    0 -0.11279636004E+03 -0.84303452469E+00  0.80972909368E+03  0.85882185148E+03  0.26303999291E+03 0.  0.
         25    1    4    4    0    0 -0.30342029621E+02  0.92653762078E+01  0.28163667438E+03  0.30979543317E+03  0.12509000000E+03 0.  0.
         25    1    4    4    0    0 -0.82454330416E+02 -0.10108410732E+02  0.52809241930E+03  0.54902641831E+03  0.12509000000E+03 0.  0.
         25    1    3    3    0    0  0.11279636004E+03  0.84303452469E+00  0.43257654905E+03  0.46421299899E+03  0.12509000000E+03 0.  0.
<mgrwt>
<rscale>  2 0.45508011E+03</rscale>
<asrwt>0</asrwt>
<pdfrwt beam="1">  1       21 0.18862795E+00 0.45508011E+03</pdfrwt>
<pdfrwt beam="2">  1       21 0.59359720E-02 0.45508011E+03</pdfrwt>
<totfact> 0.28435296E+04</totfact>
</mgrwt>
</event>
<event>
 7    0  0.4705418E-002  0.3947235E+03  0.7546771E-02  0.1045622E+00
         21   -1    0    0  502  501  0.00000000000E+00  0.00000000000E+00  0.12605236372E+03  0.12605236372E+03  0.00000000000E+00 0.  1.
         21   -1    0    0  501  502 -0.00000000000E+00 -0.00000000000E+00 -0.30901180962E+03  0.30901180962E+03  0.00000000000E+00 0.  1.
      99926    2    1    2    0    0  0.35527136788E-14  0.00000000000E+00 -0.18295944590E+03  0.43506417334E+03  0.39472354387E+03 0.  0.
      99925    2    3    3    0    0 -0.23569209433E+02  0.23930493444E+02 -0.12627425796E+03  0.29368208543E+03  0.26301293301E+03 0.  0.
         25    1    3    3    0    0  0.23569209433E+02 -0.23930493444E+02 -0.56685187947E+02  0.14138208791E+03  0.12509000000E+03 0.  0.
         25    1    4    4    0    0  0.51434534806E+01  0.46269567108E+02 -0.48804228179E+02  0.14211505459E+03  0.12509000000E+03 0.  0.
         25    1    4    4    0    0 -0.28712662914E+02 -0.22339073663E+02 -0.77470029777E+02  0.15156703084E+03  0.12509000000E+03 0.  0.
<mgrwt>
<rscale>  2 0.39472354E+03</rscale>
<asrwt>0</asrwt>
<pdfrwt beam="1">  1       21 0.18537112E-01 0.39472354E+03</pdfrwt>
<pdfrwt beam="2">  1       21 0.45442913E-01 0.39472354E+03</pdfrwt>
<totfact> 0.11674901E+05</totfact>
</mgrwt>
</event>
<event>
 7    0  0.4705418E-002  0.4506238E+03  0.7546771E-02  0.1027536E+00
         21   -1    0    0  502  501  0.00000000000E+00  0.00000000000E+00  0.97642896494E+02  0.97642896494E+02  0.00000000000E+00 0.  1.
         21   -1    0    0  501  502 -0.00000000000E+00 -0.00000000000E+00 -0.51990934057E+03  0.51990934057E+03  0.00000000000E+00 0.  1.
      99926    2    1    2    0    0  0.00000000000E+00 -0.35527136788E-14 -0.42226644408E+03  0.61755223707E+03  0.45062380731E+03 0.  0.
      99925    2    3    3    0    0 -0.49037918580E+02 -0.23966344262E+02 -0.39603168993E+03  0.47857427644E+03  0.26308389445E+03 0.  0.
         25    1    4    4    0    0 -0.38113099824E+02 -0.40106902334E+02 -0.25266114724E+03  0.28730878062E+03  0.12509000000E+03 0.  0.
         25    1    4    4    0    0 -0.10924818756E+02  0.16140558072E+02 -0.14337054269E+03  0.19126549582E+03  0.12509000000E+03 0.  0.
         25    1    3    3    0    0  0.49037918580E+02  0.23966344262E+02 -0.26234754145E+02  0.13897796063E+03  0.12509000000E+03 0.  0.
<mgrwt>
<rscale>  2 0.45062381E+03</rscale>
<asrwt>0</asrwt>
<pdfrwt beam="1">  1       21 0.14359249E-01 0.45062381E+03</pdfrwt>
<pdfrwt beam="2">  1       21 0.76457258E-01 0.45062381E+03</pdfrwt>
<totfact> 0.59645360E+04</totfact>
</mgrwt>
</event>
<event>
 7    0  0.4705418E-002  0.4650269E+03  0.7546771E-02  0.1023333E+00
         21   -1    0    0  502  501  0.00000000000E+00  0.00000000000E+00  0.43588160074E+03  0.43588160074E+03  0.00000000000E+00 0.  1.
         21   -1    0    0  501  502 -0.00000000000E+00 -0.00000000000E+00 -0.12403027460E+03  0.12403027460E+03  0.00000000000E+00 0.  1.
      99926    2    1    2    0    0  0.00000000000E+00  0.17763568394E-14  0.31185132614E+03  0.55991187534E+03  0.46502694388E+03 0.  0.
      99925    2    3    3    0    0  0.67379779603E+02 -0.50893615115E+01  0.31734404203E+03  0.41763181937E+03  0.26295086849E+03 0.  0.
         25    1    4    4    0    0  0.32659687955E+02 -0.24292681775E+02  0.10636175953E+03  0.16916595874E+03  0.12509000000E+03 0.  0.
         25    1    3    3    0    0 -0.67379779603E+02  0.50893615115E+01 -0.54927158895E+01  0.14228005597E+03  0.12509000000E+03 0.  0.
         25    1    4    4    0    0  0.34720091647E+02  0.19203320264E+02  0.21098228249E+03  0.24846586063E+03  0.12509000000E+03 0.  0.
<mgrwt>
<rscale>  2 0.46502694E+03</rscale>
<asrwt>0</asrwt>
<pdfrwt beam="1">  1       21 0.64100235E-01 0.46502694E+03</pdfrwt>
<pdfrwt beam="2">  1       21 0.18239746E-01 0.46502694E+03</pdfrwt>
<totfact> 0.56592303E+04</totfact>
</mgrwt>
</event>
<event>
 7    0  0.4705418E-002  0.4591284E+03  0.7546771E-02  0.1025034E+00
         21   -1    0    0  502  501  0.00000000000E+00  0.00000000000E+00  0.56468347428E+03  0.56468347428E+03  0.00000000000E+00 0. -1.
         21   -1    0    0  501  502 -0.00000000000E+00 -0.00000000000E+00 -0.93326110464E+02  0.93326110464E+02  0.00000000000E+00 0. -1.
      99926    2    1    2    0    0  0.00000000000E+00 -0.14210854715E-13  0.47135736382E+03  0.65800958475E+03  0.45912835808E+03 0.  0.
      99925    2    3    3    0    0  0.89984861428E+01  0.11457981374E+03  0.32648725090E+03  0.43475107050E+03  0.26306854967E+03 0.  0.
         25    1    3    3    0    0 -0.89984861428E+01 -0.11457981374E+03  0.14487011292E+03  0.22325851425E+03  0.12509000000E+03 0.  0.
         25    1    4    4    0    0  0.22032813053E+02  0.72848512566E+02  0.22228533651E+03  0.26617781568E+03  0.12509000000E+03 0.  0.
         25    1    4    4    0    0 -0.13034326910E+02  0.41731301172E+02  0.10420191440E+03  0.16857325482E+03  0.12509000000E+03 0.  0.
<mgrwt>
<rscale>  2 0.45912836E+03</rscale>
<asrwt>0</asrwt>
<pdfrwt beam="1">  1       21 0.83041685E-01 0.45912836E+03</pdfrwt>
<pdfrwt beam="2">  1       21 0.13724428E-01 0.45912836E+03</pdfrwt>
<totfact> 0.53479656E+04</totfact>
</mgrwt>
</event>
<event>
 7    0  0.4705418E-002  0.4667706E+03  0.7546771E-02  0.1022836E+00
         21   -1    0    0  502  501  0.00000000000E+00  0.00000000000E+00  0.82110346232E+02  0.82110346232E+02  0.00000000000E+00 0. -1.
         21   -1    0    0  501  502 -0.00000000000E+00 -0.00000000000E+00 -0.66335988082E+03  0.66335988082E+03  0.00000000000E+00 0. -1.
      99926    2    1    2    0    0  0.00000000000E+00  0.00000000000E+00 -0.58124953459E+03  0.74547022705E+03  0.46677064814E+03 0.  0.
      99925    2    3    3    0    0  0.48588708538E+02  0.23662254361E+02 -0.54009197199E+03  0.60312480936E+03  0.26294378216E+03 0.  0.
         25    1    3    3    0    0 -0.48588708538E+02 -0.23662254361E+02 -0.41157562595E+02  0.14234541769E+03  0.12509000000E+03 0.  0.
         25    1    4    4    0    0  0.34091307362E+02  0.27329786388E+02 -0.35771359217E+03  0.38146514465E+03  0.12509000000E+03 0.  0.
         25    1    4    4    0    0  0.14497401176E+02 -0.36675320271E+01 -0.18237837983E+03  0.22165966471E+03  0.12509000000E+03 0.  0.
<mgrwt>
<rscale>  2 0.46677065E+03</rscale>
<asrwt>0</asrwt>
<pdfrwt beam="1">  1       21 0.12075051E-01 0.46677065E+03</pdfrwt>
<pdfrwt beam="2">  1       21 0.97552922E-01 0.46677065E+03</pdfrwt>
<totfact> 0.46088154E+04</totfact>
</mgrwt>
</event>
<event>
 7    0  0.4705418E-002  0.4525501E+03  0.7546771E-02  0.1026964E+00
         21   -1    0    0  502  501  0.00000000000E+00  0.00000000000E+00  0.30290861584E+02  0.30290861584E+02  0.00000000000E+00 0.  1.
         21   -1    0    0  501  502 -0.00000000000E+00 -0.00000000000E+00 -0.16902921646E+04  0.16902921646E+04  0.00000000000E+00 0.  1.
      99926    2    1    2    0    0 -0.14210854715E-13  0.00000000000E+00 -0.16600013030E+04  0.17205830262E+04  0.45255013421E+03 0.  0.
      99925    2    3    3    0    0 -0.10847007343E+03 -0.20640969244E+02 -0.10085568001E+04  0.10481105324E+04  0.26297730438E+03 0.  0.
         25    1    4    4    0    0 -0.88202161609E+02 -0.21036567853E+02 -0.46568678819E+03  0.49064636072E+03  0.12509000000E+03 0.  0.
         25    1    4    4    0    0 -0.20267911821E+02  0.39559860908E+00 -0.54287001195E+03  0.55746417169E+03  0.12509000000E+03 0.  0.
         25    1    3    3    0    0  0.10847007343E+03  0.20640969244E+02 -0.65144450287E+03  0.67247249375E+03  0.12509000000E+03 0.  0.
<mgrwt>
<rscale>  2 0.45255013E+03</rscale>
<asrwt>0</asrwt>
<pdfrwt beam="1">  1       21 0.44545378E-02 0.45255013E+03</pdfrwt>
<pdfrwt beam="2">  1       21 0.24857241E+00 0.45255013E+03</pdfrwt>
<totfact> 0.19199101E+04</totfact>
</mgrwt>
</event>
<event>
 7    0  0.4705418E-002  0.4579419E+03  0.7546771E-02  0.1025380E+00
         21   -1    0    0  502  501  0.00000000000E+00  0.00000000000E+00  0.13306525863E+04  0.13306525863E+04  0.00000000000E+00 0. -1.
         21   -1    0    0  501  502 -0.00000000000E+00 -0.00000000000E+00 -0.39399981017E+02  0.39399981017E+02  0.00000000000E+00 0. -1.
      99926    2    1    2    0    0  0.00000000000E+00  0.00000000000E+00  0.12912526053E+04  0.13700525673E+04  0.45794185937E+03 0.  0.
      99925    2    3    3    0    0 -0.20074378468E+02  0.10379254623E+03  0.95281642174E+03  0.99407061062E+03  0.26294747014E+03 0.  0.
         25    1    3    3    0    0  0.20074378468E+02 -0.10379254623E+03  0.33843618354E+03  0.37598195669E+03  0.12509000000E+03 0.  0.
         25    1    4    4    0    0 -0.29004111760E+02  0.56791527622E+02  0.36224873667E+03  0.38850762081E+03  0.12509000000E+03 0.  0.
         25    1    4    4    0    0  0.89297332925E+01  0.47001018612E+02  0.59056768507E+03  0.60556298981E+03  0.12509000000E+03 0.  0.
<mgrwt>
<rscale>  2 0.45794186E+03</rscale>
<asrwt>0</asrwt>
<pdfrwt beam="1">  1       21 0.19568417E+00 0.45794186E+03</pdfrwt>
<pdfrwt beam="2">  1       21 0.57941157E-02 0.45794186E+03</pdfrwt>
<totfact> 0.26529306E+04</totfact>
</mgrwt>
</event>
<event>
 7    0  0.4705418E-002  0.4513712E+03  0.7546771E-02  0.1027314E+00
         21   -1    0    0  502  501  0.00000000000E+00  0.00000000000E+00  0.78146750581E+02  0.78146750581E+02  0.00000000000E+00 0.  1.
         21   -1    0    0  501  502 -0.00000000000E+00 -0.00000000000E+00 -0.65177368123E+03  0.65177368123E+03  0.00000000000E+00 0.  1.
      99926    2    1    2    0    0 -0.35527136788E-14 -0.14210854715E-13 -0.57362693065E+03  0.72992043181E+03  0.45137122329E+03 0.  0.
      99925    2    3    3    0    0  0.24324721513E+02  0.10439949572E+03 -0.32524794370E+03  0.43187584448E+03  0.26313413571E+03 0.  0.
         25    1    4    4    0    0  0.52117432176E+02  0.45411317456E+02 -0.15675997448E+03  0.21213112027E+03  0.12509000000E+03 0.  0.
         25    1    3    3    0    0 -0.24324721513E+02 -0.10439949572E+03 -0.24837898695E+03  0.29804458734E+03  0.12509000000E+03 0.  0.
         25    1    4    4    0    0 -0.27792710662E+02  0.58988178268E+02 -0.16848796922E+03  0.21974472420E+03  0.12509000000E+03 0.  0.
<mgrwt>
<rscale>  2 0.45137122E+03</rscale>
<asrwt>0</asrwt>
<pdfrwt beam="1">  1       21 0.11492169E-01 0.45137122E+03</pdfrwt>
<pdfrwt beam="2">  1       21 0.95849074E-01 0.45137122E+03</pdfrwt>
<totfact> 0.52798990E+04</totfact>
</mgrwt>
</event>
<event>
 7    0  0.4705418E-002  0.4560861E+03  0.7546771E-02  0.1025923E+00
         21   -1    0    0  502  501  0.00000000000E+00  0.00000000000E+00  0.15874586630E+03  0.15874586630E+03  0.00000000000E+00 0. -1.
         21   -1    0    0  501  502 -0.00000000000E+00 -0.00000000000E+00 -0.32759043909E+03  0.32759043909E+03  0.00000000000E+00 0. -1.
      99926    2    1    2    0    0  0.00000000000E+00  0.00000000000E+00 -0.16884457280E+03  0.48633630539E+03  0.45608607979E+03 0.  0.
      99925    2    3    3    0    0  0.33479020393E+02 -0.10303548067E+03 -0.14567507087E+03  0.31923906124E+03  0.26259321557E+03 0.  0.
         25    1    4    4    0    0  0.42709161291E+01 -0.50152884946E+02 -0.29216043201E+02  0.13796607508E+03  0.12509000000E+03 0.  0.
         25    1    3    3    0    0 -0.33479020393E+02  0.10303548067E+03 -0.23169501927E+02  0.16709724415E+03  0.12509000000E+03 0.  0.
         25    1    4    4    0    0  0.29208104264E+02 -0.52882595719E+02 -0.11645902767E+03  0.18127298616E+03  0.12509000000E+03 0.  0.
<mgrwt>
<rscale>  2 0.45608608E+03</rscale>
<asrwt>0</asrwt>
<pdfrwt beam="1">  1       21 0.23344981E-01 0.45608608E+03</pdfrwt>
<pdfrwt beam="2">  1       21 0.48175064E-01 0.45608608E+03</pdfrwt>
<totfact> 0.65673628E+04</totfact>
</mgrwt>
</event>
<event>
 7    0  0.4705418E-002  0.4399882E+03  0.7546771E-02  0.1030750E+00
         21   -1    0    0  502  501  0.00000000000E+00  0.00000000000E+00  0.52271950052E+03  0.52271950052E+03  0.00000000000E+00 0. -1.
         21   -1    0    0  501  502 -0.00000000000E+00 -0.00000000000E+00 -0.92587718533E+02  0.92587718533E+02  0.00000000000E+00 0. -1.
      99926    2    1    2    0    0  0.00000000000E+00  0.44408920985E-15  0.43013178199E+03  0.61530721906E+03  0.43998820887E+03 0.  0.
      99925    2    3    3    0    0  0.91626158595E+02  0.39924416439E+01  0.32450580605E+03  0.42764889278E+03  0.26299860228E+03 0.  0.
         25    1    4    4    0    0  0.61477641180E+02 -0.17971915458E+01  0.11052392164E+03  0.17789259573E+03  0.12509000000E+03 0.  0.
         25    1    3    3    0    0 -0.91626158595E+02 -0.39924416439E+01  0.10562597594E+03  0.18765832628E+03  0.12509000000E+03 0.  0.
         25    1    4    4    0    0  0.30148517415E+02  0.57896331897E+01  0.21398188441E+03  0.24975629704E+03  0.12509000000E+03 0.  0.
<mgrwt>
<rscale>  2 0.43998821E+03</rscale>
<asrwt>0</asrwt>
<pdfrwt beam="1">  1       21 0.76870513E-01 0.43998821E+03</pdfrwt>
<pdfrwt beam="2">  1       21 0.13615841E-01 0.43998821E+03</pdfrwt>
<totfact> 0.65130190E+04</totfact>
</mgrwt>
</event>
<event>
 7    0  0.4705418E-002  0.4548449E+03  0.7546771E-02  0.1026287E+00
         21   -1    0    0  502  501  0.00000000000E+00  0.00000000000E+00  0.14915037131E+04  0.14915037131E+04  0.00000000000E+00 0.  1.
         21   -1    0    0  501  502 -0.00000000000E+00 -0.00000000000E+00 -0.34677071981E+02  0.34677071981E+02  0.00000000000E+00 0.  1.
      99926    2    1    2    0    0  0.00000000000E+00  0.35527136788E-14  0.14568266411E+04  0.15261807851E+04  0.45484494774E+03 0.  0.
      99925    2    3    3    0    0  0.99601608222E+02 -0.12969991925E+02  0.10914341032E+04  0.11271219975E+04  0.26284385985E+03 0.  0.
         25    1    3    3    0    0 -0.99601608222E+02  0.12969991925E+02  0.36539253799E+03  0.39905878761E+03  0.12509000000E+03 0.  0.
         25    1    4    4    0    0  0.30328965366E+02  0.26854872619E+02  0.45572906747E+03  0.47431795387E+03  0.12509000000E+03 0.  0.
         25    1    4    4    0    0  0.69272642855E+02 -0.39824864544E+02  0.63570503568E+03  0.65280404363E+03  0.12509000000E+03 0.  0.
<mgrwt>
<rscale>  2 0.45484495E+03</rscale>
<asrwt>0</asrwt>
<pdfrwt beam="1">  1       21 0.21933874E+00 0.45484495E+03</pdfrwt>
<pdfrwt beam="2">  1       21 0.50995704E-02 0.45484495E+03</pdfrwt>
<totfact> 0.23172605E+04</totfact>
</mgrwt>
</event>
<event>
 7    0  0.4705418E-002  0.4531013E+03  0.7546771E-02  0.1026801E+00
         21   -1    0    0  502  501  0.00000000000E+00  0.00000000000E+00  0.18710215399E+03  0.18710215399E+03  0.00000000000E+00 0.  1.
         21   -1    0    0  501  502 -0.00000000000E+00 -0.00000000000E+00 -0.27431639463E+03  0.27431639463E+03  0.00000000000E+00 0.  1.
      99926    2    1    2    0    0 -0.35527136788E-14  0.14210854715E-13 -0.87214240636E+02  0.46141854862E+03  0.45310126158E+03 0.  0.
      99925    2    3    3    0    0  0.28104070486E+02 -0.70245518464E+02  0.28240946865E+02  0.27513467905E+03  0.26301571986E+03 0.  0.
         25    1    4    4    0    0  0.72650141391E+01 -0.72993376947E+02 -0.77945291655E+00  0.14501354818E+03  0.12509000000E+03 0.  0.
         25    1    3    3    0    0 -0.28104070486E+02  0.70245518464E+02 -0.11545518750E+03  0.18628386957E+03  0.12509000000E+03 0.  0.
         25    1    4    4    0    0  0.20839056347E+02  0.27478584824E+01  0.29020399782E+02  0.13012113087E+03  0.12509000000E+03 0.  0.
<mgrwt>
<rscale>  2 0.45310126E+03</rscale>
<asrwt>0</asrwt>
<pdfrwt beam="1">  1       21 0.27515023E-01 0.45310126E+03</pdfrwt>
<pdfrwt beam="2">  1       21 0.40340646E-01 0.45310126E+03</pdfrwt>
<totfact> 0.69114177E+04</totfact>
</mgrwt>
</event>
<event>
 7    0  0.4705418E-002  0.4487468E+03  0.7546771E-02  0.1028096E+00
         21   -1    0    0  502  501  0.00000000000E+00  0.00000000000E+00  0.23687078870E+04  0.23687078870E+04  0.00000000000E+00 0. -1.
         21   -1    0    0  501  502 -0.00000000000E+00 -0.00000000000E+00 -0.21253533330E+02  0.21253533330E+02  0.00000000000E+00 0. -1.
      99926    2    1    2    0    0  0.00000000000E+00  0.00000000000E+00  0.23474543537E+04  0.23899614204E+04  0.44874675275E+03 0.  0.
      99925    2    3    3    0    0  0.53404855544E+02  0.70177837945E+02  0.18123276614E+04  0.18333780102E+04  0.26261448655E+03 0.  0.
         25    1    4    4    0    0 -0.10847229250E+02  0.47291420951E+02  0.83111918440E+03  0.84187929518E+03  0.12509000000E+03 0.  0.
         25    1    3    3    0    0 -0.53404855544E+02 -0.70177837945E+02  0.53512669234E+03  0.55658341018E+03  0.12509000000E+03 0.  0.
         25    1    4    4    0    0  0.64252084794E+02  0.22886416994E+02  0.98120847698E+03  0.99149871501E+03  0.12509000000E+03 0.  0.
<mgrwt>
<rscale>  2 0.44874675E+03</rscale>
<asrwt>0</asrwt>
<pdfrwt beam="1">  1       21 0.34833921E+00 0.44874675E+03</pdfrwt>
<pdfrwt beam="2">  1       21 0.31255212E-02 0.44874675E+03</pdfrwt>
<totfact> 0.87412891E+03</totfact>
</mgrwt>
</event>
<event>
 7    0  0.4705418E-002  0.4538730E+03  0.7546771E-02  0.1026573E+00
         21   -1    0    0  502  501  0.00000000000E+00  0.00000000000E+00  0.51278642078E+02  0.51278642078E+02  0.00000000000E+00 0. -1.
         21   -1    0    0  501  502 -0.00000000000E+00 -0.00000000000E+00 -0.10043203717E+04  0.10043203717E+04  0.00000000000E+00 0. -1.
      99926    2    1    2    0    0  0.00000000000E+00  0.00000000000E+00 -0.95304172960E+03  0.10555990138E+04  0.45387304336E+03 0.  0.
      99925    2    3    3    0    0 -0.10348550018E+03  0.43042852754E+02 -0.60197763503E+03  0.66642624683E+03  0.26303029002E+03 0.  0.
         25    1    4    4    0    0 -0.21415310317E+02  0.19732779411E+02 -0.34535612323E+03  0.36846486678E+03  0.12509000000E+03 0.  0.
         25    1    3    3    0    0  0.10348550018E+03 -0.43042852754E+02 -0.35106409456E+03  0.38917276692E+03  0.12509000000E+03 0.  0.
         25    1    4    4    0    0 -0.82070189861E+02  0.23310073343E+02 -0.25662151180E+03  0.29796138005E+03  0.12509000000E+03 0.  0.
<mgrwt>
<rscale>  2 0.45387304E+03</rscale>
<asrwt>0</asrwt>
<pdfrwt beam="1">  1       21 0.75409770E-02 0.45387304E+03</pdfrwt>
<pdfrwt beam="2">  1       21 0.14769417E+00 0.45387304E+03</pdfrwt>
<totfact> 0.37400491E+04</totfact>
</mgrwt>
</event>
<event>
 7    0  0.4705418E-002  0.4537476E+03  0.7546771E-02  0.1026610E+00
         21   -1    0    0  502  501  0.00000000000E+00  0.00000000000E+00  0.11057861495E+03  0.11057861495E+03  0.00000000000E+00 0.  1.
         21   -1    0    0  501  502 -0.00000000000E+00 -0.00000000000E+00 -0.46547617320E+03  0.46547617320E+03  0.00000000000E+00 0.  1.
      99926    2    1    2    0    0  0.14210854715E-13  0.00000000000E+00 -0.35489755825E+03  0.57605478815E+03  0.45374755327E+03 0.  0.
      99925    2    3    3    0    0 -0.37098740643E+02  0.76295956205E+02 -0.13175423867E+03  0.30654070937E+03  0.26345898656E+03 0.  0.
         25    1    3    3    0    0  0.37098740643E+02 -0.76295956205E+02 -0.22314331958E+03  0.26951407878E+03  0.12509000000E+03 0.  0.
         25    1    4    4    0    0 -0.39625115147E+02  0.23639476007E+02 -0.10123732335E+03  0.16740811902E+03  0.12509000000E+03 0.  0.
         25    1    4    4    0    0  0.25263745043E+01  0.52656480198E+02 -0.30516915323E+02  0.13913259034E+03  0.12509000000E+03 0.  0.
<mgrwt>
<rscale>  2 0.45374755E+03</rscale>
<asrwt>0</asrwt>
<pdfrwt beam="1">  1       21 0.16261561E-01 0.45374755E+03</pdfrwt>
<pdfrwt beam="2">  1       21 0.68452377E-01 0.45374755E+03</pdfrwt>
<totfact> 0.60776516E+04</totfact>
</mgrwt>
</event>
<event>
 7    0  0.4705418E-002  0.4559473E+03  0.7546771E-02  0.1025963E+00
         21   -1    0    0  502  501  0.00000000000E+00  0.00000000000E+00  0.84967645786E+02  0.84967645786E+02  0.00000000000E+00 0.  1.
         21   -1    0    0  501  502 -0.00000000000E+00 -0.00000000000E+00 -0.61166790011E+03  0.61166790011E+03  0.00000000000E+00 0.  1.
      99926    2    1    2    0    0  0.00000000000E+00  0.00000000000E+00 -0.52670025433E+03  0.69663554590E+03  0.45594728413E+03 0.  0.
      99925    2    3    3    0    0 -0.10019556393E+03 -0.21209080260E+02 -0.25475384475E+03  0.38026340127E+03  0.26308127416E+03 0.  0.
         25    1    4    4    0    0 -0.55513184009E+02  0.19935588170E+02 -0.16251326890E+03  0.21339449839E+03  0.12509000000E+03 0.  0.
         25    1    3    3    0    0  0.10019556393E+03  0.21209080260E+02 -0.27194640957E+03  0.31637214463E+03  0.12509000000E+03 0.  0.
         25    1    4    4    0    0 -0.44682379917E+02 -0.41144668430E+02 -0.92240575856E+02  0.16686890288E+03  0.12509000000E+03 0.  0.
<mgrwt>
<rscale>  2 0.45594728E+03</rscale>
<asrwt>0</asrwt>
<pdfrwt beam="1">  1       21 0.12495242E-01 0.45594728E+03</pdfrwt>
<pdfrwt beam="2">  1       21 0.89951160E-01 0.45594728E+03</pdfrwt>
<totfact> 0.52692070E+04</totfact>
</mgrwt>
</event>
<event>
 7    0  0.4705418E-002  0.4528720E+03  0.7546771E-02  0.1026869E+00
         21   -1    0    0  502  501  0.00000000000E+00  0.00000000000E+00  0.68994405049E+02  0.68994405049E+02  0.00000000000E+00 0.  1.
         21   -1    0    0  501  502 -0.00000000000E+00 -0.00000000000E+00 -0.74315104765E+03  0.74315104765E+03  0.00000000000E+00 0.  1.
      99926    2    1    2    0    0  0.00000000000E+00  0.00000000000E+00 -0.67415664260E+03  0.81214545270E+03  0.45287201015E+03 0.  0.
      99925    2    3    3    0    0 -0.49371015489E+02  0.90792512294E+02 -0.49851547973E+03  0.57302601883E+03  0.26298356844E+03 0.  0.
         25    1    3    3    0    0  0.49371015489E+02 -0.90792512294E+02 -0.17564116287E+03  0.23911943387E+03  0.12509000000E+03 0.  0.
         25    1    4    4    0    0 -0.46952214619E+02  0.43544873984E+02 -0.32396970639E+03  0.35313530731E+03  0.12509000000E+03 0.  0.
         25    1    4    4    0    0 -0.24188008705E+01  0.47247638310E+02 -0.17454577334E+03  0.21989071152E+03  0.12509000000E+03 0.  0.
<mgrwt>
<rscale>  2 0.45287201E+03</rscale>
<asrwt>0</asrwt>
<pdfrwt beam="1">  1       21 0.10146236E-01 0.45287201E+03</pdfrwt>
<pdfrwt beam="2">  1       21 0.10928692E+00 0.45287201E+03</pdfrwt>
<totfact> 0.47979135E+04</totfact>
</mgrwt>
</event>
<event>
 7    0  0.4705418E-002  0.4566628E+03  0.7546771E-02  0.1025754E+00
         21   -1    0    0  502  501  0.00000000000E+00  0.00000000000E+00  0.20299149514E+03  0.20299149514E+03  0.00000000000E+00 0.  1.
         21   -1    0    0  501  502 -0.00000000000E+00 -0.00000000000E+00 -0.25683457439E+03  0.25683457439E+03  0.00000000000E+00 0.  1.
      99926    2    1    2    0    0  0.14210854715E-13 -0.14210854715E-13 -0.53843079248E+02  0.45982606952E+03  0.45666282642E+03 0.  0.
      99925    2    3    3    0    0 -0.10177697199E+03  0.52429603164E+02 -0.27529652474E+02  0.28822385554E+03  0.26307355211E+03 0.  0.
         25    1    4    4    0    0 -0.58845629752E+02 -0.12954353742E+02 -0.22087641920E+02  0.14059159096E+03  0.12509000000E+03 0.  0.
         25    1    4    4    0    0 -0.42931342239E+02  0.65383956906E+02 -0.54420105539E+01  0.14763226458E+03  0.12509000000E+03 0.  0.
         25    1    3    3    0    0  0.10177697199E+03 -0.52429603164E+02 -0.26313426774E+02  0.17160221398E+03  0.12509000000E+03 0.  0.
<mgrwt>
<rscale>  2 0.45666283E+03</rscale>
<asrwt>0</asrwt>
<pdfrwt beam="1">  1       21 0.29851691E-01 0.45666283E+03</pdfrwt>
<pdfrwt beam="2">  1       21 0.37769790E-01 0.45666283E+03</pdfrwt>
<totfact> 0.67296329E+04</totfact>
</mgrwt>
</event>
<event>
 7    0  0.4705418E-002  0.4452082E+03  0.7546771E-02  0.1029161E+00
         21   -1    0    0  502  501  0.00000000000E+00  0.00000000000E+00  0.24932315090E+03  0.24932315090E+03  0.00000000000E+00 0. -1.
         21   -1    0    0  501  502 -0.00000000000E+00 -0.00000000000E+00 -0.19874839827E+03  0.19874839827E+03  0.00000000000E+00 0. -1.
      99926    2    1    2    0    0  0.00000000000E+00  0.00000000000E+00  0.50574752630E+02  0.44807154918E+03  0.44520816207E+03 0.  0.
      99925    2    3    3    0    0 -0.96685281339E+02  0.14390855286E+02  0.67049098914E+02  0.28846562031E+03  0.26298610627E+03 0.  0.
         25    1    3    3    0    0  0.96685281339E+02 -0.14390855286E+02 -0.16474346285E+02  0.15960592887E+03  0.12509000000E+03 0.  0.
         25    1    4    4    0    0 -0.40577654070E+02  0.36884316403E+01 -0.80067161937E+01  0.13180199597E+03  0.12509000000E+03 0.  0.
         25    1    4    4    0    0 -0.56107627270E+02  0.10702423646E+02  0.75055815108E+02  0.15666362434E+03  0.12509000000E+03 0.  0.
<mgrwt>
<rscale>  2 0.44520816E+03</rscale>
<asrwt>0</asrwt>
<pdfrwt beam="1">  1       21 0.36665169E-01 0.44520816E+03</pdfrwt>
<pdfrwt beam="2">  1       21 0.29227706E-01 0.44520816E+03</pdfrwt>
<totfact> 0.74725713E+04</totfact>
</mgrwt>
</event>
<event>
 7    0  0.4705418E-002  0.4596299E+03  0.7546771E-02  0.1024889E+00
         21   -1    0    0  502  501  0.00000000000E+00  0.00000000000E+00  0.33091257430E+02  0.33091257430E+02  0.00000000000E+00 0. -1.
         21   -1    0    0  501  502 -0.00000000000E+00 -0.00000000000E+00 -0.15960381059E+04  0.15960381059E+04  0.00000000000E+00 0. -1.
      99926    2    1    2    0    0  0.00000000000E+00 -0.71054273576E-14 -0.15629468484E+04  0.16291293633E+04  0.45962988515E+03 0.  0.
      99925    2    3    3    0    0  0.86956155977E+02 -0.46415020421E+02 -0.75327028954E+03  0.80393886086E+03  0.26303200512E+03 0.  0.
         25    1    4    4    0    0  0.66039944275E+01 -0.37941830346E+01 -0.36957388997E+03  0.39024399652E+03  0.12509000000E+03 0.  0.
         25    1    3    3    0    0 -0.86956155977E+02  0.46415020421E+02 -0.80967655890E+03  0.82519050244E+03  0.12509000000E+03 0.  0.
         25    1    4    4    0    0  0.80352161550E+02 -0.42620837386E+02 -0.38369639956E+03  0.41369486434E+03  0.12509000000E+03 0.  0.
<mgrwt>
<rscale>  2 0.45962989E+03</rscale>
<asrwt>0</asrwt>
<pdfrwt beam="1">  1       21 0.48663601E-02 0.45962989E+03</pdfrwt>
<pdfrwt beam="2">  1       21 0.23471155E+00 0.45962989E+03</pdfrwt>
<totfact> 0.20048967E+04</totfact>
</mgrwt>
</event>
<event>
 7    0  0.4705418E-002  0.4563900E+03  0.7546771E-02  0.1025833E+00
         21   -1    0    0  502  501  0.00000000000E+00  0.00000000000E+00  0.50351163107E+02  0.50351163107E+02  0.00000000000E+00 0. -1.
         21   -1    0    0  501  502 -0.00000000000E+00 -0.00000000000E+00 -0.10341955088E+04  0.10341955088E+04  0.00000000000E+00 0. -1.
      99926    2    1    2    0    0  0.00000000000E+00  0.00000000000E+00 -0.98384434566E+03  0.10845466719E+04  0.45638995057E+03 0.  0.
      99925    2    3    3    0    0  0.56128900636E+02  0.93968034593E+02 -0.69784198402E+03  0.75375171427E+03  0.26301666695E+03 0.  0.
         25    1    3    3    0    0 -0.56128900636E+02 -0.93968034593E+02 -0.28600236164E+03  0.33079495760E+03  0.12509000000E+03 0.  0.
         25    1    4    4    0    0  0.54052432121E+01  0.12121190611E+02 -0.34460894540E+03  0.36685006919E+03  0.12509000000E+03 0.  0.
         25    1    4    4    0    0  0.50723657424E+02  0.81846843982E+02 -0.35323303862E+03  0.38690164508E+03  0.12509000000E+03 0.  0.
<mgrwt>
<rscale>  2 0.45638995E+03</rscale>
<asrwt>0</asrwt>
<pdfrwt beam="1">  1       21 0.74045837E-02 0.45638995E+03</pdfrwt>
<pdfrwt beam="2">  1       21 0.15208756E+00 0.45638995E+03</pdfrwt>
<totfact> 0.35646559E+04</totfact>
</mgrwt>
</event>
<event>
 7    0  0.4705418E-002  0.4611078E+03  0.7546771E-02  0.1024460E+00
         21   -1    0    0  502  501  0.00000000000E+00  0.00000000000E+00  0.80984965466E+03  0.80984965466E+03  0.00000000000E+00 0.  1.
         21   -1    0    0  501  502 -0.00000000000E+00 -0.00000000000E+00 -0.65635760609E+02  0.65635760609E+02  0.00000000000E+00 0.  1.
      99926    2    1    2    0    0  0.00000000000E+00  0.00000000000E+00  0.74421389405E+03  0.87548541526E+03  0.46110778810E+03 0.  0.
      99925    2    3    3    0    0  0.64469372630E+02 -0.18634876321E+02  0.28045643075E+03  0.39048845498E+03  0.26329045805E+03 0.  0.
         25    1    4    4    0    0  0.29369728973E+02 -0.42051479777E+02  0.10647445423E+03  0.17209074767E+03  0.12509000000E+03 0.  0.
         25    1    3    3    0    0 -0.64469372630E+02  0.18634876321E+02  0.46375746330E+03  0.48499696029E+03  0.12509000000E+03 0.  0.
         25    1    4    4    0    0  0.35099643656E+02  0.23416603456E+02  0.17398197652E+03  0.21839770731E+03  0.12509000000E+03 0.  0.
<mgrwt>
<rscale>  2 0.46110779E+03</rscale>
<asrwt>0</asrwt>
<pdfrwt beam="1">  1       21 0.11909553E+00 0.46110779E+03</pdfrwt>
<pdfrwt beam="2">  1       21 0.96523182E-02 0.46110779E+03</pdfrwt>
<totfact> 0.42252710E+04</totfact>
</mgrwt>
</event>
<event>
 7    0  0.4705418E-002  0.4630958E+03  0.7546771E-02  0.1023887E+00
         21   -1    0    0  502  501  0.00000000000E+00  0.00000000000E+00  0.40609450374E+03  0.40609450374E+03  0.00000000000E+00 0. -1.
         21   -1    0    0  501  502 -0.00000000000E+00 -0.00000000000E+00 -0.13202452686E+03  0.13202452686E+03  0.00000000000E+00 0. -1.
      99926    2    1    2    0    0  0.00000000000E+00  0.35527136788E-14  0.27406997688E+03  0.53811903061E+03  0.46309582040E+03 0.  0.
      99925    2    3    3    0    0  0.68875464230E+02  0.16566926949E+02  0.28472594079E+03  0.39396858729E+03  0.26291461308E+03 0.  0.
         25    1    4    4    0    0  0.52326740083E+02  0.29744240041E+02  0.10537028886E+03  0.17427912502E+03  0.12509000000E+03 0.  0.
         25    1    4    4    0    0  0.16548724147E+02 -0.13177313092E+02  0.17935565194E+03  0.21968946227E+03  0.12509000000E+03 0.  0.
         25    1    3    3    0    0 -0.68875464230E+02 -0.16566926949E+02 -0.10655963915E+02  0.14415044332E+03  0.12509000000E+03 0.  0.
<mgrwt>
<rscale>  2 0.46309582E+03</rscale>
<asrwt>0</asrwt>
<pdfrwt beam="1">  1       21 0.59719780E-01 0.46309582E+03</pdfrwt>
<pdfrwt beam="2">  1       21 0.19415372E-01 0.46309582E+03</pdfrwt>
<totfact> 0.58796197E+04</totfact>
</mgrwt>
</event>
<event>
 7    0  0.4705418E-002  0.4495146E+03  0.7546771E-02  0.1027867E+00
         21   -1    0    0  502  501  0.00000000000E+00  0.00000000000E+00  0.32459876724E+03  0.32459876724E+03  0.00000000000E+00 0. -1.
         21   -1    0    0  501  502 -0.00000000000E+00 -0.00000000000E+00 -0.15562550049E+03  0.15562550049E+03  0.00000000000E+00 0. -1.
      99926    2    1    2    0    0 -0.14210854715E-13  0.00000000000E+00  0.16897326675E+03  0.48022426774E+03  0.44951460760E+03 0.  0.
      99925    2    3    3    0    0 -0.77732490324E+02  0.42980303827E+02  0.41163191003E+02  0.28054309654E+03  0.26290753917E+03 0.  0.
         25    1    3    3    0    0  0.77732490324E+02 -0.42980303827E+02  0.12781007575E+03  0.19968117120E+03  0.12509000000E+03 0.  0.
         25    1    4    4    0    0 -0.76747280347E+02  0.31679270805E+02  0.38128027878E+02  0.15490311762E+03  0.12509000000E+03 0.  0.
         25    1    4    4    0    0 -0.98520997711E+00  0.11301033022E+02  0.30351631244E+01  0.12563997891E+03  0.12509000000E+03 0.  0.
<mgrwt>
<rscale>  2 0.44951461E+03</rscale>
<asrwt>0</asrwt>
<pdfrwt beam="1">  1       21 0.47735113E-01 0.44951461E+03</pdfrwt>
<pdfrwt beam="2">  1       21 0.22886103E-01 0.44951461E+03</pdfrwt>
<totfact> 0.69668331E+04</totfact>
</mgrwt>
</event>
<event>
 7    0  0.4705418E-002  0.4513262E+03  0.7546771E-02  0.1027327E+00
         21   -1    0    0  502  501  0.00000000000E+00  0.00000000000E+00  0.29402372033E+03  0.29402372033E+03  0.00000000000E+00 0.  1.
         21   -1    0    0  501  502 -0.00000000000E+00 -0.00000000000E+00 -0.17319638545E+03  0.17319638545E+03  0.00000000000E+00 0.  1.
      99926    2    1    2    0    0 -0.71054273576E-14  0.14210854715E-13  0.12082733488E+03  0.46722010578E+03  0.45132624828E+03 0.  0.
      99925    2    3    3    0    0 -0.56939409976E+02  0.89864111518E+02  0.10397504445E+03  0.30214690159E+03  0.26299103659E+03 0.  0.
         25    1    4    4    0    0  0.11684758404E+02  0.42785056603E+02  0.37978073911E+02  0.13804686467E+03  0.12509000000E+03 0.  0.
         25    1    4    4    0    0 -0.68624168381E+02  0.47079054915E+02  0.65996970542E+02  0.16410003692E+03  0.12509000000E+03 0.  0.
         25    1    3    3    0    0  0.56939409976E+02 -0.89864111518E+02  0.16852290428E+02  0.16507320419E+03  0.12509000000E+03 0.  0.
<mgrwt>
<rscale>  2 0.45132625E+03</rscale>
<asrwt>0</asrwt>
<pdfrwt beam="1">  1       21 0.43238782E-01 0.45132625E+03</pdfrwt>
<pdfrwt beam="2">  1       21 0.25470057E-01 0.45132625E+03</pdfrwt>
<totfact> 0.69650902E+04</totfact>
</mgrwt>
</event>
<event>
 7    0  0.4705418E-002  0.4523088E+03  0.7546771E-02  0.1027036E+00
         21   -1    0    0  502  501  0.00000000000E+00  0.00000000000E+00  0.16077046625E+03  0.16077046625E+03  0.00000000000E+00 0. -1.
         21   -1    0    0  501  502 -0.00000000000E+00 -0.00000000000E+00 -0.31812938709E+03  0.31812938709E+03  0.00000000000E+00 0. -1.
      99926    2    1    2    0    0  0.00000000000E+00  0.00000000000E+00 -0.15735892083E+03  0.47889985334E+03  0.45230878785E+03 0.  0.
      99925    2    3    3    0    0 -0.12100597866E+02  0.10422725770E+03 -0.62419150374E+02  0.29003266765E+03  0.26308373620E+03 0.  0.
         25    1    4    4    0    0 -0.51530114013E+01  0.28634829786E+02 -0.64457682759E+02  0.14369693097E+03  0.12509000000E+03 0.  0.
         25    1    4    4    0    0 -0.69475864652E+01  0.75592427914E+02  0.20385323850E+01  0.14633573668E+03  0.12509000000E+03 0.  0.
         25    1    3    3    0    0  0.12100597866E+02 -0.10422725770E+03 -0.94939770458E+02  0.18886718569E+03  0.12509000000E+03 0.  0.
<mgrwt>
<rscale>  2 0.45230879E+03</rscale>
<asrwt>0</asrwt>
<pdfrwt beam="1">  1       21 0.23642716E-01 0.45230879E+03</pdfrwt>
<pdfrwt beam="2">  1       21 0.46783733E-01 0.45230879E+03</pdfrwt>
<totfact> 0.68226081E+04</totfact>
</mgrwt>
</event>
<event>
 7    0  0.4705418E-002  0.4567876E+03  0.7546771E-02  0.1025717E+00
         21   -1    0    0  502  501  0.00000000000E+00  0.00000000000E+00  0.22338234603E+03  0.22338234603E+03  0.00000000000E+00 0.  1.
         21   -1    0    0  501  502 -0.00000000000E+00 -0.00000000000E+00 -0.23351769415E+03  0.23351769415E+03  0.00000000000E+00 0.  1.
      99926    2    1    2    0    0  0.00000000000E+00  0.00000000000E+00 -0.10135348119E+02  0.45690004018E+03  0.45678761086E+03 0.  0.
      99925    2    3    3    0    0  0.49627249421E+01 -0.49795566776E+02  0.96936757918E+02  0.28480654495E+03  0.26308516853E+03 0.  0.
         25    1    4    4    0    0 -0.36040214898E+01 -0.20928491206E+02  0.55690222472E+01  0.12700201898E+03  0.12509000000E+03 0.  0.
         25    1    4    4    0    0  0.85667464320E+01 -0.28867075571E+02  0.91367735671E+02  0.15780452597E+03  0.12509000000E+03 0.  0.
         25    1    3    3    0    0 -0.49627249421E+01  0.49795566776E+02 -0.10707210604E+03  0.17209349523E+03  0.12509000000E+03 0.  0.
<mgrwt>
<rscale>  2 0.45678761E+03</rscale>
<asrwt>0</asrwt>
<pdfrwt beam="1">  1       21 0.32850345E-01 0.45678761E+03</pdfrwt>
<pdfrwt beam="2">  1       21 0.34340837E-01 0.45678761E+03</pdfrwt>
<totfact> 0.67439770E+04</totfact>
</mgrwt>
</event>
<event>
 7    0  0.4705418E-002  0.4568039E+03  0.7546771E-02  0.1025712E+00
         21   -1    0    0  502  501  0.00000000000E+00  0.00000000000E+00  0.19593540127E+03  0.19593540127E+03  0.00000000000E+00 0.  1.
         21   -1    0    0  501  502 -0.00000000000E+00 -0.00000000000E+00 -0.26624823524E+03  0.26624823524E+03  0.00000000000E+00 0.  1.
      99926    2    1    2    0    0  0.00000000000E+00  0.00000000000E+00 -0.70312833966E+02  0.46218363651E+03  0.45680391771E+03 0.  0.
      99925    2    3    3    0    0  0.44358079098E+02  0.70266891811E+01  0.62919076977E+02  0.27399420074E+03  0.26286307890E+03 0.  0.
         25    1    4    4    0    0  0.57190621503E+02 -0.17122782476E+02  0.30937675251E+02  0.14201621287E+03  0.12509000000E+03 0.  0.
         25    1    4    4    0    0 -0.12832542405E+02  0.24149471657E+02  0.31981401726E+02  0.13197798787E+03  0.12509000000E+03 0.  0.
         25    1    3    3    0    0 -0.44358079098E+02 -0.70266891811E+01 -0.13323191094E+03  0.18818943577E+03  0.12509000000E+03 0.  0.
<mgrwt>
<rscale>  2 0.45680392E+03</rscale>
<asrwt>0</asrwt>
<pdfrwt beam="1">  1       21 0.28814030E-01 0.45680392E+03</pdfrwt>
<pdfrwt beam="2">  1       21 0.39154152E-01 0.45680392E+03</pdfrwt>
<totfact> 0.67051929E+04</totfact>
</mgrwt>
</event>
<event>
 7    0  0.4705418E-002  0.4544049E+03  0.7546771E-02  0.1026417E+00
         21   -1    0    0  502  501  0.00000000000E+00  0.00000000000E+00  0.23572144521E+03  0.23572144521E+03  0.00000000000E+00 0. -1.
         21   -1    0    0  501  502 -0.00000000000E+00 -0.00000000000E+00 -0.21899136089E+03  0.21899136089E+03  0.00000000000E+00 0. -1.
      99926    2    1    2    0    0 -0.35527136788E-14  0.00000000000E+00  0.16730084320E+02  0.45471280609E+03  0.45440492989E+03 0.  0.
      99925    2    3    3    0    0 -0.22038086765E+02  0.53338685796E+02  0.10735286028E+03  0.28981681374E+03  0.26294192562E+03 0.  0.
         25    1    4    4    0    0 -0.31724367342E+02 -0.25896152027E+01  0.72724829379E+02  0.14815380690E+03  0.12509000000E+03 0.  0.
         25    1    4    4    0    0  0.96862805774E+01  0.55928300999E+02  0.34628030902E+02  0.14166300684E+03  0.12509000000E+03 0.  0.
         25    1    3    3    0    0  0.22038086765E+02 -0.53338685796E+02 -0.90622775961E+02  0.16489599235E+03  0.12509000000E+03 0.  0.
<mgrwt>
<rscale>  2 0.45440493E+03</rscale>
<asrwt>0</asrwt>
<pdfrwt beam="1">  1       21 0.34664919E-01 0.45440493E+03</pdfrwt>
<pdfrwt beam="2">  1       21 0.32204612E-01 0.45440493E+03</pdfrwt>
<totfact> 0.68893379E+04</totfact>
</mgrwt>
</event>
<event>
 7    0  0.4705418E-002  0.4560981E+03  0.7546771E-02  0.1025919E+00
         21   -1    0    0  502  501  0.00000000000E+00  0.00000000000E+00  0.16709152096E+03  0.16709152096E+03  0.00000000000E+00 0. -1.
         21   -1    0    0  501  502 -0.00000000000E+00 -0.00000000000E+00 -0.31124479548E+03  0.31124479548E+03  0.00000000000E+00 0. -1.
      99926    2    1    2    0    0 -0.14210854715E-13  0.71054273576E-14 -0.14415327451E+03  0.47833631644E+03  0.45609808711E+03 0.  0.
      99925    2    3    3    0    0  0.82424202355E+02 -0.41639807021E+02 -0.20162394740E+02  0.27946734191E+03  0.26299781438E+03 0.  0.
         25    1    4    4    0    0  0.38963166702E+02 -0.28204241849E+02  0.29803947689E+02  0.13729308437E+03  0.12509000000E+03 0.  0.
         25    1    3    3    0    0 -0.82424202355E+02  0.41639807021E+02 -0.12399087977E+03  0.19886897453E+03  0.12509000000E+03 0.  0.
         25    1    4    4    0    0  0.43461035653E+02 -0.13435565172E+02 -0.49966342429E+02  0.14217425754E+03  0.12509000000E+03 0.  0.
<mgrwt>
<rscale>  2 0.45609809E+03</rscale>
<asrwt>0</asrwt>
<pdfrwt beam="1">  1       21 0.24572283E-01 0.45609809E+03</pdfrwt>
<pdfrwt beam="2">  1       21 0.45771293E-01 0.45609809E+03</pdfrwt>
<totfact> 0.66242194E+04</totfact>
</mgrwt>
</event>
<event>
 7    0  0.4705418E-002  0.4559847E+03  0.7546771E-02  0.1025952E+00
         21   -1    0    0  502  501  0.00000000000E+00  0.00000000000E+00  0.26674750812E+03  0.26674750812E+03  0.00000000000E+00 0. -1.
         21   -1    0    0  501  502 -0.00000000000E+00 -0.00000000000E+00 -0.19486785488E+03  0.19486785488E+03  0.00000000000E+00 0. -1.
      99926    2    1    2    0    0  0.00000000000E+00  0.00000000000E+00  0.71879653239E+02  0.46161536300E+03  0.45598471335E+03 0.  0.
      99925    2    3    3    0    0 -0.98461751384E+02 -0.21930893790E+02  0.99058889168E+02  0.29863714496E+03  0.26305094609E+03 0.  0.
         25    1    4    4    0    0 -0.77604006270E+02 -0.39094662084E+02  0.38731325261E+02  0.15715723989E+03  0.12509000000E+03 0.  0.
         25    1    3    3    0    0  0.98461751384E+02  0.21930893790E+02 -0.27179235929E+02  0.16297821803E+03  0.12509000000E+03 0.  0.
         25    1    4    4    0    0 -0.20857745114E+02  0.17163768294E+02  0.60327563907E+02  0.14147990508E+03  0.12509000000E+03 0.  0.
<mgrwt>
<rscale>  2 0.45598471E+03</rscale>
<asrwt>0</asrwt>
<pdfrwt beam="1">  1       21 0.39227575E-01 0.45598471E+03</pdfrwt>
<pdfrwt beam="2">  1       21 0.28657037E-01 0.45598471E+03</pdfrwt>
<totfact> 0.67531120E+04</totfact>
</mgrwt>
</event>
<event>
 7    0  0.4705418E-002  0.4561492E+03  0.7546771E-02  0.1025904E+00
         21   -1    0    0  502  501  0.00000000000E+00  0.00000000000E+00  0.20154008582E+02  0.20154008582E+02  0.00000000000E+00 0.  1.
         21   -1    0    0  501  502 -0.00000000000E+00 -0.00000000000E+00 -0.25810260776E+04  0.25810260776E+04  0.00000000000E+00 0.  1.
      99926    2    1    2    0    0  0.14210854715E-13  0.17763568394E-14 -0.25608720690E+04  0.26011800861E+04  0.45614919365E+03 0.  0.
      99925    2    3    3    0    0  0.10926694685E+03  0.14446429191E+02 -0.17802024683E+04  0.18029066376E+04  0.26306567825E+03 0.  0.
         25    1    4    4    0    0  0.11347766982E+02  0.13363862683E+02 -0.77208259585E+03  0.78234673103E+03  0.12509000000E+03 0.  0.
         25    1    4    4    0    0  0.97919179870E+02  0.10825665084E+01 -0.10081198724E+04  0.10205599066E+04  0.12509000000E+03 0.  0.
         25    1    3    3    0    0 -0.10926694685E+03 -0.14446429191E+02 -0.78066960073E+03  0.79827344851E+03  0.12509000000E+03 0.  0.
<mgrwt>
<rscale>  2 0.45614919E+03</rscale>
<asrwt>0</asrwt>
<pdfrwt beam="1">  1       21 0.29638246E-02 0.45614919E+03</pdfrwt>
<pdfrwt beam="2">  1       21 0.37956268E+00 0.45614919E+03</pdfrwt>
<totfact> 0.60963828E+03</totfact>
</mgrwt>
</event>
<event>
 7    0  0.4705418E-002  0.4660703E+03  0.7546771E-02  0.1023035E+00
         21   -1    0    0  502  501  0.00000000000E+00  0.00000000000E+00  0.42179648513E+03  0.42179648513E+03  0.00000000000E+00 0.  1.
         21   -1    0    0  501  502 -0.00000000000E+00 -0.00000000000E+00 -0.12874781020E+03  0.12874781020E+03  0.00000000000E+00 0.  1.
      99926    2    1    2    0    0 -0.14210854715E-13  0.00000000000E+00  0.29304867493E+03  0.55054429534E+03  0.46607026857E+03 0.  0.
      99925    2    3    3    0    0 -0.69993365743E+02 -0.10034028659E+03  0.16517581270E+03  0.33382738008E+03  0.26304073113E+03 0.  0.
         25    1    4    4    0    0 -0.64051030432E+02 -0.73772956607E+02  0.66039958307E+02  0.17191209329E+03  0.12509000000E+03 0.  0.
         25    1    4    4    0    0 -0.59423353106E+01 -0.26567329983E+02  0.99135854390E+02  0.16191528679E+03  0.12509000000E+03 0.  0.
         25    1    3    3    0    0  0.69993365743E+02  0.10034028659E+03  0.12787286223E+03  0.21671691525E+03  0.12509000000E+03 0.  0.
<mgrwt>
<rscale>  2 0.46607027E+03</rscale>
<asrwt>0</asrwt>
<pdfrwt beam="1">  1       21 0.62028894E-01 0.46607027E+03</pdfrwt>
<pdfrwt beam="2">  1       21 0.18933502E-01 0.46607027E+03</pdfrwt>
<totfact> 0.56697887E+04</totfact>
</mgrwt>
</event>
<event>
 7    0  0.4705418E-002  0.4582295E+03  0.7546771E-02  0.1025296E+00
         21   -1    0    0  502  501  0.00000000000E+00  0.00000000000E+00  0.42961226348E+02  0.42961226348E+02  0.00000000000E+00 0.  1.
         21   -1    0    0  501  502 -0.00000000000E+00 -0.00000000000E+00 -0.12218824593E+04  0.12218824593E+04  0.00000000000E+00 0.  1.
      99926    2    1    2    0    0  0.35527136788E-14 -0.71054273576E-14 -0.11789212329E+04  0.12648436856E+04  0.45822950103E+03 0.  0.
      99925    2    3    3    0    0  0.20330457477E+02 -0.50609943985E+02 -0.10227680966E+04  0.10574647956E+04  0.26306371975E+03 0.  0.
         25    1    4    4    0    0 -0.13489299929E+02  0.73357308210E+01 -0.44357263656E+03  0.46112901249E+03  0.12509000000E+03 0.  0.
         25    1    4    4    0    0  0.33819757406E+02 -0.57945674806E+02 -0.57919546000E+03  0.59633578310E+03  0.12509000000E+03 0.  0.
         25    1    3    3    0    0 -0.20330457477E+02  0.50609943985E+02 -0.15615313635E+03  0.20737889002E+03  0.12509000000E+03 0.  0.
<mgrwt>
<rscale>  2 0.45822950E+03</rscale>
<asrwt>0</asrwt>
<pdfrwt beam="1">  1       21 0.63178282E-02 0.45822950E+03</pdfrwt>
<pdfrwt beam="2">  1       21 0.17968857E+00 0.45822950E+03</pdfrwt>
<totfact> 0.29406881E+04</totfact>
</mgrwt>
</event>
<event>
 7    0  0.4705418E-002  0.4513495E+03  0.7546771E-02  0.1027320E+00
         21   -1    0    0  502  501  0.00000000000E+00  0.00000000000E+00  0.68176120916E+03  0.68176120916E+03  0.00000000000E+00 0. -1.
         21   -1    0    0  501  502 -0.00000000000E+00 -0.00000000000E+00 -0.74702241642E+02  0.74702241642E+02  0.00000000000E+00 0. -1.
      99926    2    1    2    0    0  0.00000000000E+00  0.00000000000E+00  0.60705896752E+03  0.75646345081E+03  0.45134949026E+03 0.  0.
      99925    2    3    3    0    0 -0.57358071640E+02  0.27617047114E+02  0.23407219288E+03  0.35794206891E+03  0.26321110072E+03 0.  0.
         25    1    4    4    0    0 -0.27709722784E+02 -0.26448707590E+02  0.10228958294E+03  0.16606634141E+03  0.12509000000E+03 0.  0.
         25    1    4    4    0    0 -0.29648348856E+02  0.54065754704E+02  0.13178260994E+03  0.19187572750E+03  0.12509000000E+03 0.  0.
         25    1    3    3    0    0  0.57358071640E+02 -0.27617047114E+02  0.37298677464E+03  0.39852138190E+03  0.12509000000E+03 0.  0.
<mgrwt>
<rscale>  2 0.45134949E+03</rscale>
<asrwt>0</asrwt>
<pdfrwt beam="1">  1       21 0.10025900E+00 0.45134949E+03</pdfrwt>
<pdfrwt beam="2">  1       21 0.10985624E-01 0.45134949E+03</pdfrwt>
<totfact> 0.51399505E+04</totfact>
</mgrwt>
</event>
<event>
 7    0  0.4705418E-002  0.4518499E+03  0.7546771E-02  0.1027172E+00
         21   -1    0    0  502  501  0.00000000000E+00  0.00000000000E+00  0.49555000107E+02  0.49555000107E+02  0.00000000000E+00 0.  1.
         21   -1    0    0  501  502 -0.00000000000E+00 -0.00000000000E+00 -0.10300087288E+04  0.10300087288E+04  0.00000000000E+00 0.  1.
      99926    2    1    2    0    0  0.14210854715E-13  0.17763568394E-14 -0.98045372865E+03  0.10795637289E+04  0.45184989837E+03 0.  0.
      99925    2    3    3    0    0 -0.95452698752E+02 -0.13449054450E+02 -0.74611764317E+03  0.79698099085E+03  0.26304955344E+03 0.  0.
         25    1    4    4    0    0 -0.12873736434E+02 -0.84741764022E+01 -0.40972522951E+03  0.42867215510E+03  0.12509000000E+03 0.  0.
         25    1    3    3    0    0  0.95452698752E+02  0.13449054450E+02 -0.23433608548E+03  0.28258273801E+03  0.12509000000E+03 0.  0.
         25    1    4    4    0    0 -0.82578962318E+02 -0.49748780476E+01 -0.33639241365E+03  0.36830883575E+03  0.12509000000E+03 0.  0.
<mgrwt>
<rscale>  2 0.45184990E+03</rscale>
<asrwt>0</asrwt>
<pdfrwt beam="1">  1       21 0.72875010E-02 0.45184990E+03</pdfrwt>
<pdfrwt beam="2">  1       21 0.15147185E+00 0.45184990E+03</pdfrwt>
<totfact> 0.37114862E+04</totfact>
</mgrwt>
</event>
<event>
 7    0  0.4705418E-002  0.4526312E+03  0.7546771E-02  0.1026940E+00
         21   -1    0    0  502  501  0.00000000000E+00  0.00000000000E+00  0.35492964689E+03  0.35492964689E+03  0.00000000000E+00 0.  1.
         21   -1    0    0  501  502 -0.00000000000E+00 -0.00000000000E+00 -0.14430675693E+03  0.14430675693E+03  0.00000000000E+00 0.  1.
      99926    2    1    2    0    0  0.00000000000E+00  0.00000000000E+00  0.21062288995E+03  0.49923640382E+03  0.45263118002E+03 0.  0.
      99925    2    3    3    0    0 -0.62477799269E+02 -0.75829025485E+02  0.18967554208E+03  0.33880007380E+03  0.26297369115E+03 0.  0.
         25    1    4    4    0    0 -0.41990867438E+02 -0.19948069749E+02  0.51213401537E+02  0.14293872475E+03  0.12509000000E+03 0.  0.
         25    1    3    3    0    0  0.62477799269E+02  0.75829025485E+02  0.20947347876E+02  0.16043633002E+03  0.12509000000E+03 0.  0.
         25    1    4    4    0    0 -0.20486931832E+02 -0.55880955736E+02  0.13846214054E+03  0.19586134905E+03  0.12509000000E+03 0.  0.
<mgrwt>
<rscale>  2 0.45263118E+03</rscale>
<asrwt>0</asrwt>
<pdfrwt beam="1">  1       21 0.52195536E-01 0.45263118E+03</pdfrwt>
<pdfrwt beam="2">  1       21 0.21221582E-01 0.45263118E+03</pdfrwt>
<totfact> 0.66567267E+04</totfact>
</mgrwt>
</event>
<event>
 7    0  0.4705418E-002  0.4553978E+03  0.7546771E-02  0.1026124E+00
         21   -1    0    0  502  501  0.00000000000E+00  0.00000000000E+00  0.34101182336E+03  0.34101182336E+03  0.00000000000E+00 0. -1.
         21   -1    0    0  501  502 -0.00000000000E+00 -0.00000000000E+00 -0.15203811019E+03  0.15203811019E+03  0.00000000000E+00 0. -1.
      99926    2    1    2    0    0  0.00000000000E+00 -0.10547118734E-14  0.18897371317E+03  0.49304993356E+03  0.45539781808E+03 0.  0.
      99925    2    3    3    0    0  0.51385970457E+02 -0.32947137462E+00  0.91460794439E+01  0.26804746143E+03  0.26291664896E+03 0.  0.
         25    1    4    4    0    0  0.59235914640E+02 -0.17072296562E+02  0.21064954243E+02  0.14103757404E+03  0.12509000000E+03 0.  0.
         25    1    3    3    0    0 -0.51385970457E+02  0.32947137462E+00  0.17982763373E+03  0.22500247213E+03  0.12509000000E+03 0.  0.
         25    1    4    4    0    0 -0.78499441832E+01  0.16742825187E+02 -0.11918874799E+02  0.12700988739E+03  0.12509000000E+03 0.  0.
<mgrwt>
<rscale>  2 0.45539782E+03</rscale>
<asrwt>0</asrwt>
<pdfrwt beam="1">  1       21 0.50148797E-01 0.45539782E+03</pdfrwt>
<pdfrwt beam="2">  1       21 0.22358546E-01 0.45539782E+03</pdfrwt>
<totfact> 0.65554455E+04</totfact>
</mgrwt>
</event>
<event>
 7    0  0.4705418E-002  0.4446853E+03  0.7546771E-02  0.1029319E+00
         21   -1    0    0  502  501  0.00000000000E+00  0.00000000000E+00  0.31422748239E+03  0.31422748239E+03  0.00000000000E+00 0.  1.
         21   -1    0    0  501  502 -0.00000000000E+00 -0.00000000000E+00 -0.15732632209E+03  0.15732632209E+03  0.00000000000E+00 0.  1.
      99926    2    1    2    0    0  0.35527136788E-14 -0.14210854715E-13  0.15690116030E+03  0.47155380448E+03  0.44468530043E+03 0.  0.
      99925    2    3    3    0    0  0.14287320819E+02 -0.10097122597E+03  0.89664100788E+02  0.29671774904E+03  0.26382277312E+03 0.  0.
         25    1    4    4    0    0 -0.20106616103E+02 -0.42023506712E+02  0.75911997508E+02  0.15355907851E+03  0.12509000000E+03 0.  0.
         25    1    4    4    0    0  0.34393936923E+02 -0.58947719260E+02  0.13752103280E+02  0.14315867053E+03  0.12509000000E+03 0.  0.
         25    1    3    3    0    0 -0.14287320819E+02  0.10097122597E+03  0.67237059508E+02  0.17483605544E+03  0.12509000000E+03 0.  0.
<mgrwt>
<rscale>  2 0.44468530E+03</rscale>
<asrwt>0</asrwt>
<pdfrwt beam="1">  1       21 0.46209924E-01 0.44468530E+03</pdfrwt>
<pdfrwt beam="2">  1       21 0.23136224E-01 0.44468530E+03</pdfrwt>
<totfact> 0.73125775E+04</totfact>
</mgrwt>
</event>
<event>
 7    0  0.4705418E-002  0.4338451E+03  0.7546771E-02  0.1032652E+00
         21   -1    0    0  502  501  0.00000000000E+00  0.00000000000E+00  0.13637184163E+03  0.13637184163E+03  0.00000000000E+00 0. -1.
         21   -1    0    0  501  502 -0.00000000000E+00 -0.00000000000E+00 -0.34505204394E+03  0.34505204394E+03  0.00000000000E+00 0. -1.
      99926    2    1    2    0    0  0.17763568394E-14  0.14210854715E-13 -0.20868020231E+03  0.48142388558E+03  0.43384505387E+03 0.  0.
      99925    2    3    3    0    0  0.13575887896E+02  0.76950032825E+02 -0.81297644708E+02  0.28654075043E+03  0.26342111217E+03 0.  0.
         25    1    4    4    0    0  0.72823336762E+01  0.65360652585E+02 -0.76420070372E+02  0.16066294702E+03  0.12509000000E+03 0.  0.
         25    1    4    4    0    0  0.62935542197E+01  0.11589380240E+02 -0.48775743362E+01  0.12587780341E+03  0.12509000000E+03 0.  0.
         25    1    3    3    0    0 -0.13575887896E+02 -0.76950032825E+02 -0.12738255760E+03  0.19488313515E+03  0.12509000000E+03 0.  0.
<mgrwt>
<rscale>  2 0.43384505E+03</rscale>
<asrwt>0</asrwt>
<pdfrwt beam="1">  1       21 0.20054683E-01 0.43384505E+03</pdfrwt>
<pdfrwt beam="2">  1       21 0.50742947E-01 0.43384505E+03</pdfrwt>
<totfact> 0.79063017E+04</totfact>
</mgrwt>
</event>
<event>
 7    0  0.4705418E-002  0.4405923E+03  0.7546771E-02  0.1030565E+00
         21   -1    0    0  502  501  0.00000000000E+00  0.00000000000E+00  0.50063629892E+03  0.50063629892E+03  0.00000000000E+00 0. -1.
         21   -1    0    0  501  502 -0.00000000000E+00 -0.00000000000E+00 -0.96937436632E+02  0.96937436632E+02  0.00000000000E+00 0. -1.
      99926    2    1    2    0    0  0.00000000000E+00  0.71054273576E-14  0.40369886228E+03  0.59757373555E+03  0.44059232631E+03 0.  0.
      99925    2    3    3    0    0 -0.92764252225E+02 -0.29956912600E+02  0.28080879567E+03  0.39694447628E+03  0.26307549186E+03 0.  0.
         25    1    3    3    0    0  0.92764252225E+02  0.29956912600E+02  0.12289006661E+03  0.20062925927E+03  0.12509000000E+03 0.  0.
         25    1    4    4    0    0 -0.70548987552E+02  0.18043441189E+02  0.14438122948E+03  0.20444112341E+03  0.12509000000E+03 0.  0.
         25    1    4    4    0    0 -0.22215264673E+02 -0.48000353790E+02  0.13642756619E+03  0.19250335287E+03  0.12509000000E+03 0.  0.
<mgrwt>
<rscale>  2 0.44059233E+03</rscale>
<asrwt>0</asrwt>
<pdfrwt beam="1">  1       21 0.73622984E-01 0.44059233E+03</pdfrwt>
<pdfrwt beam="2">  1       21 0.14255506E-01 0.44059233E+03</pdfrwt>
<totfact> 0.66029659E+04</totfact>
</mgrwt>
</event>
<event>
 7    0  0.4705418E-002  0.4387272E+03  0.7546771E-02  0.1031138E+00
         21   -1    0    0  502  501  0.00000000000E+00  0.00000000000E+00  0.22069553307E+04  0.22069553307E+04  0.00000000000E+00 0. -1.
         21   -1    0    0  501  502 -0.00000000000E+00 -0.00000000000E+00 -0.21803972976E+02  0.21803972976E+02  0.00000000000E+00 0. -1.
      99926    2    1    2    0    0  0.00000000000E+00  0.88817841970E-15  0.21851513577E+04  0.22287593037E+04  0.43872722455E+03 0.  0.
      99925    2    3    3    0    0 -0.96708041239E+02 -0.69696927249E+01  0.13671377902E+04  0.13955758145E+04  0.26299257558E+03 0.  0.
         25    1    4    4    0    0 -0.67614811056E+02  0.36023849477E+01  0.89216523845E+03  0.90343293091E+03  0.12509000000E+03 0.  0.
         25    1    3    3    0    0  0.96708041239E+02  0.69696927249E+01  0.81801356750E+03  0.83318348914E+03  0.12509000000E+03 0.  0.
         25    1    4    4    0    0 -0.29093230184E+02 -0.10572077673E+02  0.47497255175E+03  0.49214288361E+03  0.12509000000E+03 0.  0.
<mgrwt>
<rscale>  2 0.43872722E+03</rscale>
<asrwt>0</asrwt>
<pdfrwt beam="1">  1       21 0.32455210E+00 0.43872722E+03</pdfrwt>
<pdfrwt beam="2">  1       21 0.32064681E-02 0.43872722E+03</pdfrwt>
<totfact> 0.11736553E+04</totfact>
</mgrwt>
</event>
<event>
 7    0  0.4705418E-002  0.4527760E+03  0.7546771E-02  0.1026897E+00
         21   -1    0    0  502  501  0.00000000000E+00  0.00000000000E+00  0.67341468899E+02  0.67341468899E+02  0.00000000000E+00 0. -1.
         21   -1    0    0  501  502 -0.00000000000E+00 -0.00000000000E+00 -0.76106942665E+03  0.76106942665E+03  0.00000000000E+00 0. -1.
      99926    2    1    2    0    0  0.14210854715E-13 -0.71054273576E-14 -0.69372795775E+03  0.82841089555E+03  0.45277602907E+03 0.  0.
      99925    2    3    3    0    0  0.95904923157E+02 -0.39522738936E+02 -0.37489177104E+03  0.47055083458E+03  0.26479132681E+03 0.  0.
         25    1    4    4    0    0  0.35500596905E+02  0.21997331687E+02 -0.18927224076E+03  0.23068520586E+03  0.12509000000E+03 0.  0.
         25    1    3    3    0    0 -0.95904923157E+02  0.39522738936E+02 -0.31883618671E+03  0.35786006096E+03  0.12509000000E+03 0.  0.
         25    1    4    4    0    0  0.60404326252E+02 -0.61520070624E+02 -0.18561953029E+03  0.23986562872E+03  0.12509000000E+03 0.  0.
<mgrwt>
<rscale>  2 0.45277603E+03</rscale>
<asrwt>0</asrwt>
<pdfrwt beam="1">  1       21 0.99031573E-02 0.45277603E+03</pdfrwt>
<pdfrwt beam="2">  1       21 0.11192197E+00 0.45277603E+03</pdfrwt>
<totfact> 0.47240055E+04</totfact>
</mgrwt>
</event>
<event>
 7    0  0.4705418E-002  0.4395770E+03  0.7546771E-02  0.1030877E+00
         21   -1    0    0  502  501  0.00000000000E+00  0.00000000000E+00  0.40441802767E+02  0.40441802767E+02  0.00000000000E+00 0. -1.
         21   -1    0    0  501  502 -0.00000000000E+00 -0.00000000000E+00 -0.11944813804E+04  0.11944813804E+04  0.00000000000E+00 0. -1.
      99926    2    1    2    0    0  0.00000000000E+00  0.00000000000E+00 -0.11540395776E+04  0.12349231832E+04  0.43957698027E+03 0.  0.
      99925    2    3    3    0    0 -0.80176026564E+02 -0.25851238179E+02 -0.59630790298E+03  0.65716145827E+03  0.26302392538E+03 0.  0.
         25    1    4    4    0    0 -0.76578990820E+02 -0.34260326276E+02 -0.33588254115E+03  0.36810691564E+03  0.12509000000E+03 0.  0.
         25    1    3    3    0    0  0.80176026564E+02  0.25851238179E+02 -0.55773167464E+03  0.57776172489E+03  0.12509000000E+03 0.  0.
         25    1    4    4    0    0 -0.35970357446E+01  0.84090880965E+01 -0.26042536184E+03  0.28905454263E+03  0.12509000000E+03 0.  0.
<mgrwt>
<rscale>  2 0.43957698E+03</rscale>
<asrwt>0</asrwt>
<pdfrwt beam="1">  1       21 0.59473243E-02 0.43957698E+03</pdfrwt>
<pdfrwt beam="2">  1       21 0.17565902E+00 0.43957698E+03</pdfrwt>
<totfact> 0.35092012E+04</totfact>
</mgrwt>
</event>
<event>
 7    0  0.4705418E-002  0.4595228E+03  0.7546771E-02  0.1024920E+00
         21   -1    0    0  502  501  0.00000000000E+00  0.00000000000E+00  0.42843540517E+03  0.42843540517E+03  0.00000000000E+00 0.  1.
         21   -1    0    0  501  502 -0.00000000000E+00 -0.00000000000E+00 -0.12321647066E+03  0.12321647066E+03  0.00000000000E+00 0.  1.
      99926    2    1    2    0    0  0.00000000000E+00 -0.35527136788E-14  0.30521893451E+03  0.55165187584E+03  0.45952278957E+03 0.  0.
      99925    2    3    3    0    0 -0.33075607258E+02 -0.22392755481E+02  0.32376060224E+03  0.41903689616E+03  0.26301247400E+03 0.  0.
         25    1    4    4    0    0 -0.21976267062E+02  0.29055283900E+02  0.16171587865E+03  0.20766968807E+03  0.12509000000E+03 0.  0.
         25    1    4    4    0    0 -0.11099340196E+02 -0.51448039381E+02  0.16204472360E+03  0.21136720809E+03  0.12509000000E+03 0.  0.
         25    1    3    3    0    0  0.33075607258E+02  0.22392755481E+02 -0.18541667733E+02  0.13261497968E+03  0.12509000000E+03 0.  0.
<mgrwt>
<rscale>  2 0.45952279E+03</rscale>
<asrwt>0</asrwt>
<pdfrwt beam="1">  1       21 0.63005206E-01 0.45952279E+03</pdfrwt>
<pdfrwt beam="2">  1       21 0.18120069E-01 0.45952279E+03</pdfrwt>
<totfact> 0.59596170E+04</totfact>
</mgrwt>
</event>
<event>
 7    0  0.4705418E-002  0.4654008E+03  0.7546771E-02  0.1023226E+00
         21   -1    0    0  502  501  0.00000000000E+00  0.00000000000E+00  0.23975800641E+03  0.23975800641E+03  0.00000000000E+00 0.  1.
         21   -1    0    0  501  502 -0.00000000000E+00 -0.00000000000E+00 -0.22585058786E+03  0.22585058786E+03  0.00000000000E+00 0.  1.
      99926    2    1    2    0    0  0.00000000000E+00  0.00000000000E+00  0.13907418547E+02  0.46560859428E+03  0.46540084526E+03 0.  0.
      99925    2    3    3    0    0  0.60868318755E+02  0.16332150198E+02 -0.96548633653E+02  0.28722771266E+03  0.26307114798E+03 0.  0.
         25    1    4    4    0    0  0.54423369380E+02  0.20216752929E+02 -0.17375815267E+02  0.13899657294E+03  0.12509000000E+03 0.  0.
         25    1    3    3    0    0 -0.60868318755E+02 -0.16332150198E+02  0.11045605220E+03  0.17838088162E+03  0.12509000000E+03 0.  0.
         25    1    4    4    0    0  0.64449493756E+01 -0.38846027305E+01 -0.79172818386E+02  0.14823113972E+03  0.12509000000E+03 0.  0.
<mgrwt>
<rscale>  2 0.46540085E+03</rscale>
<asrwt>0</asrwt>
<pdfrwt beam="1">  1       21 0.35258530E-01 0.46540085E+03</pdfrwt>
<pdfrwt beam="2">  1       21 0.33213322E-01 0.46540085E+03</pdfrwt>
<totfact> 0.62431383E+04</totfact>
</mgrwt>
</event>
<event>
 7    0  0.4705418E-002  0.4654218E+03  0.7546771E-02  0.1023220E+00
         21   -1    0    0  502  501  0.00000000000E+00  0.00000000000E+00  0.93231396947E+02  0.93231396947E+02  0.00000000000E+00 0.  1.
         21   -1    0    0  501  502 -0.00000000000E+00 -0.00000000000E+00 -0.58085976224E+03  0.58085976224E+03  0.00000000000E+00 0.  1.
      99926    2    1    2    0    0  0.00000000000E+00  0.00000000000E+00 -0.48762836530E+03  0.67409115919E+03  0.46542181756E+03 0.  0.
      99925    2    3    3    0    0 -0.10997986321E+02  0.47181986568E+02 -0.14079090627E+03  0.30221641328E+03  0.26299350869E+03 0.  0.
         25    1    4    4    0    0  0.25288480310E+02  0.42314131801E+02 -0.50336971626E+02  0.14356640205E+03  0.12509000000E+03 0.  0.
         25    1    3    3    0    0  0.10997986321E+02 -0.47181986568E+02 -0.34683745902E+03  0.37187474591E+03  0.12509000000E+03 0.  0.
         25    1    4    4    0    0 -0.36286466631E+02  0.48678547674E+01 -0.90453934645E+02  0.15865001123E+03  0.12509000000E+03 0.  0.
<mgrwt>
<rscale>  2 0.46542182E+03</rscale>
<asrwt>0</asrwt>
<pdfrwt beam="1">  1       21 0.13710499E-01 0.46542182E+03</pdfrwt>
<pdfrwt beam="2">  1       21 0.85420555E-01 0.46542182E+03</pdfrwt>
<totfact> 0.50089145E+04</totfact>
</mgrwt>
</event>
<event>
 7    0  0.4705418E-002  0.4458841E+03  0.7546771E-02  0.1028957E+00
         21   -1    0    0  502  501  0.00000000000E+00  0.00000000000E+00  0.18035968270E+03  0.18035968270E+03  0.00000000000E+00 0. -1.
         21   -1    0    0  501  502 -0.00000000000E+00 -0.00000000000E+00 -0.27557794988E+03  0.27557794988E+03  0.00000000000E+00 0. -1.
      99926    2    1    2    0    0  0.00000000000E+00 -0.17763568394E-14 -0.95218267183E+02  0.45593763258E+03  0.44588407283E+03 0.  0.
      99925    2    3    3    0    0 -0.96036247576E+02 -0.58116356791E+01 -0.19042904760E+02  0.28070370351E+03  0.26301178868E+03 0.  0.
         25    1    4    4    0    0 -0.20096812030E+02  0.28256461951E+02 -0.91114871972E+01  0.13012623408E+03  0.12509000000E+03 0.  0.
         25    1    3    3    0    0  0.96036247576E+02  0.58116356791E+01 -0.76175362422E+02  0.17523392907E+03  0.12509000000E+03 0.  0.
         25    1    4    4    0    0 -0.75939435546E+02 -0.34068097631E+02 -0.99314175632E+01  0.15057746944E+03  0.12509000000E+03 0.  0.
<mgrwt>
<rscale>  2 0.44588407E+03</rscale>
<asrwt>0</asrwt>
<pdfrwt beam="1">  1       21 0.26523483E-01 0.44588407E+03</pdfrwt>
<pdfrwt beam="2">  1       21 0.40526169E-01 0.44588407E+03</pdfrwt>
<totfact> 0.73681776E+04</totfact>
</mgrwt>
</event>
<event>
 7    0  0.4705418E-002  0.4521735E+03  0.7546771E-02  0.1027076E+00
         21   -1    0    0  502  501  0.00000000000E+00  0.00000000000E+00  0.36137535712E+02  0.36137535712E+02  0.00000000000E+00 0.  1.
         21   -1    0    0  501  502 -0.00000000000E+00 -0.00000000000E+00 -0.14144633741E+04  0.14144633741E+04  0.00000000000E+00 0.  1.
      99926    2    1    2    0    0  0.00000000000E+00  0.00000000000E+00 -0.13783258384E+04  0.14506009098E+04  0.45217350960E+03 0.  0.
      99925    2    3    3    0    0 -0.49998123663E+02 -0.98022970621E+02 -0.90226608710E+03  0.94623129333E+03  0.26298527221E+03 0.  0.
         25    1    4    4    0    0 -0.45600681305E+02 -0.19494128813E+02 -0.49598037181E+03  0.51390999262E+03  0.12509000000E+03 0.  0.
         25    1    3    3    0    0  0.49998123663E+02  0.98022970621E+02 -0.47605975129E+03  0.50436961649E+03  0.12509000000E+03 0.  0.
         25    1    4    4    0    0 -0.43974423581E+01 -0.78528841808E+02 -0.40628571529E+03  0.43232130071E+03  0.12509000000E+03 0.  0.
<mgrwt>
<rscale>  2 0.45217351E+03</rscale>
<asrwt>0</asrwt>
<pdfrwt beam="1">  1       21 0.53143441E-02 0.45217351E+03</pdfrwt>
<pdfrwt beam="2">  1       21 0.20800929E+00 0.45217351E+03</pdfrwt>
<totfact> 0.25571165E+04</totfact>
</mgrwt>
</event>
<event>
 7    0  0.4705418E-002  0.4566150E+03  0.7546771E-02  0.1025768E+00
         21   -1    0    0  502  501  0.00000000000E+00  0.00000000000E+00  0.50094089642E+02  0.50094089642E+02  0.00000000000E+00 0. -1.
         21   -1    0    0  501  502 -0.00000000000E+00 -0.00000000000E+00 -0.10405282839E+04  0.10405282839E+04  0.00000000000E+00 0. -1.
      99926    2    1    2    0    0  0.00000000000E+00  0.17763568394E-14 -0.99043419429E+03  0.10906223736E+04  0.45661501128E+03 0.  0.
      99925    2    3    3    0    0 -0.54612526035E+02  0.41291168727E+01 -0.38157419185E+03  0.46663712673E+03  0.26296723475E+03 0.  0.
         25    1    3    3    0    0  0.54612526035E+02 -0.41291168727E+01 -0.60886000244E+03  0.62398524684E+03  0.12509000000E+03 0.  0.
         25    1    4    4    0    0 -0.16086469633E+02  0.30595609958E+02 -0.23426103404E+03  0.26780703132E+03  0.12509000000E+03 0.  0.
         25    1    4    4    0    0 -0.38526056402E+02 -0.26466493085E+02 -0.14731315781E+03  0.19883009541E+03  0.12509000000E+03 0.  0.
<mgrwt>
<rscale>  2 0.45661501E+03</rscale>
<asrwt>0</asrwt>
<pdfrwt beam="1">  1       21 0.73667785E-02 0.45661501E+03</pdfrwt>
<pdfrwt beam="2">  1       21 0.15301885E+00 0.45661501E+03</pdfrwt>
<totfact> 0.35373322E+04</totfact>
</mgrwt>
</event>
<event>
 7    0  0.4705418E-002  0.4558266E+03  0.7546771E-02  0.1025999E+00
         21   -1    0    0  502  501  0.00000000000E+00  0.00000000000E+00  0.69865002362E+03  0.69865002362E+03  0.00000000000E+00 0. -1.
         21   -1    0    0  501  502 -0.00000000000E+00 -0.00000000000E+00 -0.74349763101E+02  0.74349763101E+02  0.00000000000E+00 0. -1.
      99926    2    1    2    0    0  0.00000000000E+00  0.00000000000E+00  0.62430026052E+03  0.77299978672E+03  0.45582656240E+03 0.  0.
      99925    2    3    3    0    0  0.87005391994E+01 -0.70246775276E+02  0.24117013863E+03  0.36379750518E+03  0.26301193925E+03 0.  0.
         25    1    4    4    0    0  0.20705586312E+00 -0.40294067393E+02  0.68157504015E+02  0.14804258912E+03  0.12509000000E+03 0.  0.
         25    1    4    4    0    0  0.84934833362E+01 -0.29952707883E+02  0.17301263462E+03  0.21575491606E+03  0.12509000000E+03 0.  0.
         25    1    3    3    0    0 -0.87005391994E+01  0.70246775276E+02  0.38313012189E+03  0.40920228154E+03  0.12509000000E+03 0.  0.
<mgrwt>
<rscale>  2 0.45582656E+03</rscale>
<asrwt>0</asrwt>
<pdfrwt beam="1">  1       21 0.10274265E+00 0.45582656E+03</pdfrwt>
<pdfrwt beam="2">  1       21 0.10933789E-01 0.45582656E+03</pdfrwt>
<totfact> 0.48781220E+04</totfact>
</mgrwt>
</event>
<event>
 7    0  0.4705418E-002  0.4549327E+03  0.7546771E-02  0.1026261E+00
         21   -1    0    0  502  501  0.00000000000E+00  0.00000000000E+00  0.16350375823E+03  0.16350375823E+03  0.00000000000E+00 0. -1.
         21   -1    0    0  501  502 -0.00000000000E+00 -0.00000000000E+00 -0.31645114058E+03  0.31645114058E+03  0.00000000000E+00 0. -1.
      99926    2    1    2    0    0 -0.14210854715E-13  0.00000000000E+00 -0.15294738235E+03  0.47995489881E+03  0.45493274571E+03 0.  0.
      99925    2    3    3    0    0 -0.10291271438E+03 -0.35203670544E+02 -0.63391586130E+02  0.29154557330E+03  0.26296388140E+03 0.  0.
         25    1    4    4    0    0 -0.32978992398E+02 -0.26307147882E+02  0.58358289024E+01  0.13214100411E+03  0.12509000000E+03 0.  0.
         25    1    4    4    0    0 -0.69933721980E+02 -0.88965226620E+01 -0.69227415032E+02  0.15940456919E+03  0.12509000000E+03 0.  0.
         25    1    3    3    0    0  0.10291271438E+03  0.35203670544E+02 -0.89555796223E+02  0.18840932551E+03  0.12509000000E+03 0.  0.
<mgrwt>
<rscale>  2 0.45493275E+03</rscale>
<asrwt>0</asrwt>
<pdfrwt beam="1">  1       21 0.24044670E-01 0.45493275E+03</pdfrwt>
<pdfrwt beam="2">  1       21 0.46536933E-01 0.45493275E+03</pdfrwt>
<totfact> 0.66739000E+04</totfact>
</mgrwt>
</event>
<event>
 7    0  0.4705418E-002  0.4532470E+03  0.7546771E-02  0.1026758E+00
         21   -1    0    0  502  501  0.00000000000E+00  0.00000000000E+00  0.43052985483E+02  0.43052985483E+02  0.00000000000E+00 0. -1.
         21   -1    0    0  501  502 -0.00000000000E+00 -0.00000000000E+00 -0.11929070720E+04  0.11929070720E+04  0.00000000000E+00 0. -1.
      99926    2    1    2    0    0  0.00000000000E+00  0.00000000000E+00 -0.11498540865E+04  0.12359600575E+04  0.45324700044E+03 0.  0.
      99925    2    3    3    0    0 -0.96574105137E+02  0.25095294901E+02 -0.58961806483E+03  0.65332102711E+03  0.26310182533E+03 0.  0.
         25    1    4    4    0    0 -0.69397375752E+02 -0.17144716072E+02 -0.26088215674E+03  0.29802171876E+03  0.12509000000E+03 0.  0.
         25    1    4    4    0    0 -0.27176729385E+02  0.42240010973E+02 -0.32873590809E+03  0.35529930835E+03  0.12509000000E+03 0.  0.
         25    1    3    3    0    0  0.96574105137E+02 -0.25095294901E+02 -0.56023602167E+03  0.58263903035E+03  0.12509000000E+03 0.  0.
<mgrwt>
<rscale>  2 0.45324700E+03</rscale>
<asrwt>0</asrwt>
<pdfrwt beam="1">  1       21 0.63313210E-02 0.45324700E+03</pdfrwt>
<pdfrwt beam="2">  1       21 0.17542752E+00 0.45324700E+03</pdfrwt>
<totfact> 0.31459903E+04</totfact>
</mgrwt>
</event>
<event>
 7    0  0.4705418E-002  0.4562792E+03  0.7546771E-02  0.1025866E+00
         21   -1    0    0  502  501  0.00000000000E+00  0.00000000000E+00  0.17799652082E+03  0.17799652082E+03  0.00000000000E+00 0.  1.
         21   -1    0    0  501  502 -0.00000000000E+00 -0.00000000000E+00 -0.29240836278E+03  0.29240836278E+03  0.00000000000E+00 0.  1.
      99926    2    1    2    0    0  0.14210854715E-13 -0.17763568394E-14 -0.11441184196E+03  0.47040488360E+03  0.45627917433E+03 0.  0.
      99925    2    3    3    0    0 -0.96465023855E+02  0.99137526765E+01 -0.13440218035E+03  0.31087148569E+03  0.26300827213E+03 0.  0.
         25    1    4    4    0    0 -0.65393165475E+02  0.39867016098E+02 -0.55597436434E+02  0.15685734953E+03  0.12509000000E+03 0.  0.
         25    1    3    3    0    0  0.96465023855E+02 -0.99137526765E+01  0.19990338388E+02  0.15953339791E+03  0.12509000000E+03 0.  0.
         25    1    4    4    0    0 -0.31071858380E+02 -0.29953263422E+02 -0.78804743914E+02  0.15401413616E+03  0.12509000000E+03 0.  0.
<mgrwt>
<rscale>  2 0.45627917E+03</rscale>
<asrwt>0</asrwt>
<pdfrwt beam="1">  1       21 0.26175959E-01 0.45627917E+03</pdfrwt>
<pdfrwt beam="2">  1       21 0.43001230E-01 0.45627917E+03</pdfrwt>
<totfact> 0.66725958E+04</totfact>
</mgrwt>
</event>
<event>
 7    0  0.4705418E-002  0.4548920E+03  0.7546771E-02  0.1026273E+00
         21   -1    0    0  502  501  0.00000000000E+00  0.00000000000E+00  0.10038867618E+03  0.10038867618E+03  0.00000000000E+00 0.  1.
         21   -1    0    0  501  502 -0.00000000000E+00 -0.00000000000E+00 -0.51531387884E+03  0.51531387884E+03  0.00000000000E+00 0.  1.
      99926    2    1    2    0    0  0.00000000000E+00  0.00000000000E+00 -0.41492520266E+03  0.61570255501E+03  0.45489197888E+03 0.  0.
      99925    2    3    3    0    0 -0.82916616377E+02 -0.49112374059E+02 -0.18118085399E+03  0.33361902272E+03  0.26303604299E+03 0.  0.
         25    1    4    4    0    0 -0.30613619251E+02  0.69012594161E+01 -0.11456364747E+03  0.17250263328E+03  0.12509000000E+03 0.  0.
         25    1    4    4    0    0 -0.52302997126E+02 -0.56013633475E+02 -0.66617206520E+02  0.16111638945E+03  0.12509000000E+03 0.  0.
         25    1    3    3    0    0  0.82916616377E+02  0.49112374059E+02 -0.23374434866E+03  0.28208353229E+03  0.12509000000E+03 0.  0.
<mgrwt>
<rscale>  2 0.45489198E+03</rscale>
<asrwt>0</asrwt>
<pdfrwt beam="1">  1       21 0.14763041E-01 0.45489198E+03</pdfrwt>
<pdfrwt beam="2">  1       21 0.75781453E-01 0.45489198E+03</pdfrwt>
<totfact> 0.57771268E+04</totfact>
</mgrwt>
</event>
<event>
 7    0  0.4705418E-002  0.4566762E+03  0.7546771E-02  0.1025750E+00
         21   -1    0    0  502  501  0.00000000000E+00  0.00000000000E+00  0.11703877820E+03  0.11703877820E+03  0.00000000000E+00 0.  1.
         21   -1    0    0  501  502 -0.00000000000E+00 -0.00000000000E+00 -0.44547867996E+03  0.44547867996E+03  0.00000000000E+00 0.  1.
      99926    2    1    2    0    0  0.00000000000E+00  0.00000000000E+00 -0.32843990175E+03  0.56251745816E+03  0.45667616718E+03 0.  0.
      99925    2    3    3    0    0 -0.33817399859E+02  0.31669740442E+02 -0.76659974831E+02  0.27758373131E+03  0.26273444227E+03 0.  0.
         25    1    3    3    0    0  0.33817399859E+02 -0.31669740442E+02 -0.25177992692E+03  0.28493372685E+03  0.12509000000E+03 0.  0.
         25    1    4    4    0    0 -0.43541084766E+02  0.54650224600E+01 -0.95613023675E+01  0.13290831101E+03  0.12509000000E+03 0.  0.
         25    1    4    4    0    0  0.97236849062E+01  0.26204717982E+02 -0.67098672464E+02  0.14467542030E+03  0.12509000000E+03 0.  0.
<mgrwt>
<rscale>  2 0.45667617E+03</rscale>
<asrwt>0</asrwt>
<pdfrwt beam="1">  1       21 0.17211585E-01 0.45667617E+03</pdfrwt>
<pdfrwt beam="2">  1       21 0.65511572E-01 0.45667617E+03</pdfrwt>
<totfact> 0.60244181E+04</totfact>
</mgrwt>
</event>
<event>
 7    0  0.4705418E-002  0.4443404E+03  0.7546771E-02  0.1029423E+00
         21   -1    0    0  502  501  0.00000000000E+00  0.00000000000E+00  0.68121016287E+02  0.68121016287E+02  0.00000000000E+00 0. -1.
         21   -1    0    0  501  502 -0.00000000000E+00 -0.00000000000E+00 -0.72458679907E+03  0.72458679907E+03  0.00000000000E+00 0. -1.
      99926    2    1    2    0    0 -0.14210854715E-13  0.71054273576E-14 -0.65646578278E+03  0.79270781535E+03  0.44434036117E+03 0.  0.
      99925    2    3    3    0    0  0.71665270779E+02  0.47708174030E+02 -0.51732206607E+03  0.58674553020E+03  0.26312775654E+03 0.  0.
         25    1    4    4    0    0  0.74086392523E+02  0.14804198981E+02 -0.30314574927E+03  0.33653055027E+03  0.12509000000E+03 0.  0.
         25    1    4    4    0    0 -0.24211217435E+01  0.32903975049E+02 -0.21417631680E+03  0.25021497993E+03  0.12509000000E+03 0.  0.
         25    1    3    3    0    0 -0.71665270779E+02 -0.47708174030E+02 -0.13914371671E+03  0.20596228515E+03  0.12509000000E+03 0.  0.
<mgrwt>
<rscale>  2 0.44434036E+03</rscale>
<asrwt>0</asrwt>
<pdfrwt beam="1">  1       21 0.10017798E-01 0.44434036E+03</pdfrwt>
<pdfrwt beam="2">  1       21 0.10655687E+00 0.44434036E+03</pdfrwt>
<totfact> 0.52364931E+04</totfact>
</mgrwt>
</event>
<event>
 7    0  0.4705418E-002  0.4588921E+03  0.7546771E-02  0.1025103E+00
         21   -1    0    0  502  501  0.00000000000E+00  0.00000000000E+00  0.65825109904E+03  0.65825109904E+03  0.00000000000E+00 0. -1.
         21   -1    0    0  501  502 -0.00000000000E+00 -0.00000000000E+00 -0.79977809603E+02  0.79977809603E+02  0.00000000000E+00 0. -1.
      99926    2    1    2    0    0  0.71054273576E-14  0.00000000000E+00  0.57827328943E+03  0.73822890864E+03  0.45889206169E+03 0.  0.
      99925    2    3    3    0    0 -0.43563470618E+02 -0.64692983633E+02  0.22270314748E+03  0.35331256442E+03  0.26296410054E+03 0.  0.
         25    1    3    3    0    0  0.43563470618E+02  0.64692983633E+02  0.35557014195E+03  0.38491634422E+03  0.12509000000E+03 0.  0.
         25    1    4    4    0    0 -0.43301129381E+02 -0.50604421096E+02  0.15633615971E+03  0.21100781543E+03  0.12509000000E+03 0.  0.
         25    1    4    4    0    0 -0.26234123628E+00 -0.14088562537E+02  0.66366987770E+02  0.14230474898E+03  0.12509000000E+03 0.  0.
<mgrwt>
<rscale>  2 0.45889206E+03</rscale>
<asrwt>0</asrwt>
<pdfrwt beam="1">  1       21 0.96801629E-01 0.45889206E+03</pdfrwt>
<pdfrwt beam="2">  1       21 0.11761443E-01 0.45889206E+03</pdfrwt>
<totfact> 0.49348603E+04</totfact>
</mgrwt>
</event>
<event>
 7    0  0.4705418E-002  0.5355984E+03  0.7546771E-02  0.1004883E+00
         21   -1    0    0  502  501  0.00000000000E+00  0.00000000000E+00  0.23223884132E+03  0.23223884132E+03  0.00000000000E+00 0. -1.
         21   -1    0    0  501  502 -0.00000000000E+00 -0.00000000000E+00 -0.30880459610E+03  0.30880459610E+03  0.00000000000E+00 0. -1.
      99926    2    1    2    0    0  0.00000000000E+00  0.66613381478E-15 -0.76565754780E+02  0.54104343742E+03  0.53559843761E+03 0.  0.
      99925    2    3    3    0    0 -0.16846570754E+03  0.14414864059E+01  0.13419291778E+02  0.31272876595E+03  0.26312816490E+03 0.  0.
         25    1    3    3    0    0  0.16846570754E+03 -0.14414864059E+01 -0.89985046558E+02  0.22831467146E+03  0.12509000000E+03 0.  0.
         25    1    4    4    0    0 -0.49928713591E+02 -0.27688705219E+02  0.10885760640E+02  0.13793313134E+03  0.12509000000E+03 0.  0.
         25    1    4    4    0    0 -0.11853699395E+03  0.29130191625E+02  0.25335311377E+01  0.17479563461E+03  0.12509000000E+03 0.  0.
<mgrwt>
<rscale>  2 0.53559844E+03</rscale>
<asrwt>0</asrwt>
<pdfrwt beam="1">  1       21 0.34152771E-01 0.53559844E+03</pdfrwt>
<pdfrwt beam="2">  1       21 0.45412440E-01 0.53559844E+03</pdfrwt>
<totfact> 0.34511165E+04</totfact>
</mgrwt>
</event>
<event>
 7    0  0.4705418E-002  0.4565468E+03  0.7546771E-02  0.1025788E+00
         21   -1    0    0  502  501  0.00000000000E+00  0.00000000000E+00  0.32733931513E+03  0.32733931513E+03  0.00000000000E+00 0.  1.
         21   -1    0    0  501  502 -0.00000000000E+00 -0.00000000000E+00 -0.15918879775E+03  0.15918879775E+03  0.00000000000E+00 0.  1.
      99926    2    1    2    0    0 -0.71054273576E-14  0.14210854715E-13  0.16815051738E+03  0.48652811287E+03  0.45654683015E+03 0.  0.
      99925    2    3    3    0    0 -0.41171287042E+02  0.78380731061E+02  0.28152048409E+02  0.27895717730E+03  0.26303223198E+03 0.  0.
         25    1    4    4    0    0  0.18041683435E+01  0.98290384764E+01  0.33508486801E+02  0.12988530251E+03  0.12509000000E+03 0.  0.
         25    1    4    4    0    0 -0.42975455385E+02  0.68551692585E+02 -0.53564383918E+01  0.14907187479E+03  0.12509000000E+03 0.  0.
         25    1    3    3    0    0  0.41171287042E+02 -0.78380731061E+02  0.13999846897E+03  0.20757093557E+03  0.12509000000E+03 0.  0.
<mgrwt>
<rscale>  2 0.45654683E+03</rscale>
<asrwt>0</asrwt>
<pdfrwt beam="1">  1       21 0.48138135E-01 0.45654683E+03</pdfrwt>
<pdfrwt beam="2">  1       21 0.23410117E-01 0.45654683E+03</pdfrwt>
<totfact> 0.65420861E+04</totfact>
</mgrwt>
</event>
<event>
 7    0  0.4705418E-002  0.4543491E+03  0.7546771E-02  0.1026433E+00
         21   -1    0    0  502  501  0.00000000000E+00  0.00000000000E+00  0.89788915164E+02  0.89788915164E+02  0.00000000000E+00 0. -1.
         21   -1    0    0  501  502 -0.00000000000E+00 -0.00000000000E+00 -0.57477327459E+03  0.57477327459E+03  0.00000000000E+00 0. -1.
      99926    2    1    2    0    0  0.17763568394E-14  0.00000000000E+00 -0.48498435942E+03  0.66456218975E+03  0.45434906753E+03 0.  0.
      99925    2    3    3    0    0  0.13435801019E+02 -0.10911542741E+03 -0.27053910908E+03  0.39304612993E+03  0.26307252510E+03 0.  0.
         25    1    3    3    0    0 -0.13435801019E+02  0.10911542741E+03 -0.21444525034E+03  0.27151605982E+03  0.12509000000E+03 0.  0.
         25    1    4    4    0    0  0.13084319995E+02 -0.14283428066E+02 -0.14138247011E+03  0.18976755967E+03  0.12509000000E+03 0.  0.
         25    1    4    4    0    0  0.35148102447E+00 -0.94831999343E+02 -0.12915663897E+03  0.20327857027E+03  0.12509000000E+03 0.  0.
<mgrwt>
<rscale>  2 0.45434907E+03</rscale>
<asrwt>0</asrwt>
<pdfrwt beam="1">  1       21 0.13204251E-01 0.45434907E+03</pdfrwt>
<pdfrwt beam="2">  1       21 0.84525487E-01 0.45434907E+03</pdfrwt>
<totfact> 0.55151856E+04</totfact>
</mgrwt>
</event>
<event>
 7    0  0.4705418E-002  0.4497708E+03  0.7546771E-02  0.1027790E+00
         21   -1    0    0  502  501  0.00000000000E+00  0.00000000000E+00  0.35483713254E+03  0.35483713254E+03  0.00000000000E+00 0. -1.
         21   -1    0    0  501  502 -0.00000000000E+00 -0.00000000000E+00 -0.14252580510E+03  0.14252580510E+03  0.00000000000E+00 0. -1.
      99926    2    1    2    0    0  0.00000000000E+00  0.00000000000E+00  0.21231132744E+03  0.49736293763E+03  0.44977082161E+03 0.  0.
      99925    2    3    3    0    0  0.64398858353E+02 -0.55644902507E+02  0.60550331385E+02  0.28306763634E+03  0.26309195347E+03 0.  0.
         25    1    3    3    0    0 -0.64398858353E+02  0.55644902507E+02  0.15176099606E+03  0.21429530129E+03  0.12509000000E+03 0.  0.
         25    1    4    4    0    0 -0.48325335587E+01 -0.18261248864E+02  0.10077682283E+02  0.12690900035E+03  0.12509000000E+03 0.  0.
         25    1    4    4    0    0  0.69231391912E+02 -0.37383653644E+02  0.50472649101E+02  0.15615863599E+03  0.12509000000E+03 0.  0.
<mgrwt>
<rscale>  2 0.44977082E+03</rscale>
<asrwt>0</asrwt>
<pdfrwt beam="1">  1       21 0.52181931E-01 0.44977082E+03</pdfrwt>
<pdfrwt beam="2">  1       21 0.20959677E-01 0.44977082E+03</pdfrwt>
<totfact> 0.68245444E+04</totfact>
</mgrwt>
</event>
<event>
 7    0  0.4705418E-002  0.4530865E+03  0.7546771E-02  0.1026806E+00
         21   -1    0    0  502  501  0.00000000000E+00  0.00000000000E+00  0.37849226255E+03  0.37849226255E+03  0.00000000000E+00 0.  1.
         21   -1    0    0  501  502 -0.00000000000E+00 -0.00000000000E+00 -0.13559547449E+03  0.13559547449E+03  0.00000000000E+00 0.  1.
      99926    2    1    2    0    0  0.00000000000E+00  0.00000000000E+00  0.24289678806E+03  0.51408773703E+03  0.45308647267E+03 0.  0.
      99925    2    3    3    0    0 -0.10623215289E+03  0.13452686381E+02  0.18790155808E+03  0.34048408356E+03  0.26297560827E+03 0.  0.
         25    1    4    4    0    0 -0.52972886688E+02 -0.32068783809E+02  0.78509046225E+02  0.16014278647E+03  0.12509000000E+03 0.  0.
         25    1    4    4    0    0 -0.53259266205E+02  0.45521470191E+02  0.10939251185E+03  0.18034129709E+03  0.12509000000E+03 0.  0.
         25    1    3    3    0    0  0.10623215289E+03 -0.13452686381E+02  0.54995229981E+02  0.17360365348E+03  0.12509000000E+03 0.  0.
<mgrwt>
<rscale>  2 0.45308647E+03</rscale>
<asrwt>0</asrwt>
<pdfrwt beam="1">  1       21 0.55660627E-01 0.45308647E+03</pdfrwt>
<pdfrwt beam="2">  1       21 0.19940511E-01 0.45308647E+03</pdfrwt>
<totfact> 0.65277412E+04</totfact>
</mgrwt>
</event>
<event>
 7    0  0.4705418E-002  0.4961063E+03  0.7546771E-02  0.1014800E+00
         21   -1    0    0  502  501  0.00000000000E+00  0.00000000000E+00  0.36915482529E+02  0.36915482529E+02  0.00000000000E+00 0. -1.
         21   -1    0    0  501  502 -0.00000000000E+00 -0.00000000000E+00 -0.16667905136E+04  0.16667905136E+04  0.00000000000E+00 0. -1.
      99926    2    1    2    0    0  0.00000000000E+00  0.00000000000E+00 -0.16298750311E+04  0.17037059961E+04  0.49610634378E+03 0.  0.
      99925    2    3    3    0    0  0.84935290238E+02 -0.11354489964E+03 -0.11422856063E+04  0.11807362045E+04  0.26308768570E+03 0.  0.
         25    1    4    4    0    0  0.84308499120E+02 -0.70512841034E+02 -0.64878621969E+03  0.66981419120E+03  0.12509000000E+03 0.  0.
         25    1    3    3    0    0 -0.84935290238E+02  0.11354489964E+03 -0.48758942474E+03  0.52296979165E+03  0.12509000000E+03 0.  0.
         25    1    4    4    0    0  0.62679111816E+00 -0.43032058609E+02 -0.49349938666E+03  0.51092201329E+03  0.12509000000E+03 0.  0.
<mgrwt>
<rscale>  2 0.49610634E+03</rscale>
<asrwt>0</asrwt>
<pdfrwt beam="1">  1       21 0.54287475E-02 0.49610634E+03</pdfrwt>
<pdfrwt beam="2">  1       21 0.24511625E+00 0.49610634E+03</pdfrwt>
<totfact> 0.14114372E+04</totfact>
</mgrwt>
</event>
<event>
 7    0  0.4705418E-002  0.4581769E+03  0.7546771E-02  0.1025311E+00
         21   -1    0    0  502  501  0.00000000000E+00  0.00000000000E+00  0.14618241356E+03  0.14618241356E+03  0.00000000000E+00 0.  1.
         21   -1    0    0  501  502 -0.00000000000E+00 -0.00000000000E+00 -0.35901389688E+03  0.35901389688E+03  0.00000000000E+00 0.  1.
      99926    2    1    2    0    0  0.53290705182E-14 -0.14210854715E-13 -0.21283148332E+03  0.50519631043E+03  0.45817690010E+03 0.  0.
      99925    2    3    3    0    0  0.12937373450E+02 -0.11482561554E+03 -0.14649950717E+03  0.32244036176E+03  0.26297030949E+03 0.  0.
         25    1    3    3    0    0 -0.12937373450E+02  0.11482561554E+03 -0.66331976149E+02  0.18275594868E+03  0.12509000000E+03 0.  0.
         25    1    4    4    0    0  0.35964224905E+02 -0.32437779161E+02 -0.52108931523E+02  0.14390442604E+03  0.12509000000E+03 0.  0.
         25    1    4    4    0    0 -0.23026851455E+02 -0.82387836384E+02 -0.94390575644E+02  0.17853593572E+03  0.12509000000E+03 0.  0.
<mgrwt>
<rscale>  2 0.45817690E+03</rscale>
<asrwt>0</asrwt>
<pdfrwt beam="1">  1       21 0.21497414E-01 0.45817690E+03</pdfrwt>
<pdfrwt beam="2">  1       21 0.52796162E-01 0.45817690E+03</pdfrwt>
<totfact> 0.63295882E+04</totfact>
</mgrwt>
</event>
<event>
 7    0  0.4705418E-002  0.4571129E+03  0.7546771E-02  0.1025622E+00
         21   -1    0    0  502  501  0.00000000000E+00  0.00000000000E+00  0.46174581148E+02  0.46174581148E+02  0.00000000000E+00 0.  1.
         21   -1    0    0  501  502 -0.00000000000E+00 -0.00000000000E+00 -0.11313163532E+04  0.11313163532E+04  0.00000000000E+00 0.  1.
      99926    2    1    2    0    0  0.00000000000E+00  0.00000000000E+00 -0.10851417721E+04  0.11774909344E+04  0.45711293465E+03 0.  0.
      99925    2    3    3    0    0  0.21952701119E+02 -0.10113896994E+03 -0.81145502352E+03  0.85927252390E+03  0.26301901605E+03 0.  0.
         25    1    4    4    0    0 -0.79620818384E+01 -0.88157266084E+02 -0.45345048343E+03  0.47864386273E+03  0.12509000000E+03 0.  0.
         25    1    4    4    0    0  0.29914782958E+02 -0.12981703856E+02 -0.35800454009E+03  0.38062866117E+03  0.12509000000E+03 0.  0.
         25    1    3    3    0    0 -0.21952701119E+02  0.10113896994E+03 -0.27368674853E+03  0.31821841045E+03  0.12509000000E+03 0.  0.
<mgrwt>
<rscale>  2 0.45711293E+03</rscale>
<asrwt>0</asrwt>
<pdfrwt beam="1">  1       21 0.67903786E-02 0.45711293E+03</pdfrwt>
<pdfrwt beam="2">  1       21 0.16637008E+00 0.45711293E+03</pdfrwt>
<totfact> 0.32341896E+04</totfact>
</mgrwt>
</event>
<event>
 7    0  0.4705418E-002  0.4525363E+03  0.7546771E-02  0.1026968E+00
         21   -1    0    0  502  501  0.00000000000E+00  0.00000000000E+00  0.12565372572E+03  0.12565372572E+03  0.00000000000E+00 0. -1.
         21   -1    0    0  501  502 -0.00000000000E+00 -0.00000000000E+00 -0.40744739145E+03  0.40744739145E+03  0.00000000000E+00 0. -1.
      99926    2    1    2    0    0  0.00000000000E+00  0.00000000000E+00 -0.28179366573E+03  0.53310111716E+03  0.45253633122E+03 0.  0.
      99925    2    3    3    0    0 -0.44079841995E+02  0.96092855790E+02 -0.21691976872E+03  0.35693925972E+03  0.26301060752E+03 0.  0.
         25    1    4    4    0    0  0.20349323636E+01  0.68217823915E+02 -0.14340276194E+03  0.20216249079E+03  0.12509000000E+03 0.  0.
         25    1    4    4    0    0 -0.46114774359E+02  0.27875031875E+02 -0.73517006776E+02  0.15477676893E+03  0.12509000000E+03 0.  0.
         25    1    3    3    0    0  0.44079841995E+02 -0.96092855790E+02 -0.64873897012E+02  0.17616185744E+03  0.12509000000E+03 0.  0.
<mgrwt>
<rscale>  2 0.45253633E+03</rscale>
<asrwt>0</asrwt>
<pdfrwt beam="1">  1       21 0.18478489E-01 0.45253633E+03</pdfrwt>
<pdfrwt beam="2">  1       21 0.59918736E-01 0.45253633E+03</pdfrwt>
<totfact> 0.64240805E+04</totfact>
</mgrwt>
</event>
<event>
 7    0  0.4705418E-002  0.4703970E+03  0.7546771E-02  0.1021808E+00
         21   -1    0    0  502  501  0.00000000000E+00  0.00000000000E+00  0.29304429072E+03  0.29304429072E+03  0.00000000000E+00 0.  1.
         21   -1    0    0  501  502 -0.00000000000E+00 -0.00000000000E+00 -0.18877122268E+03  0.18877122268E+03  0.00000000000E+00 0.  1.
      99926    2    1    2    0    0  0.00000000000E+00  0.17763568394E-14  0.10427306805E+03  0.48181551340E+03  0.47039697728E+03 0.  0.
      99925    2    3    3    0    0  0.58752868480E+02 -0.81497246321E+01 -0.50158460172E+02  0.27441512147E+03  0.26319093867E+03 0.  0.
         25    1    4    4    0    0  0.24623336468E+02 -0.27445442112E+02 -0.58770877466E+02  0.14304224946E+03  0.12509000000E+03 0.  0.
         25    1    3    3    0    0 -0.58752868480E+02  0.81497246321E+01  0.15443152822E+03  0.20740039193E+03  0.12509000000E+03 0.  0.
         25    1    4    4    0    0  0.34129532012E+02  0.19295717480E+02  0.86124172934E+01  0.13137287201E+03  0.12509000000E+03 0.  0.
<mgrwt>
<rscale>  2 0.47039698E+03</rscale>
<asrwt>0</asrwt>
<pdfrwt beam="1">  1       21 0.43094749E-01 0.47039698E+03</pdfrwt>
<pdfrwt beam="2">  1       21 0.27760474E-01 0.47039698E+03</pdfrwt>
<totfact> 0.59019164E+04</totfact>
</mgrwt>
</event>
<event>
 7    0  0.4705418E-002  0.4532194E+03  0.7546771E-02  0.1026766E+00
         21   -1    0    0  502  501  0.00000000000E+00  0.00000000000E+00  0.14290537706E+03  0.14290537706E+03  0.00000000000E+00 0.  1.
         21   -1    0    0  501  502 -0.00000000000E+00 -0.00000000000E+00 -0.35934236629E+03  0.35934236629E+03  0.00000000000E+00 0.  1.
      99926    2    1    2    0    0  0.00000000000E+00  0.00000000000E+00 -0.21643698923E+03  0.50224774335E+03  0.45321940094E+03 0.  0.
      99925    2    3    3    0    0  0.96513415630E+02 -0.16266685102E+02 -0.77397290921E+02  0.29115773826E+03  0.26306471346E+03 0.  0.
         25    1    4    4    0    0  0.66618082729E+02  0.59695087045E+01 -0.75352220355E+02  0.16062088654E+03  0.12509000000E+03 0.  0.
         25    1    4    4    0    0  0.29895332901E+02 -0.22236193807E+02 -0.20450705659E+01  0.13053685172E+03  0.12509000000E+03 0.  0.
         25    1    3    3    0    0 -0.96513415630E+02  0.16266685102E+02 -0.13903969831E+03  0.21109000509E+03  0.12509000000E+03 0.  0.
<mgrwt>
<rscale>  2 0.45321940E+03</rscale>
<asrwt>0</asrwt>
<pdfrwt beam="1">  1       21 0.21015497E-01 0.45321940E+03</pdfrwt>
<pdfrwt beam="2">  1       21 0.52844465E-01 0.45321940E+03</pdfrwt>
<totfact> 0.66041522E+04</totfact>
</mgrwt>
</event>
<event>
 7    0  0.4705418E-002  0.4461628E+03  0.7546771E-02  0.1028873E+00
         21   -1    0    0  502  501  0.00000000000E+00  0.00000000000E+00  0.36867954070E+03  0.36867954070E+03  0.00000000000E+00 0. -1.
         21   -1    0    0  501  502 -0.00000000000E+00 -0.00000000000E+00 -0.13498256305E+03  0.13498256305E+03  0.00000000000E+00 0. -1.
      99926    2    1    2    0    0  0.00000000000E+00 -0.71054273576E-14  0.23369697766E+03  0.50366210375E+03  0.44616279248E+03 0.  0.
      99925    2    3    3    0    0 -0.92162996579E+02  0.37249880734E+02  0.18333988488E+03  0.33613623576E+03  0.26361427134E+03 0.  0.
         25    1    3    3    0    0  0.92162996579E+02 -0.37249880734E+02  0.50357092779E+02  0.16752586799E+03  0.12509000000E+03 0.  0.
         25    1    4    4    0    0 -0.31192375991E+02 -0.56981738175E+01  0.12371369072E+03  0.17876805888E+03  0.12509000000E+03 0.  0.
         25    1    4    4    0    0 -0.60970620589E+02  0.42948054552E+02  0.59626194153E+02  0.15736817688E+03  0.12509000000E+03 0.  0.
<mgrwt>
<rscale>  2 0.44616279E+03</rscale>
<asrwt>0</asrwt>
<pdfrwt beam="1">  1       21 0.54217579E-01 0.44616279E+03</pdfrwt>
<pdfrwt beam="2">  1       21 0.19850377E-01 0.44616279E+03</pdfrwt>
<totfact> 0.69781452E+04</totfact>
</mgrwt>
</event>
<event>
 7    0  0.4705418E-002  0.4547006E+03  0.7546771E-02  0.1026329E+00
         21   -1    0    0  502  501  0.00000000000E+00  0.00000000000E+00  0.78303967141E+02  0.78303967141E+02  0.00000000000E+00 0. -1.
         21   -1    0    0  501  502 -0.00000000000E+00 -0.00000000000E+00 -0.66009619436E+03  0.66009619436E+03  0.00000000000E+00 0. -1.
      99926    2    1    2    0    0  0.00000000000E+00  0.00000000000E+00 -0.58179222722E+03  0.73840016150E+03  0.45470056395E+03 0.  0.
      99925    2    3    3    0    0  0.13754670038E+02  0.10474933159E+03 -0.30147249476E+03  0.41376455975E+03  0.26297116266E+03 0.  0.
         25    1    4    4    0    0 -0.14076463629E+02  0.87329789271E+02 -0.14729128299E+03  0.21252498458E+03  0.12509000000E+03 0.  0.
         25    1    4    4    0    0  0.27831133667E+02  0.17419542322E+02 -0.15418121176E+03  0.20123957517E+03  0.12509000000E+03 0.  0.
         25    1    3    3    0    0 -0.13754670038E+02 -0.10474933159E+03 -0.28031973246E+03  0.32463560175E+03  0.12509000000E+03 0.  0.
<mgrwt>
<rscale>  2 0.45470056E+03</rscale>
<asrwt>0</asrwt>
<pdfrwt beam="1">  1       21 0.11515290E-01 0.45470056E+03</pdfrwt>
<pdfrwt beam="2">  1       21 0.97072966E-01 0.45470056E+03</pdfrwt>
<totfact> 0.50987103E+04</totfact>
</mgrwt>
</event>
<event>
 7    0  0.4705418E-002  0.4515644E+03  0.7546771E-02  0.1027257E+00
         21   -1    0    0  502  501  0.00000000000E+00  0.00000000000E+00  0.31739228549E+03  0.31739228549E+03  0.00000000000E+00 0.  1.
         21   -1    0    0  501  502 -0.00000000000E+00 -0.00000000000E+00 -0.16061387450E+03  0.16061387450E+03  0.00000000000E+00 0.  1.
      99926    2    1    2    0    0  0.00000000000E+00 -0.44408920985E-15  0.15677841099E+03  0.47800615999E+03  0.45156441272E+03 0.  0.
      99925    2    3    3    0    0 -0.79189103027E+02  0.37601052616E+01  0.18310058187E+02  0.27525990168E+03  0.26295950793E+03 0.  0.
         25    1    4    4    0    0 -0.38323659722E+02  0.26453177661E+02  0.41379729608E+02  0.13974356381E+03  0.12509000000E+03 0.  0.
         25    1    4    4    0    0 -0.40865443305E+02 -0.22693072399E+02 -0.23069671421E+02  0.13551633787E+03  0.12509000000E+03 0.  0.
         25    1    3    3    0    0  0.79189103027E+02 -0.37601052616E+01  0.13846835280E+03  0.20274625831E+03  0.12509000000E+03 0.  0.
<mgrwt>
<rscale>  2 0.45156441E+03</rscale>
<asrwt>0</asrwt>
<pdfrwt beam="1">  1       21 0.46675336E-01 0.45156441E+03</pdfrwt>
<pdfrwt beam="2">  1       21 0.23619687E-01 0.45156441E+03</pdfrwt>
<totfact> 0.68699924E+04</totfact>
</mgrwt>
</event>
<event>
 7    0  0.4705418E-002  0.4488918E+03  0.7546771E-02  0.1028053E+00
         21   -1    0    0  502  501  0.00000000000E+00  0.00000000000E+00  0.11665262503E+04  0.11665262503E+04  0.00000000000E+00 0. -1.
         21   -1    0    0  501  502 -0.00000000000E+00 -0.00000000000E+00 -0.43184596341E+02  0.43184596341E+02  0.00000000000E+00 0. -1.
      99926    2    1    2    0    0  0.00000000000E+00  0.00000000000E+00  0.11233416540E+04  0.12097108466E+04  0.44889181431E+03 0.  0.
      99925    2    3    3    0    0  0.60089132368E+02 -0.88848930719E+02  0.71062479491E+03  0.76531513316E+03  0.26308709124E+03 0.  0.
         25    1    4    4    0    0 -0.10973905368E+02 -0.37518040891E+02  0.31046913620E+03  0.33699647272E+03  0.12509000000E+03 0.  0.
         25    1    4    4    0    0  0.71063037736E+02 -0.51330889829E+02  0.40015565871E+03  0.42831866044E+03  0.12509000000E+03 0.  0.
         25    1    3    3    0    0 -0.60089132368E+02  0.88848930719E+02  0.41271685904E+03  0.44439571347E+03  0.12509000000E+03 0.  0.
<mgrwt>
<rscale>  2 0.44889181E+03</rscale>
<asrwt>0</asrwt>
<pdfrwt beam="1">  1       21 0.17154796E+00 0.44889181E+03</pdfrwt>
<pdfrwt beam="2">  1       21 0.63506767E-02 0.44889181E+03</pdfrwt>
<totfact> 0.33411229E+04</totfact>
</mgrwt>
</event>
<event>
 7    0  0.4705418E-002  0.4549243E+03  0.7546771E-02  0.1026264E+00
         21   -1    0    0  502  501  0.00000000000E+00  0.00000000000E+00  0.67052816955E+03  0.67052816955E+03  0.00000000000E+00 0. -1.
         21   -1    0    0  501  502 -0.00000000000E+00 -0.00000000000E+00 -0.77161593925E+02  0.77161593925E+02  0.00000000000E+00 0. -1.
      99926    2    1    2    0    0  0.00000000000E+00  0.71054273576E-14  0.59336657562E+03  0.74768976347E+03  0.45492426769E+03 0.  0.
      99925    2    3    3    0    0  0.90186886534E+02  0.62674082993E+02  0.41794338873E+03  0.50585817376E+03  0.26297167262E+03 0.  0.
         25    1    3    3    0    0 -0.90186886534E+02 -0.62674082993E+02  0.17542318689E+03  0.24183158971E+03  0.12509000000E+03 0.  0.
         25    1    4    4    0    0  0.78850073845E+02  0.56802984586E+02  0.25214492182E+03  0.29777253551E+03  0.12509000000E+03 0.  0.
         25    1    4    4    0    0  0.11336812689E+02  0.58710984068E+01  0.16579846691E+03  0.20808563826E+03  0.12509000000E+03 0.  0.
<mgrwt>
<rscale>  2 0.45492427E+03</rscale>
<asrwt>0</asrwt>
<pdfrwt beam="1">  1       21 0.98607081E-01 0.45492427E+03</pdfrwt>
<pdfrwt beam="2">  1       21 0.11347294E-01 0.45492427E+03</pdfrwt>
<totfact> 0.50419014E+04</totfact>
</mgrwt>
</event>
<event>
 7    0  0.4705418E-002  0.4538699E+03  0.7546771E-02  0.1026574E+00
         21   -1    0    0  502  501  0.00000000000E+00  0.00000000000E+00  0.79479357558E+02  0.79479357558E+02  0.00000000000E+00 0.  1.
         21   -1    0    0  501  502 -0.00000000000E+00 -0.00000000000E+00 -0.64796020880E+03  0.64796020880E+03  0.00000000000E+00 0.  1.
      99926    2    1    2    0    0 -0.26645352591E-14  0.00000000000E+00 -0.56848085125E+03  0.72743956636E+03  0.45386985412E+03 0.  0.
      99925    2    3    3    0    0 -0.26952158773E+01  0.16963326082E+02 -0.53559151885E+03  0.59696261474E+03  0.26307996827E+03 0.  0.
         25    1    3    3    0    0  0.26952158773E+01 -0.16963326082E+02 -0.32889332396E+02  0.13047695163E+03  0.12509000000E+03 0.  0.
         25    1    4    4    0    0  0.33338848647E+02  0.11677767077E+02 -0.21989329270E+03  0.25543769758E+03  0.12509000000E+03 0.  0.
         25    1    4    4    0    0 -0.36034064525E+02  0.52855590053E+01 -0.31569822615E+03  0.34152491715E+03  0.12509000000E+03 0.  0.
<mgrwt>
<rscale>  2 0.45386985E+03</rscale>
<asrwt>0</asrwt>
<pdfrwt beam="1">  1       21 0.11688141E-01 0.45386985E+03</pdfrwt>
<pdfrwt beam="2">  1       21 0.95288263E-01 0.45386985E+03</pdfrwt>
<totfact> 0.51898109E+04</totfact>
</mgrwt>
</event>
<event>
 7    0  0.4705418E-002  0.4524293E+03  0.7546771E-02  0.1027000E+00
         21   -1    0    0  502  501  0.00000000000E+00  0.00000000000E+00  0.11536052596E+03  0.11536052596E+03  0.00000000000E+00 0.  1.
         21   -1    0    0  501  502 -0.00000000000E+00 -0.00000000000E+00 -0.44359246131E+03  0.44359246131E+03  0.00000000000E+00 0.  1.
      99926    2    1    2    0    0  0.00000000000E+00  0.00000000000E+00 -0.32823193535E+03  0.55895298727E+03  0.45242926365E+03 0.  0.
      99925    2    3    3    0    0  0.91870422441E+02  0.29230513618E+02 -0.13958019095E+03  0.31292131003E+03  0.26294965130E+03 0.  0.
         25    1    3    3    0    0 -0.91870422441E+02 -0.29230513618E+02 -0.18865174439E+03  0.24603167725E+03  0.12509000000E+03 0.  0.
         25    1    4    4    0    0  0.36076193912E+02 -0.25243497514E+02 -0.63175550236E+02  0.14689242384E+03  0.12509000000E+03 0.  0.
         25    1    4    4    0    0  0.55794228528E+02  0.54474011132E+02 -0.76404640714E+02  0.16602888619E+03  0.12509000000E+03 0.  0.
<mgrwt>
<rscale>  2 0.45242926E+03</rscale>
<asrwt>0</asrwt>
<pdfrwt beam="1">  1       21 0.16964784E-01 0.45242926E+03</pdfrwt>
<pdfrwt beam="2">  1       21 0.65234184E-01 0.45242926E+03</pdfrwt>
<totfact> 0.62540818E+04</totfact>
</mgrwt>
</event>
<event>
 7    0  0.4705418E-002  0.4541517E+03  0.7546771E-02  0.1026491E+00
         21   -1    0    0  502  501  0.00000000000E+00  0.00000000000E+00  0.98736042806E+03  0.98736042806E+03  0.00000000000E+00 0.  1.
         21   -1    0    0  501  502 -0.00000000000E+00 -0.00000000000E+00 -0.52223534955E+02  0.52223534955E+02  0.00000000000E+00 0.  1.
      99926    2    1    2    0    0  0.00000000000E+00  0.00000000000E+00  0.93513689311E+03  0.10395839630E+04  0.45415174481E+03 0.  0.
      99925    2    3    3    0    0 -0.19562042821E+02  0.10979788720E+03  0.62010269854E+03  0.68274744386E+03  0.26301799523E+03 0.  0.
         25    1    4    4    0    0 -0.34865798848E+02  0.21268381033E+02  0.27728943999E+03  0.30692818311E+03  0.12509000000E+03 0.  0.
         25    1    3    3    0    0  0.19562042821E+02 -0.10979788720E+03  0.31503419457E+03  0.35683651915E+03  0.12509000000E+03 0.  0.
         25    1    4    4    0    0  0.15303756027E+02  0.88529506172E+02  0.34281325855E+03  0.37581926075E+03  0.12509000000E+03 0.  0.
<mgrwt>
<rscale>  2 0.45415174E+03</rscale>
<asrwt>0</asrwt>
<pdfrwt beam="1">  1       21 0.14520005E+00 0.45415174E+03</pdfrwt>
<pdfrwt beam="2">  1       21 0.76799322E-02 0.45415174E+03</pdfrwt>
<totfact> 0.37912345E+04</totfact>
</mgrwt>
</event>
<event>
 7    0  0.4705418E-002  0.4509818E+03  0.7546771E-02  0.1027430E+00
         21   -1    0    0  502  501  0.00000000000E+00  0.00000000000E+00  0.10125842920E+04  0.10125842920E+04  0.00000000000E+00 0.  1.
         21   -1    0    0  501  502 -0.00000000000E+00 -0.00000000000E+00 -0.50214241472E+02  0.50214241472E+02  0.00000000000E+00 0.  1.
      99926    2    1    2    0    0  0.00000000000E+00  0.00000000000E+00  0.96237005053E+03  0.10627985335E+04  0.45098182735E+03 0.  0.
      99925    2    3    3    0    0  0.23310468605E+02  0.10676681779E+03  0.61935338174E+03  0.68168113097E+03  0.26296011393E+03 0.  0.
         25    1    3    3    0    0 -0.23310468605E+02 -0.10676681779E+03  0.34301666879E+03  0.38111740251E+03  0.12509000000E+03 0.  0.
         25    1    4    4    0    0 -0.85344844144E+01  0.89304070994E+02  0.31380633500E+03  0.34952822276E+03  0.12509000000E+03 0.  0.
         25    1    4    4    0    0  0.31844953020E+02  0.17462746791E+02  0.30554704674E+03  0.33215290821E+03  0.12509000000E+03 0.  0.
<mgrwt>
<rscale>  2 0.45098183E+03</rscale>
<asrwt>0</asrwt>
<pdfrwt beam="1">  1       21 0.14890944E+00 0.45098183E+03</pdfrwt>
<pdfrwt beam="2">  1       21 0.73844479E-02 0.45098183E+03</pdfrwt>
<totfact> 0.37988610E+04</totfact>
</mgrwt>
</event>
<event>
 7    0  0.4705418E-002  0.4543564E+03  0.7546771E-02  0.1026431E+00
         21   -1    0    0  502  501  0.00000000000E+00  0.00000000000E+00  0.91993158443E+03  0.91993158443E+03  0.00000000000E+00 0.  1.
         21   -1    0    0  501  502 -0.00000000000E+00 -0.00000000000E+00 -0.56101924628E+02  0.56101924628E+02  0.00000000000E+00 0.  1.
      99926    2    1    2    0    0  0.00000000000E+00  0.71054273576E-14  0.86382965980E+03  0.97603350905E+03  0.45435639057E+03 0.  0.
      99925    2    3    3    0    0 -0.91338433723E+02 -0.50522649184E+02  0.45628129550E+03  0.53712756822E+03  0.26347325550E+03 0.  0.
         25    1    4    4    0    0 -0.86602837821E+02 -0.35013298439E+02  0.27610381076E+03  0.31718575788E+03  0.12509000000E+03 0.  0.
         25    1    4    4    0    0 -0.47355959022E+01 -0.15509350746E+02  0.18017748474E+03  0.21994181034E+03  0.12509000000E+03 0.  0.
         25    1    3    3    0    0  0.91338433723E+02  0.50522649184E+02  0.40754836430E+03  0.43890594083E+03  0.12509000000E+03 0.  0.
<mgrwt>
<rscale>  2 0.45435639E+03</rscale>
<asrwt>0</asrwt>
<pdfrwt beam="1">  1       21 0.13528405E+00 0.45435639E+03</pdfrwt>
<pdfrwt beam="2">  1       21 0.82502836E-02 0.45435639E+03</pdfrwt>
<totfact> 0.40306591E+04</totfact>
</mgrwt>
</event>
<event>
 7    0  0.5334721E-002  0.4130817E+03  0.7546771E-02  0.1039342E+00
         21   -1    0    0  502  501  0.00000000000E+00  0.00000000000E+00  0.46181360888E+03  0.46181360888E+03  0.00000000000E+00 0. -1.
         21   -1    0    0  501  502 -0.00000000000E+00 -0.00000000000E+00 -0.92373009407E+02  0.92373009407E+02  0.00000000000E+00 0. -1.
      99926    2    1    2    0    0  0.00000000000E+00 -0.17763568394E-14  0.36944059948E+03  0.55418661829E+03  0.41308165216E+03 0.  0.
      99925    2    3    3    0    0  0.46598128350E+02 -0.11381216884E+02  0.30526644993E+03  0.40563781408E+03  0.26278035142E+03 0.  0.
         25    1    3    3    0    0 -0.46598128350E+02  0.11381216884E+02  0.64174149543E+02  0.14854880421E+03  0.12509000000E+03 0.  0.
         25    1    4    4    0    0 -0.14849423888E+02 -0.19638088325E+02  0.14318396303E+03  0.19171675794E+03  0.12509000000E+03 0.  0.
         25    1    4    4    0    0  0.61447552238E+02  0.82568714407E+01  0.16208248690E+03  0.21392105614E+03  0.12509000000E+03 0.  0.
<mgrwt>
<rscale>  2 0.41308165E+03</rscale>
<asrwt>0</asrwt>
<pdfrwt beam="1">  1       21 0.67913765E-01 0.41308165E+03</pdfrwt>
<pdfrwt beam="2">  1       21 0.13584266E-01 0.41308165E+03</pdfrwt>
<totfact> 0.87065624E+04</totfact>
</mgrwt>
</event>
<event>
 7    0  0.4705418E-002  0.4443411E+03  0.7546771E-02  0.1029423E+00
         21   -1    0    0  502  501  0.00000000000E+00  0.00000000000E+00  0.81396116984E+03  0.81396116984E+03  0.00000000000E+00 0.  1.
         21   -1    0    0  501  502 -0.00000000000E+00 -0.00000000000E+00 -0.60641410078E+02  0.60641410078E+02  0.00000000000E+00 0.  1.
      99926    2    1    2    0    0  0.00000000000E+00 -0.35527136788E-14  0.75331975976E+03  0.87460257992E+03  0.44434109910E+03 0.  0.
      99925    2    3    3    0    0  0.84004391969E+02  0.26905547772E+02  0.58287588046E+03  0.64551903520E+03  0.26300168517E+03 0.  0.
         25    1    4    4    0    0  0.10250181212E+02  0.22083774501E+02  0.33183230996E+03  0.35546160038E+03  0.12509000000E+03 0.  0.
         25    1    4    4    0    0  0.73754210758E+02  0.48217732708E+01  0.25104357051E+03  0.29005743482E+03  0.12509000000E+03 0.  0.
         25    1    3    3    0    0 -0.84004391969E+02 -0.26905547772E+02  0.17044387930E+03  0.22908354472E+03  0.12509000000E+03 0.  0.
<mgrwt>
<rscale>  2 0.44434110E+03</rscale>
<asrwt>0</asrwt>
<pdfrwt beam="1">  1       21 0.11970017E+00 0.44434110E+03</pdfrwt>
<pdfrwt beam="2">  1       21 0.89178549E-02 0.44434110E+03</pdfrwt>
<totfact> 0.48254233E+04</totfact>
</mgrwt>
</event>
<event>
 7    0  0.4705418E-002  0.4524252E+03  0.7546771E-02  0.1027001E+00
         21   -1    0    0  502  501  0.00000000000E+00  0.00000000000E+00  0.35375459188E+03  0.35375459188E+03  0.00000000000E+00 0. -1.
         21   -1    0    0  501  502 -0.00000000000E+00 -0.00000000000E+00 -0.14465434279E+03  0.14465434279E+03  0.00000000000E+00 0. -1.
      99926    2    1    2    0    0  0.00000000000E+00  0.35527136788E-14  0.20910024909E+03  0.49840893467E+03  0.45242518938E+03 0.  0.
      99925    2    3    3    0    0  0.48950644307E+02  0.17918275302E+02  0.23931536317E+03  0.35956480845E+03  0.26324471174E+03 0.  0.
         25    1    4    4    0    0 -0.60697015255E+01  0.21666943989E+02  0.14839570845E+03  0.19538447258E+03  0.12509000000E+03 0.  0.
         25    1    4    4    0    0  0.55020345833E+02 -0.37486686867E+01  0.90919654713E+02  0.16418033587E+03  0.12509000000E+03 0.  0.
         25    1    3    3    0    0 -0.48950644307E+02 -0.17918275302E+02 -0.30215114075E+02  0.13884412622E+03  0.12509000000E+03 0.  0.
<mgrwt>
<rscale>  2 0.45242519E+03</rscale>
<asrwt>0</asrwt>
<pdfrwt beam="1">  1       21 0.52022734E-01 0.45242519E+03</pdfrwt>
<pdfrwt beam="2">  1       21 0.21272697E-01 0.45242519E+03</pdfrwt>
<totfact> 0.66736209E+04</totfact>
</mgrwt>
</event>
<event>
 7    0  0.4705418E-002  0.4609632E+03  0.7546771E-02  0.1024502E+00
         21   -1    0    0  502  501  0.00000000000E+00  0.00000000000E+00  0.16735814419E+03  0.16735814419E+03  0.00000000000E+00 0. -1.
         21   -1    0    0  501  502 -0.00000000000E+00 -0.00000000000E+00 -0.31741364977E+03  0.31741364977E+03  0.00000000000E+00 0. -1.
      99926    2    1    2    0    0 -0.17763568394E-14 -0.14210854715E-13 -0.15005550558E+03  0.48477179396E+03  0.46096316281E+03 0.  0.
      99925    2    3    3    0    0  0.90245118390E+01 -0.11833509381E+03 -0.99710441315E+02  0.30514225898E+03  0.26284023639E+03 0.  0.
         25    1    3    3    0    0 -0.90245118390E+01  0.11833509381E+03 -0.50345064260E+02  0.17962953498E+03  0.12509000000E+03 0.  0.
         25    1    4    4    0    0  0.44316140904E+02 -0.60769841536E+02 -0.57242158300E+02  0.15678350287E+03  0.12509000000E+03 0.  0.
         25    1    4    4    0    0 -0.35291629065E+02 -0.57565252278E+02 -0.42468283015E+02  0.14835875611E+03  0.12509000000E+03 0.  0.
<mgrwt>
<rscale>  2 0.46096316E+03</rscale>
<asrwt>0</asrwt>
<pdfrwt beam="1">  1       21 0.24611492E-01 0.46096316E+03</pdfrwt>
<pdfrwt beam="2">  1       21 0.46678477E-01 0.46096316E+03</pdfrwt>
<totfact> 0.63304424E+04</totfact>
</mgrwt>
</event>
<event>
 7    0  0.4705418E-002  0.4236438E+03  0.7546771E-02  0.1035887E+00
         21   -1    0    0  502  501  0.00000000000E+00  0.00000000000E+00  0.13739605852E+03  0.13739605852E+03  0.00000000000E+00 0.  1.
         21   -1    0    0  501  502 -0.00000000000E+00 -0.00000000000E+00 -0.32656339784E+03  0.32656339784E+03  0.00000000000E+00 0.  1.
      99926    2    1    2    0    0  0.00000000000E+00  0.17763568394E-14 -0.18916733932E+03  0.46395945636E+03  0.42364383022E+03 0.  0.
      99925    2    3    3    0    0  0.66416776276E+02 -0.11536325347E+02 -0.17061418780E+03  0.32065557468E+03  0.26299528802E+03 0.  0.
         25    1    4    4    0    0  0.65827102451E+02 -0.31191907908E+02 -0.95703416477E+02  0.17353038512E+03  0.12509000000E+03 0.  0.
         25    1    3    3    0    0 -0.66416776276E+02  0.11536325347E+02 -0.18553151517E+02  0.14330388168E+03  0.12509000000E+03 0.  0.
         25    1    4    4    0    0  0.58967382505E+00  0.19655582560E+02 -0.74910771327E+02  0.14712518956E+03  0.12509000000E+03 0.  0.
<mgrwt>
<rscale>  2 0.42364383E+03</rscale>
<asrwt>0</asrwt>
<pdfrwt beam="1">  1       21 0.20205303E-01 0.42364383E+03</pdfrwt>
<pdfrwt beam="2">  1       21 0.48024029E-01 0.42364383E+03</pdfrwt>
<totfact> 0.87783790E+04</totfact>
</mgrwt>
</event>
<event>
 7    0  0.4705418E-002  0.4607768E+03  0.7546771E-02  0.1024556E+00
         21   -1    0    0  502  501  0.00000000000E+00  0.00000000000E+00  0.62459834552E+02  0.62459834552E+02  0.00000000000E+00 0.  1.
         21   -1    0    0  501  502 -0.00000000000E+00 -0.00000000000E+00 -0.84980714254E+03  0.84980714254E+03  0.00000000000E+00 0.  1.
      99926    2    1    2    0    0  0.71054273576E-14  0.28421709430E-13 -0.78734730799E+03  0.91226697709E+03  0.46077679423E+03 0.  0.
      99925    2    3    3    0    0  0.50993539984E+02  0.10679902680E+03 -0.50461777262E+03  0.58122336741E+03  0.26301165969E+03 0.  0.
         25    1    4    4    0    0  0.17092246805E+02  0.99954043791E+01 -0.22190413901E+03  0.25550148340E+03  0.12509000000E+03 0.  0.
         25    1    3    3    0    0 -0.50993539984E+02 -0.10679902680E+03 -0.28272953537E+03  0.33104360969E+03  0.12509000000E+03 0.  0.
         25    1    4    4    0    0  0.33901293179E+02  0.96803622416E+02 -0.28271363361E+03  0.32572188401E+03  0.12509000000E+03 0.  0.
<mgrwt>
<rscale>  2 0.46077679E+03</rscale>
<asrwt>0</asrwt>
<pdfrwt beam="1">  1       21 0.91852699E-02 0.46077679E+03</pdfrwt>
<pdfrwt beam="2">  1       21 0.12497164E+00 0.46077679E+03</pdfrwt>
<totfact> 0.40829672E+04</totfact>
</mgrwt>
</event>
<event>
 7    0  0.4705418E-002  0.4600822E+03  0.7546771E-02  0.1024757E+00
         21   -1    0    0  502  501  0.00000000000E+00  0.00000000000E+00  0.30886052980E+02  0.30886052980E+02  0.00000000000E+00 0. -1.
         21   -1    0    0  501  502 -0.00000000000E+00 -0.00000000000E+00 -0.17133593995E+04  0.17133593995E+04  0.00000000000E+00 0. -1.
      99926    2    1    2    0    0  0.00000000000E+00  0.00000000000E+00 -0.16824733465E+04  0.17442454525E+04  0.46008220651E+03 0.  0.
      99925    2    3    3    0    0  0.24866795104E+02 -0.65155095884E+02 -0.14141477375E+04  0.14400914050E+04  0.26303210334E+03 0.  0.
         25    1    3    3    0    0 -0.24866795104E+02  0.65155095884E+02 -0.26832560905E+03  0.30415404747E+03  0.12509000000E+03 0.  0.
         25    1    4    4    0    0  0.20112494437E+02  0.38048494343E+01 -0.56924614558E+03  0.58318750987E+03  0.12509000000E+03 0.  0.
         25    1    4    4    0    0  0.47543006668E+01 -0.68959945319E+02 -0.84490159191E+03  0.85690389516E+03  0.12509000000E+03 0.  0.
<mgrwt>
<rscale>  2 0.46008221E+03</rscale>
<asrwt>0</asrwt>
<pdfrwt beam="1">  1       21 0.45420659E-02 0.46008221E+03</pdfrwt>
<pdfrwt beam="2">  1       21 0.25196465E+00 0.46008221E+03</pdfrwt>
<totfact> 0.17649104E+04</totfact>
</mgrwt>
</event>
<event>
 7    0  0.4705418E-002  0.4474439E+03  0.7546771E-02  0.1028487E+00
         21   -1    0    0  502  501  0.00000000000E+00  0.00000000000E+00  0.13828659914E+03  0.13828659914E+03  0.00000000000E+00 0.  1.
         21   -1    0    0  501  502 -0.00000000000E+00 -0.00000000000E+00 -0.36194049146E+03  0.36194049146E+03  0.00000000000E+00 0.  1.
      99926    2    1    2    0    0  0.00000000000E+00 -0.35527136788E-14 -0.22365389232E+03  0.50022709061E+03  0.44744393909E+03 0.  0.
      99925    2    3    3    0    0 -0.99787479238E+02 -0.27898159087E+02 -0.11673691201E+03  0.30576733366E+03  0.26292642966E+03 0.  0.
         25    1    4    4    0    0 -0.65141651846E+02 -0.88196794753E+00 -0.98290818992E+02  0.17190929548E+03  0.12509000000E+03 0.  0.
         25    1    4    4    0    0 -0.34645827392E+02 -0.27016191139E+02 -0.18446093017E+02  0.13385803819E+03  0.12509000000E+03 0.  0.
         25    1    3    3    0    0  0.99787479238E+02  0.27898159087E+02 -0.10691698031E+03  0.19445975695E+03  0.12509000000E+03 0.  0.
<mgrwt>
<rscale>  2 0.44744394E+03</rscale>
<asrwt>0</asrwt>
<pdfrwt beam="1">  1       21 0.20336265E-01 0.44744394E+03</pdfrwt>
<pdfrwt beam="2">  1       21 0.53226542E-01 0.44744394E+03</pdfrwt>
<totfact> 0.69319808E+04</totfact>
</mgrwt>
</event>
<event>
 7    0  0.4705418E-002  0.4579145E+03  0.7546771E-02  0.1025388E+00
         21   -1    0    0  502  501  0.00000000000E+00  0.00000000000E+00  0.15656527849E+04  0.15656527849E+04  0.00000000000E+00 0. -1.
         21   -1    0    0  501  502 -0.00000000000E+00 -0.00000000000E+00 -0.33482150072E+02  0.33482150072E+02  0.00000000000E+00 0. -1.
      99926    2    1    2    0    0 -0.14210854715E-13  0.00000000000E+00  0.15321706349E+04  0.15991349350E+04  0.45791449641E+03 0.  0.
      99925    2    3    3    0    0 -0.11296520386E+03 -0.18420259333E+02  0.10306679131E+04  0.10697457291E+04  0.26263879134E+03 0.  0.
         25    1    3    3    0    0  0.11296520386E+03  0.18420259333E+02  0.50150272178E+03  0.52938920587E+03  0.12509000000E+03 0.  0.
         25    1    4    4    0    0 -0.31437554046E+02 -0.92884137381E+01  0.60181850412E+03  0.61555472091E+03  0.12509000000E+03 0.  0.
         25    1    4    4    0    0 -0.81527649810E+02 -0.91318455951E+01  0.42884940896E+03  0.45419100823E+03  0.12509000000E+03 0.  0.
<mgrwt>
<rscale>  2 0.45791450E+03</rscale>
<asrwt>0</asrwt>
<pdfrwt beam="1">  1       21 0.23024301E+00 0.45791450E+03</pdfrwt>
<pdfrwt beam="2">  1       21 0.49238466E-02 0.45791450E+03</pdfrwt>
<totfact> 0.20970735E+04</totfact>
</mgrwt>
</event>
<event>
 7    0  0.4705418E-002  0.4392830E+03  0.7546771E-02  0.1030967E+00
         21   -1    0    0  502  501  0.00000000000E+00  0.00000000000E+00  0.13956370901E+03  0.13956370901E+03  0.00000000000E+00 0. -1.
         21   -1    0    0  501  502 -0.00000000000E+00 -0.00000000000E+00 -0.34566571638E+03  0.34566571638E+03  0.00000000000E+00 0. -1.
      99926    2    1    2    0    0  0.00000000000E+00 -0.14210854715E-13 -0.20610200737E+03  0.48522942538E+03  0.43928300424E+03 0.  0.
      99925    2    3    3    0    0 -0.99069161125E+01 -0.96774720135E+02 -0.14388002101E+03  0.31498672472E+03  0.26277686896E+03 0.  0.
         25    1    3    3    0    0  0.99069161125E+01  0.96774720135E+02 -0.62221986362E+02  0.17024270067E+03  0.12509000000E+03 0.  0.
         25    1    4    4    0    0 -0.92903545530E+01 -0.43157179730E+02 -0.26521575033E+02  0.13527658664E+03  0.12509000000E+03 0.  0.
         25    1    4    4    0    0 -0.61656155944E+00 -0.53617540405E+02 -0.11735844597E+03  0.17971013808E+03  0.12509000000E+03 0.  0.
<mgrwt>
<rscale>  2 0.43928300E+03</rscale>
<asrwt>0</asrwt>
<pdfrwt beam="1">  1       21 0.20524075E-01 0.43928300E+03</pdfrwt>
<pdfrwt beam="2">  1       21 0.50833193E-01 0.43928300E+03</pdfrwt>
<totfact> 0.75285192E+04</totfact>
</mgrwt>
</event>
<event>
 7    0  0.4705418E-002  0.4527411E+03  0.7546771E-02  0.1026908E+00
         21   -1    0    0  502  501  0.00000000000E+00  0.00000000000E+00  0.14494066393E+04  0.14494066393E+04  0.00000000000E+00 0. -1.
         21   -1    0    0  501  502 -0.00000000000E+00 -0.00000000000E+00 -0.35354904748E+02  0.35354904748E+02  0.00000000000E+00 0. -1.
      99926    2    1    2    0    0  0.00000000000E+00 -0.71054273576E-14  0.14140517345E+04  0.14847615440E+04  0.45274113430E+03 0.  0.
      99925    2    3    3    0    0 -0.27836799471E+02 -0.46282267811E+02  0.12103975147E+04  0.12397319844E+04  0.26259534253E+03 0.  0.
         25    1    3    3    0    0  0.27836799471E+02  0.46282267811E+02  0.20365421982E+03  0.24502955958E+03  0.12509000000E+03 0.  0.
         25    1    4    4    0    0 -0.11896391367E+01  0.15329737322E+02  0.58588887997E+03  0.59929100099E+03  0.12509000000E+03 0.  0.
         25    1    4    4    0    0 -0.26647160335E+02 -0.61612005133E+02  0.62450863473E+03  0.64044098345E+03  0.12509000000E+03 0.  0.
<mgrwt>
<rscale>  2 0.45274113E+03</rscale>
<asrwt>0</asrwt>
<pdfrwt beam="1">  1       21 0.21314800E+00 0.45274113E+03</pdfrwt>
<pdfrwt beam="2">  1       21 0.51992517E-02 0.45274113E+03</pdfrwt>
<totfact> 0.24583614E+04</totfact>
</mgrwt>
</event>
<event>
 7    0  0.4705418E-002  0.4256329E+03  0.7546771E-02  0.1035248E+00
         21   -1    0    0  502  501  0.00000000000E+00  0.00000000000E+00  0.60610776540E+03  0.60610776540E+03  0.00000000000E+00 0.  1.
         21   -1    0    0  501  502 -0.00000000000E+00 -0.00000000000E+00 -0.74724068499E+02  0.74724068499E+02  0.00000000000E+00 0.  1.
      99926    2    1    2    0    0  0.71054273576E-14  0.00000000000E+00  0.53138369690E+03  0.68083183390E+03  0.42563288491E+03 0.  0.
      99925    2    3    3    0    0 -0.63842289366E+02 -0.12094804328E+02  0.26249901010E+03  0.37723900609E+03  0.26302360199E+03 0.  0.
         25    1    4    4    0    0  0.95868033873E+01 -0.42033130491E+01  0.12773354512E+03  0.17908919925E+03  0.12509000000E+03 0.  0.
         25    1    3    3    0    0  0.63842289366E+02  0.12094804328E+02  0.26888468680E+03  0.30359282781E+03  0.12509000000E+03 0.  0.
         25    1    4    4    0    0 -0.73429092754E+02 -0.78914912789E+01  0.13476546498E+03  0.19814980684E+03  0.12509000000E+03 0.  0.
<mgrwt>
<rscale>  2 0.42563288E+03</rscale>
<asrwt>0</asrwt>
<pdfrwt beam="1">  1       21 0.89133492E-01 0.42563288E+03</pdfrwt>
<pdfrwt beam="2">  1       21 0.10988834E-01 0.42563288E+03</pdfrwt>
<totfact> 0.68466945E+04</totfact>
</mgrwt>
</event>
<event>
 7    0  0.4705418E-002  0.4865300E+03  0.7546771E-02  0.1017356E+00
         21   -1    0    0  502  501  0.00000000000E+00  0.00000000000E+00  0.65561070180E+03  0.65561070180E+03  0.00000000000E+00 0.  1.
         21   -1    0    0  501  502 -0.00000000000E+00 -0.00000000000E+00 -0.90263720387E+02  0.90263720387E+02  0.00000000000E+00 0.  1.
      99926    2    1    2    0    0 -0.71054273576E-14  0.00000000000E+00  0.56534698141E+03  0.74587442218E+03  0.48653000347E+03 0.  0.
      99925    2    3    3    0    0 -0.49732051404E+02 -0.33611537330E+02  0.15160490005E+03  0.30948809064E+03  0.26305098393E+03 0.  0.
         25    1    4    4    0    0  0.76841266540E+00 -0.44641851370E+02  0.58041722699E+02  0.14494769755E+03  0.12509000000E+03 0.  0.
         25    1    4    4    0    0 -0.50500464070E+02  0.11030314039E+02  0.93563177356E+02  0.16454039308E+03  0.12509000000E+03 0.  0.
         25    1    3    3    0    0  0.49732051404E+02  0.33611537330E+02  0.41374208135E+03  0.43638633155E+03  0.12509000000E+03 0.  0.
<mgrwt>
<rscale>  2 0.48653000E+03</rscale>
<asrwt>0</asrwt>
<pdfrwt beam="1">  1       21 0.96413336E-01 0.48653000E+03</pdfrwt>
<pdfrwt beam="2">  1       21 0.13274077E-01 0.48653000E+03</pdfrwt>
<totfact> 0.39689203E+04</totfact>
</mgrwt>
</event>
<event>
 7    0  0.4705418E-002  0.4559692E+03  0.7546771E-02  0.1025957E+00
         21   -1    0    0  502  501  0.00000000000E+00  0.00000000000E+00  0.23149761932E+02  0.23149761932E+02  0.00000000000E+00 0.  1.
         21   -1    0    0  501  502 -0.00000000000E+00 -0.00000000000E+00 -0.22452485626E+04  0.22452485626E+04  0.00000000000E+00 0.  1.
      99926    2    1    2    0    0  0.00000000000E+00  0.00000000000E+00 -0.22220988006E+04  0.22683983245E+04  0.45596916432E+03 0.  0.
      99925    2    3    3    0    0  0.93277397862E+02 -0.37439849924E+02 -0.16636172874E+04  0.16873204261E+04  0.26329702998E+03 0.  0.
         25    1    3    3    0    0 -0.93277397862E+02  0.37439849924E+02 -0.55848151327E+03  0.58107789846E+03  0.12509000000E+03 0.  0.
         25    1    4    4    0    0  0.13456268456E+02 -0.25375534825E+02 -0.62068756699E+03  0.63381823328E+03  0.12509000000E+03 0.  0.
         25    1    4    4    0    0  0.79821129406E+02 -0.12064315099E+02 -0.10429297204E+04  0.10535021928E+04  0.12509000000E+03 0.  0.
<mgrwt>
<rscale>  2 0.45596916E+03</rscale>
<asrwt>0</asrwt>
<pdfrwt beam="1">  1       21 0.34043795E-02 0.45596916E+03</pdfrwt>
<pdfrwt beam="2">  1       21 0.33018335E+00 0.45596916E+03</pdfrwt>
<totfact> 0.97282824E+03</totfact>
</mgrwt>
</event>
<event>
 7    0  0.4705418E-002  0.4477823E+03  0.7546771E-02  0.1028385E+00
         21   -1    0    0  502  501  0.00000000000E+00  0.00000000000E+00  0.50159331531E+03  0.50159331531E+03  0.00000000000E+00 0. -1.
         21   -1    0    0  501  502 -0.00000000000E+00 -0.00000000000E+00 -0.99936014060E+02  0.99936014060E+02  0.00000000000E+00 0. -1.
      99926    2    1    2    0    0  0.00000000000E+00  0.00000000000E+00  0.40165730125E+03  0.60152932937E+03  0.44778225339E+03 0.  0.
      99925    2    3    3    0    0  0.57555373136E+02  0.72012967058E+02  0.18306353213E+03  0.33333307213E+03  0.26286915334E+03 0.  0.
         25    1    4    4    0    0  0.12629633591E+02 -0.25809552689E+01  0.73909979148E+02  0.14586419058E+03  0.12509000000E+03 0.  0.
         25    1    3    3    0    0 -0.57555373136E+02 -0.72012967058E+02  0.21859376912E+03  0.26819625724E+03  0.12509000000E+03 0.  0.
         25    1    4    4    0    0  0.44925739545E+02  0.74593922327E+02  0.10915355299E+03  0.18746888155E+03  0.12509000000E+03 0.  0.
<mgrwt>
<rscale>  2 0.44778225E+03</rscale>
<asrwt>0</asrwt>
<pdfrwt beam="1">  1       21 0.73763722E-01 0.44778225E+03</pdfrwt>
<pdfrwt beam="2">  1       21 0.14696473E-01 0.44778225E+03</pdfrwt>
<totfact> 0.62047494E+04</totfact>
</mgrwt>
</event>
<event>
 7    0  0.4705418E-002  0.4522890E+03  0.7546771E-02  0.1027042E+00
         21   -1    0    0  502  501  0.00000000000E+00  0.00000000000E+00  0.56406848098E+02  0.56406848098E+02  0.00000000000E+00 0. -1.
         21   -1    0    0  501  502 -0.00000000000E+00 -0.00000000000E+00 -0.90665107172E+03  0.90665107172E+03  0.00000000000E+00 0. -1.
      99926    2    1    2    0    0  0.14210854715E-13  0.00000000000E+00 -0.85024422362E+03  0.96305791982E+03  0.45228897524E+03 0.  0.
      99925    2    3    3    0    0  0.93934069277E+02  0.40312096725E+02 -0.62634769777E+03  0.68696765034E+03  0.26299132989E+03 0.  0.
         25    1    4    4    0    0  0.75195073766E+02 -0.64790337579E+01 -0.29397174695E+03  0.32827301610E+03  0.12509000000E+03 0.  0.
         25    1    3    3    0    0 -0.93934069277E+02 -0.40312096725E+02 -0.22389652585E+03  0.27609026948E+03  0.12509000000E+03 0.  0.
         25    1    4    4    0    0  0.18738995512E+02  0.46791130483E+02 -0.33237595082E+03  0.35869463423E+03  0.12509000000E+03 0.  0.
<mgrwt>
<rscale>  2 0.45228898E+03</rscale>
<asrwt>0</asrwt>
<pdfrwt beam="1">  1       21 0.82951248E-02 0.45228898E+03</pdfrwt>
<pdfrwt beam="2">  1       21 0.13333104E+00 0.45228898E+03</pdfrwt>
<totfact> 0.41489017E+04</totfact>
</mgrwt>
</event>
<event>
 7    0  0.4705418E-002  0.4525615E+03  0.7546771E-02  0.1026961E+00
         21   -1    0    0  502  501  0.00000000000E+00  0.00000000000E+00  0.98599195838E+03  0.98599195838E+03  0.00000000000E+00 0. -1.
         21   -1    0    0  501  502 -0.00000000000E+00 -0.00000000000E+00 -0.51930421792E+02  0.51930421792E+02  0.00000000000E+00 0. -1.
      99926    2    1    2    0    0 -0.35527136788E-14  0.66613381478E-15  0.93406153659E+03  0.10379223802E+04  0.45256150204E+03 0.  0.
      99925    2    3    3    0    0 -0.92687498500E+01 -0.19576252460E+01  0.33585146762E+03  0.42670021374E+03  0.26303445038E+03 0.  0.
         25    1    3    3    0    0  0.92687498500E+01  0.19576252460E+01  0.59821006897E+03  0.61122216643E+03  0.12509000000E+03 0.  0.
         25    1    4    4    0    0 -0.41913424273E+02  0.13207050378E+02  0.15693343814E+03  0.20544287143E+03  0.12509000000E+03 0.  0.
         25    1    4    4    0    0  0.32644674423E+02 -0.15164675624E+02  0.17891802948E+03  0.22125734231E+03  0.12509000000E+03 0.  0.
<mgrwt>
<rscale>  2 0.45256150E+03</rscale>
<asrwt>0</asrwt>
<pdfrwt beam="1">  1       21 0.14499881E+00 0.45256150E+03</pdfrwt>
<pdfrwt beam="2">  1       21 0.76368274E-02 0.45256150E+03</pdfrwt>
<totfact> 0.38450429E+04</totfact>
</mgrwt>
</event>
<event>
 7    0  0.4705418E-002  0.4492013E+03  0.7546771E-02  0.1027960E+00
         21   -1    0    0  502  501  0.00000000000E+00  0.00000000000E+00  0.82545504915E+03  0.82545504915E+03  0.00000000000E+00 0. -1.
         21   -1    0    0  501  502 -0.00000000000E+00 -0.00000000000E+00 -0.61112293799E+02  0.61112293799E+02  0.00000000000E+00 0. -1.
      99926    2    1    2    0    0  0.71054273576E-14  0.00000000000E+00  0.76434275535E+03  0.88656734295E+03  0.44920129778E+03 0.  0.
      99925    2    3    3    0    0  0.55084725964E+02 -0.84471090919E+02  0.40984584411E+03  0.49735626857E+03  0.26309684476E+03 0.  0.
         25    1    4    4    0    0  0.68532071316E+01 -0.13615357358E+02  0.22869100285E+03  0.26111190568E+03  0.12509000000E+03 0.  0.
         25    1    3    3    0    0 -0.55084725964E+02  0.84471090919E+02  0.35449691124E+03  0.38921107438E+03  0.12509000000E+03 0.  0.
         25    1    4    4    0    0  0.48231518833E+02 -0.70855733561E+02  0.18115484126E+03  0.23624436289E+03  0.12509000000E+03 0.  0.
<mgrwt>
<rscale>  2 0.44920130E+03</rscale>
<asrwt>0</asrwt>
<pdfrwt beam="1">  1       21 0.12139044E+00 0.44920130E+03</pdfrwt>
<pdfrwt beam="2">  1       21 0.89871025E-02 0.44920130E+03</pdfrwt>
<totfact> 0.45867193E+04</totfact>
</mgrwt>
</event>
<event>
 7    0  0.4705418E-002  0.4561745E+03  0.7546771E-02  0.1025897E+00
         21   -1    0    0  502  501  0.00000000000E+00  0.00000000000E+00  0.10788339282E+04  0.10788339282E+04  0.00000000000E+00 0. -1.
         21   -1    0    0  501  502 -0.00000000000E+00 -0.00000000000E+00 -0.48222236732E+02  0.48222236732E+02  0.00000000000E+00 0. -1.
      99926    2    1    2    0    0  0.71054273576E-14  0.00000000000E+00  0.10306116915E+04  0.11270561649E+04  0.45617446259E+03 0.  0.
      99925    2    3    3    0    0  0.59831779988E+02 -0.91334405251E+02  0.73154530056E+03  0.78498887659E+03  0.26292050915E+03 0.  0.
         25    1    4    4    0    0  0.14905375787E+02 -0.32747471123E+02  0.44625437500E+03  0.46484948359E+03  0.12509000000E+03 0.  0.
         25    1    3    3    0    0 -0.59831779988E+02  0.91334405251E+02  0.29906639092E+03  0.34206728835E+03  0.12509000000E+03 0.  0.
         25    1    4    4    0    0  0.44926404200E+02 -0.58586934128E+02  0.28529092556E+03  0.32013939300E+03  0.12509000000E+03 0.  0.
<mgrwt>
<rscale>  2 0.45617446E+03</rscale>
<asrwt>0</asrwt>
<pdfrwt beam="1">  1       21 0.15865203E+00 0.45617446E+03</pdfrwt>
<pdfrwt beam="2">  1       21 0.70915061E-02 0.45617446E+03</pdfrwt>
<totfact> 0.34243122E+04</totfact>
</mgrwt>
</event>
<event>
 7    0  0.4705418E-002  0.4386017E+03  0.7546771E-02  0.1031177E+00
         21   -1    0    0  502  501  0.00000000000E+00  0.00000000000E+00  0.63481395021E+02  0.63481395021E+02  0.00000000000E+00 0.  1.
         21   -1    0    0  501  502 -0.00000000000E+00 -0.00000000000E+00 -0.75758992770E+03  0.75758992770E+03  0.00000000000E+00 0.  1.
      99926    2    1    2    0    0 -0.71054273576E-14  0.00000000000E+00 -0.69410853268E+03  0.82107132272E+03  0.43860171210E+03 0.  0.
      99925    2    3    3    0    0 -0.48968064149E+02  0.61432604526E+02 -0.55069325457E+03  0.61518959381E+03  0.26272293294E+03 0.  0.
         25    1    4    4    0    0 -0.49160051533E+02  0.49563518764E+02 -0.35281701091E+03  0.38078944884E+03  0.12509000000E+03 0.  0.
         25    1    3    3    0    0  0.48968064149E+02 -0.61432604526E+02 -0.14341527811E+03  0.20588172891E+03  0.12509000000E+03 0.  0.
         25    1    4    4    0    0  0.19198738408E+00  0.11869085762E+02 -0.19787624366E+03  0.23440014497E+03  0.12509000000E+03 0.  0.
<mgrwt>
<rscale>  2 0.43860171E+03</rscale>
<asrwt>0</asrwt>
<pdfrwt beam="1">  1       21 0.93355001E-02 0.43860171E+03</pdfrwt>
<pdfrwt beam="2">  1       21 0.11141027E+00 0.43860171E+03</pdfrwt>
<totfact> 0.53296273E+04</totfact>
</mgrwt>
</event>
<event>
 7    0  0.4705418E-002  0.4801491E+03  0.7546771E-02  0.1019094E+00
         21   -1    0    0  502  501  0.00000000000E+00  0.00000000000E+00  0.13102027734E+03  0.13102027734E+03  0.00000000000E+00 0.  1.
         21   -1    0    0  501  502 -0.00000000000E+00 -0.00000000000E+00 -0.43989979107E+03  0.43989979107E+03  0.00000000000E+00 0.  1.
      99926    2    1    2    0    0  0.00000000000E+00  0.00000000000E+00 -0.30887951374E+03  0.57092006841E+03  0.48014911278E+03 0.  0.
      99925    2    3    3    0    0  0.76653811245E+02  0.72671506570E+02 -0.29097040975E+03  0.40622277410E+03  0.26305172154E+03 0.  0.
         25    1    4    4    0    0  0.65234669951E+02  0.55317160255E+02 -0.19625925237E+03  0.24795312586E+03  0.12509000000E+03 0.  0.
         25    1    3    3    0    0 -0.76653811245E+02 -0.72671506570E+02 -0.17909103989E+02  0.16469729430E+03  0.12509000000E+03 0.  0.
         25    1    4    4    0    0  0.11419141294E+02  0.17354346315E+02 -0.94711157380E+02  0.15826964825E+03  0.12509000000E+03 0.  0.
<mgrwt>
<rscale>  2 0.48014911E+03</rscale>
<asrwt>0</asrwt>
<pdfrwt beam="1">  1       21 0.19267688E-01 0.48014911E+03</pdfrwt>
<pdfrwt beam="2">  1       21 0.64691146E-01 0.48014911E+03</pdfrwt>
<totfact> 0.49827572E+04</totfact>
</mgrwt>
</event>
<event>
 7    0  0.4705418E-002  0.4417098E+03  0.7546771E-02  0.1030223E+00
         21   -1    0    0  502  501  0.00000000000E+00  0.00000000000E+00  0.26649191178E+03  0.26649191178E+03  0.00000000000E+00 0.  1.
         21   -1    0    0  501  502 -0.00000000000E+00 -0.00000000000E+00 -0.18303328135E+03  0.18303328135E+03  0.00000000000E+00 0.  1.
      99926    2    1    2    0    0  0.00000000000E+00  0.00000000000E+00  0.83458630431E+02  0.44952519313E+03  0.44170981001E+03 0.  0.
      99925    2    3    3    0    0 -0.35462510016E+02 -0.85720107125E+02  0.91520206307E+02  0.29358282080E+03  0.26307679130E+03 0.  0.
         25    1    4    4    0    0  0.20000305660E+02 -0.28538094371E+02  0.53813188806E+02  0.14056245034E+03  0.12509000000E+03 0.  0.
         25    1    3    3    0    0  0.35462510016E+02  0.85720107125E+02 -0.80615758756E+01  0.15594237233E+03  0.12509000000E+03 0.  0.
         25    1    4    4    0    0 -0.55462815676E+02 -0.57182012755E+02  0.37707017500E+02  0.15302037045E+03  0.12509000000E+03 0.  0.
<mgrwt>
<rscale>  2 0.44170981E+03</rscale>
<asrwt>0</asrwt>
<pdfrwt beam="1">  1       21 0.39189987E-01 0.44170981E+03</pdfrwt>
<pdfrwt beam="2">  1       21 0.26916659E-01 0.44170981E+03</pdfrwt>
<totfact> 0.76768000E+04</totfact>
</mgrwt>
</event>
<event>
 7    0  0.4705418E-002  0.4461224E+03  0.7546771E-02  0.1028885E+00
         21   -1    0    0  502  501  0.00000000000E+00  0.00000000000E+00  0.83669892601E+02  0.83669892601E+02  0.00000000000E+00 0.  1.
         21   -1    0    0  501  502 -0.00000000000E+00 -0.00000000000E+00 -0.59467377518E+03  0.59467377518E+03  0.00000000000E+00 0.  1.
      99926    2    1    2    0    0  0.00000000000E+00  0.00000000000E+00 -0.51100388258E+03  0.67834366778E+03  0.44612236394E+03 0.  0.
      99925    2    3    3    0    0 -0.37003138230E+02 -0.11774792452E+02 -0.47183988221E+03  0.54163520059E+03  0.26311202576E+03 0.  0.
         25    1    4    4    0    0  0.14699693738E+02 -0.18785444085E+01 -0.17904169677E+03  0.21891333264E+03  0.12509000000E+03 0.  0.
         25    1    3    3    0    0  0.37003138230E+02  0.11774792452E+02 -0.39164000370E+02  0.13670846719E+03  0.12509000000E+03 0.  0.
         25    1    4    4    0    0 -0.51702831968E+02 -0.98962480440E+01 -0.29279818544E+03  0.32272186795E+03  0.12509000000E+03 0.  0.
<mgrwt>
<rscale>  2 0.44612236E+03</rscale>
<asrwt>0</asrwt>
<pdfrwt beam="1">  1       21 0.12304396E-01 0.44612236E+03</pdfrwt>
<pdfrwt beam="2">  1       21 0.87452023E-01 0.44612236E+03</pdfrwt>
<totfact> 0.58047770E+04</totfact>
</mgrwt>
</event>
<event>
 7    0  0.4705418E-002  0.4568052E+03  0.7546771E-02  0.1025712E+00
         21   -1    0    0  502  501  0.00000000000E+00  0.00000000000E+00  0.18101698051E+03  0.18101698051E+03  0.00000000000E+00 0. -1.
         21   -1    0    0  501  502 -0.00000000000E+00 -0.00000000000E+00 -0.28819254015E+03  0.28819254015E+03  0.00000000000E+00 0. -1.
      99926    2    1    2    0    0  0.00000000000E+00  0.00000000000E+00 -0.10717555964E+03  0.46920952065E+03  0.45680518133E+03 0.  0.
      99925    2    3    3    0    0  0.89741674115E+02  0.68116880685E+02 -0.44586372067E+02  0.28960330693E+03  0.26303736104E+03 0.  0.
         25    1    4    4    0    0  0.29711790527E+02  0.61693465265E+02  0.34130099795E+01  0.14264652428E+03  0.12509000000E+03 0.  0.
         25    1    3    3    0    0 -0.89741674115E+02 -0.68116880685E+02 -0.62589187577E+02  0.17960621373E+03  0.12509000000E+03 0.  0.
         25    1    4    4    0    0  0.60029883587E+02  0.64234154199E+01 -0.47999382046E+02  0.14695678265E+03  0.12509000000E+03 0.  0.
<mgrwt>
<rscale>  2 0.45680518E+03</rscale>
<asrwt>0</asrwt>
<pdfrwt beam="1">  1       21 0.26620144E-01 0.45680518E+03</pdfrwt>
<pdfrwt beam="2">  1       21 0.42381256E-01 0.45680518E+03</pdfrwt>
<totfact> 0.66536830E+04</totfact>
</mgrwt>
</event>
<event>
 7    0  0.4705418E-002  0.4576921E+03  0.7546771E-02  0.1025453E+00
         21   -1    0    0  502  501  0.00000000000E+00  0.00000000000E+00  0.11401507582E+03  0.11401507582E+03  0.00000000000E+00 0.  1.
         21   -1    0    0  501  502 -0.00000000000E+00 -0.00000000000E+00 -0.45932969621E+03  0.45932969621E+03  0.00000000000E+00 0.  1.
      99926    2    1    2    0    0 -0.71054273576E-14  0.00000000000E+00 -0.34531462039E+03  0.57334477204E+03  0.45769208052E+03 0.  0.
      99925    2    3    3    0    0 -0.56479459496E+02  0.10090526357E+03 -0.21767469359E+03  0.36048035375E+03  0.26304374474E+03 0.  0.
         25    1    4    4    0    0 -0.42804672148E+02  0.21567771294E+02 -0.13547915109E+03  0.19052432180E+03  0.12509000000E+03 0.  0.
         25    1    4    4    0    0 -0.13674787347E+02  0.79337492276E+02 -0.82195542505E+02  0.16995603195E+03  0.12509000000E+03 0.  0.
         25    1    3    3    0    0  0.56479459496E+02 -0.10090526357E+03 -0.12763992680E+03  0.21286441829E+03  0.12509000000E+03 0.  0.
<mgrwt>
<rscale>  2 0.45769208E+03</rscale>
<asrwt>0</asrwt>
<pdfrwt beam="1">  1       21 0.16766923E-01 0.45769208E+03</pdfrwt>
<pdfrwt beam="2">  1       21 0.67548485E-01 0.45769208E+03</pdfrwt>
<totfact> 0.59081971E+04</totfact>
</mgrwt>
</event>
<event>
 7    0  0.4705418E-002  0.4531240E+03  0.7546771E-02  0.1026795E+00
         21   -1    0    0  502  501  0.00000000000E+00  0.00000000000E+00  0.16952672469E+04  0.16952672469E+04  0.00000000000E+00 0.  1.
         21   -1    0    0  501  502 -0.00000000000E+00 -0.00000000000E+00 -0.30278617996E+02  0.30278617996E+02  0.00000000000E+00 0.  1.
      99926    2    1    2    0    0 -0.11102230246E-15  0.00000000000E+00  0.16649886290E+04  0.17255458649E+04  0.45312404205E+03 0.  0.
      99925    2    3    3    0    0  0.39531019911E+00 -0.44434109898E+02  0.66120487125E+03  0.71302234091E+03  0.26312436315E+03 0.  0.
         25    1    3    3    0    0 -0.39531019911E+00  0.44434109898E+02  0.10037837577E+04  0.10125235240E+04  0.12509000000E+03 0.  0.
         25    1    4    4    0    0  0.15366152185E+02  0.13964639783E+02  0.34930879150E+03  0.37161171903E+03  0.12509000000E+03 0.  0.
         25    1    4    4    0    0 -0.14970841986E+02 -0.58398749680E+02  0.31189607974E+03  0.34141062188E+03  0.12509000000E+03 0.  0.
<mgrwt>
<rscale>  2 0.45312404E+03</rscale>
<asrwt>0</asrwt>
<pdfrwt beam="1">  1       21 0.24930394E+00 0.45312404E+03</pdfrwt>
<pdfrwt beam="2">  1       21 0.44527391E-02 0.45312404E+03</pdfrwt>
<totfact> 0.19010306E+04</totfact>
</mgrwt>
</event>
<event>
 7    0  0.4705418E-002  0.4606161E+03  0.7546771E-02  0.1024603E+00
         21   -1    0    0  502  501  0.00000000000E+00  0.00000000000E+00  0.29301796678E+03  0.29301796678E+03  0.00000000000E+00 0.  1.
         21   -1    0    0  501  502 -0.00000000000E+00 -0.00000000000E+00 -0.18101893312E+03  0.18101893312E+03  0.00000000000E+00 0.  1.
      99926    2    1    2    0    0  0.00000000000E+00 -0.44408920985E-14  0.11199903365E+03  0.47403689990E+03  0.46061610797E+03 0.  0.
      99925    2    3    3    0    0  0.11789542575E+03 -0.61313300531E+01  0.79854616509E+02  0.29905776893E+03  0.26291037401E+03 0.  0.
         25    1    3    3    0    0 -0.11789542575E+03  0.61313300531E+01  0.32144417144E+02  0.17497913097E+03  0.12509000000E+03 0.  0.
         25    1    4    4    0    0  0.42412103861E+02 -0.38670685330E+02  0.49998150022E+02  0.14642927154E+03  0.12509000000E+03 0.  0.
         25    1    4    4    0    0  0.75483321887E+02  0.32539355277E+02  0.29856466486E+02  0.15262849739E+03  0.12509000000E+03 0.  0.
<mgrwt>
<rscale>  2 0.46061611E+03</rscale>
<asrwt>0</asrwt>
<pdfrwt beam="1">  1       21 0.43090877E-01 0.46061611E+03</pdfrwt>
<pdfrwt beam="2">  1       21 0.26620431E-01 0.46061611E+03</pdfrwt>
<totfact> 0.64227137E+04</totfact>
</mgrwt>
</event>
<event>
 7    0  0.4705418E-002  0.4523174E+03  0.7546771E-02  0.1027033E+00
         21   -1    0    0  502  501  0.00000000000E+00  0.00000000000E+00  0.26634803849E+03  0.26634803849E+03  0.00000000000E+00 0.  1.
         21   -1    0    0  501  502 -0.00000000000E+00 -0.00000000000E+00 -0.19203354226E+03  0.19203354226E+03  0.00000000000E+00 0.  1.
      99926    2    1    2    0    0  0.00000000000E+00  0.00000000000E+00  0.74314496239E+02  0.45838158075E+03  0.45231739876E+03 0.  0.
      99925    2    3    3    0    0  0.31230066677E+02  0.99937579210E+02  0.99690849156E+01  0.28302287164E+03  0.26275411779E+03 0.  0.
         25    1    4    4    0    0 -0.12643537559E+02  0.33934443073E+02 -0.20519326255E+02  0.13183306231E+03  0.12509000000E+03 0.  0.
         25    1    3    3    0    0 -0.31230066677E+02 -0.99937579210E+02  0.64345411323E+02  0.17535870911E+03  0.12509000000E+03 0.  0.
         25    1    4    4    0    0  0.43873604235E+02  0.66003136137E+02  0.30488411171E+02  0.15118980933E+03  0.12509000000E+03 0.  0.
<mgrwt>
<rscale>  2 0.45231740E+03</rscale>
<asrwt>0</asrwt>
<pdfrwt beam="1">  1       21 0.39168829E-01 0.45231740E+03</pdfrwt>
<pdfrwt beam="2">  1       21 0.28240227E-01 0.45231740E+03</pdfrwt>
<totfact> 0.69779454E+04</totfact>
</mgrwt>
</event>
<event>
 7    0  0.4705418E-002  0.4550651E+03  0.7546771E-02  0.1026222E+00
         21   -1    0    0  502  501  0.00000000000E+00  0.00000000000E+00  0.44147250398E+03  0.44147250398E+03  0.00000000000E+00 0.  1.
         21   -1    0    0  501  502 -0.00000000000E+00 -0.00000000000E+00 -0.11726903766E+03  0.11726903766E+03  0.00000000000E+00 0.  1.
      99926    2    1    2    0    0  0.00000000000E+00  0.00000000000E+00  0.32420346631E+03  0.55874154164E+03  0.45506507533E+03 0.  0.
      99925    2    3    3    0    0  0.51221909561E+02 -0.73738832084E+02  0.11941725803E+03  0.30252679074E+03  0.26306059801E+03 0.  0.
         25    1    4    4    0    0  0.54612726293E+02 -0.38605315964E+02  0.30615239277E+02  0.14511278810E+03  0.12509000000E+03 0.  0.
         25    1    3    3    0    0 -0.51221909561E+02  0.73738832084E+02  0.20478620828E+03  0.25621475090E+03  0.12509000000E+03 0.  0.
         25    1    4    4    0    0 -0.33908167320E+01 -0.35133516120E+02  0.88802018754E+02  0.15741400264E+03  0.12509000000E+03 0.  0.
<mgrwt>
<rscale>  2 0.45506508E+03</rscale>
<asrwt>0</asrwt>
<pdfrwt beam="1">  1       21 0.64922427E-01 0.45506508E+03</pdfrwt>
<pdfrwt beam="2">  1       21 0.17245447E-01 0.45506508E+03</pdfrwt>
<totfact> 0.61260993E+04</totfact>
</mgrwt>
</event>
<event>
 7    0  0.4705418E-002  0.4565694E+03  0.7546771E-02  0.1025781E+00
         21   -1    0    0  502  501  0.00000000000E+00  0.00000000000E+00  0.90314715074E+02  0.90314715074E+02  0.00000000000E+00 0.  1.
         21   -1    0    0  501  502 -0.00000000000E+00 -0.00000000000E+00 -0.57702555723E+03  0.57702555723E+03  0.00000000000E+00 0.  1.
      99926    2    1    2    0    0 -0.71054273576E-14  0.00000000000E+00 -0.48671084215E+03  0.66734027230E+03  0.45656937607E+03 0.  0.
      99925    2    3    3    0    0 -0.23264414686E+02 -0.61432738432E+02 -0.44318097590E+03  0.51949720788E+03  0.26296911844E+03 0.  0.
         25    1    4    4    0    0 -0.36352909035E+02 -0.25044224052E+02 -0.16240694400E+03  0.20969566213E+03  0.12509000000E+03 0.  0.
         25    1    3    3    0    0  0.23264414686E+02  0.61432738432E+02 -0.43529866253E+02  0.14784306442E+03  0.12509000000E+03 0.  0.
         25    1    4    4    0    0  0.13088494349E+02 -0.36388514380E+02 -0.28077403190E+03  0.30980154575E+03  0.12509000000E+03 0.  0.
<mgrwt>
<rscale>  2 0.45656938E+03</rscale>
<asrwt>0</asrwt>
<pdfrwt beam="1">  1       21 0.13281575E-01 0.45656938E+03</pdfrwt>
<pdfrwt beam="2">  1       21 0.84856702E-01 0.45656938E+03</pdfrwt>
<totfact> 0.54040484E+04</totfact>
</mgrwt>
</event>
<event>
 7    0  0.4705418E-002  0.4538232E+03  0.7546771E-02  0.1026588E+00
         21   -1    0    0  502  501  0.00000000000E+00  0.00000000000E+00  0.13056517450E+03  0.13056517450E+03  0.00000000000E+00 0.  1.
         21   -1    0    0  501  502 -0.00000000000E+00 -0.00000000000E+00 -0.39435382341E+03  0.39435382341E+03  0.00000000000E+00 0.  1.
      99926    2    1    2    0    0 -0.35527136788E-14  0.14210854715E-13 -0.26378864892E+03  0.52491899791E+03  0.45382320684E+03 0.  0.
      99925    2    3    3    0    0 -0.79862421288E+01  0.86952566447E+02 -0.85114708497E+02  0.28997982714E+03  0.26309552956E+03 0.  0.
         25    1    4    4    0    0 -0.31784786096E+02  0.63578622457E+02 -0.20626725287E+02  0.14534608270E+03  0.12509000000E+03 0.  0.
         25    1    4    4    0    0  0.23798543967E+02  0.23373943990E+02 -0.64487983211E+02  0.14463374444E+03  0.12509000000E+03 0.  0.
         25    1    3    3    0    0  0.79862421288E+01 -0.86952566447E+02 -0.17867394042E+03  0.23493917077E+03  0.12509000000E+03 0.  0.
<mgrwt>
<rscale>  2 0.45382321E+03</rscale>
<asrwt>0</asrwt>
<pdfrwt beam="1">  1       21 0.19200761E-01 0.45382321E+03</pdfrwt>
<pdfrwt beam="2">  1       21 0.57993210E-01 0.45382321E+03</pdfrwt>
<totfact> 0.64148111E+04</totfact>
</mgrwt>
</event>
<event>
 7    0  0.4705418E-002  0.4799606E+03  0.7546771E-02  0.1019146E+00
         21   -1    0    0  502  501  0.00000000000E+00  0.00000000000E+00  0.76644977953E+03  0.76644977953E+03  0.00000000000E+00 0.  1.
         21   -1    0    0  501  502 -0.00000000000E+00 -0.00000000000E+00 -0.75139365998E+02  0.75139365998E+02  0.00000000000E+00 0.  1.
      99926    2    1    2    0    0  0.00000000000E+00  0.00000000000E+00  0.69131041354E+03  0.84158914553E+03  0.47996062548E+03 0.  0.
      99925    2    3    3    0    0  0.64294231196E+02 -0.92835866170E+02  0.29569528930E+03  0.41157626103E+03  0.26307236327E+03 0.  0.
         25    1    3    3    0    0 -0.64294231196E+02  0.92835866170E+02  0.39561512423E+03  0.43001288450E+03  0.12509000000E+03 0.  0.
         25    1    4    4    0    0  0.28210603225E+01 -0.14402647557E+02  0.11945161759E+03  0.17358453757E+03  0.12509000000E+03 0.  0.
         25    1    4    4    0    0  0.61473170873E+02 -0.78433218613E+02  0.17624367172E+03  0.23799172347E+03  0.12509000000E+03 0.  0.
<mgrwt>
<rscale>  2 0.47996063E+03</rscale>
<asrwt>0</asrwt>
<pdfrwt beam="1">  1       21 0.11271320E+00 0.47996063E+03</pdfrwt>
<pdfrwt beam="2">  1       21 0.11049907E-01 0.47996063E+03</pdfrwt>
<totfact> 0.37844355E+04</totfact>
</mgrwt>
</event>
<event>
 7    0  0.4705418E-002  0.4600302E+03  0.7546771E-02  0.1024772E+00
         21   -1    0    0  502  501  0.00000000000E+00  0.00000000000E+00  0.54439941358E+02  0.54439941358E+02  0.00000000000E+00 0. -1.
         21   -1    0    0  501  502 -0.00000000000E+00 -0.00000000000E+00 -0.97184058016E+03  0.97184058016E+03  0.00000000000E+00 0. -1.
      99926    2    1    2    0    0  0.00000000000E+00  0.00000000000E+00 -0.91740063880E+03  0.10262805215E+04  0.46003019116E+03 0.  0.
      99925    2    3    3    0    0  0.38072333347E+02 -0.90339402480E+02 -0.42887115647E+03  0.51254978134E+03  0.26299448527E+03 0.  0.
         25    1    3    3    0    0 -0.38072333347E+02  0.90339402480E+02 -0.48852948232E+03  0.51373074018E+03  0.12509000000E+03 0.  0.
         25    1    4    4    0    0  0.54238750877E+02 -0.24979628397E+02 -0.21115419581E+03  0.25258548343E+03  0.12509000000E+03 0.  0.
         25    1    4    4    0    0 -0.16166417530E+02 -0.65359774083E+02 -0.21771696066E+03  0.25996429790E+03  0.12509000000E+03 0.  0.
<mgrwt>
<rscale>  2 0.46003019E+03</rscale>
<asrwt>0</asrwt>
<pdfrwt beam="1">  1       21 0.80058743E-02 0.46003019E+03</pdfrwt>
<pdfrwt beam="2">  1       21 0.14291772E+00 0.46003019E+03</pdfrwt>
<totfact> 0.36697437E+04</totfact>
</mgrwt>
</event>
<event>
 7    0  0.4705418E-002  0.4543011E+03  0.7546771E-02  0.1026447E+00
         21   -1    0    0  502  501  0.00000000000E+00  0.00000000000E+00  0.22824593562E+03  0.22824593562E+03  0.00000000000E+00 0.  1.
         21   -1    0    0  501  502 -0.00000000000E+00 -0.00000000000E+00 -0.22606040537E+03  0.22606040537E+03  0.00000000000E+00 0.  1.
      99926    2    1    2    0    0  0.00000000000E+00  0.00000000000E+00  0.21855302500E+01  0.45430634099E+03  0.45430108400E+03 0.  0.
      99925    2    3    3    0    0 -0.38843579944E+02 -0.64786583974E+02  0.84727168494E+02  0.28647679857E+03  0.26302877764E+03 0.  0.
         25    1    4    4    0    0  0.63212383963E+00 -0.22075765463E+02  0.76500899502E+02  0.14828228055E+03  0.12509000000E+03 0.  0.
         25    1    4    4    0    0 -0.39475703784E+02 -0.42710818511E+02  0.82262689912E+01  0.13819451801E+03  0.12509000000E+03 0.  0.
         25    1    3    3    0    0  0.38843579944E+02  0.64786583974E+02 -0.82541638244E+02  0.16782954242E+03  0.12509000000E+03 0.  0.
<mgrwt>
<rscale>  2 0.45430108E+03</rscale>
<asrwt>0</asrwt>
<pdfrwt beam="1">  1       21 0.33565579E-01 0.45430108E+03</pdfrwt>
<pdfrwt beam="2">  1       21 0.33244177E-01 0.45430108E+03</pdfrwt>
<totfact> 0.68980513E+04</totfact>
</mgrwt>
</event>
<event>
 7    0  0.4705418E-002  0.4532133E+03  0.7546771E-02  0.1026768E+00
         21   -1    0    0  502  501  0.00000000000E+00  0.00000000000E+00  0.27438565179E+04  0.27438565179E+04  0.00000000000E+00 0.  1.
         21   -1    0    0  501  502 -0.00000000000E+00 -0.00000000000E+00 -0.18714745134E+02  0.18714745134E+02  0.00000000000E+00 0.  1.
      99926    2    1    2    0    0  0.00000000000E+00  0.00000000000E+00  0.27251417728E+04  0.27625712630E+04  0.45321330703E+03 0.  0.
      99925    2    3    3    0    0  0.35897500369E+02  0.23401753302E+02  0.10920682900E+04  0.11241534956E+04  0.26319509674E+03 0.  0.
         25    1    3    3    0    0 -0.35897500369E+02 -0.23401753302E+02  0.16330734827E+04  0.16384177674E+04  0.12509000000E+03 0.  0.
         25    1    4    4    0    0  0.17024513616E+02  0.24881196519E+02  0.38715839846E+03  0.40798044267E+03  0.12509000000E+03 0.  0.
         25    1    4    4    0    0  0.18872986753E+02 -0.14794432174E+01  0.70490989158E+03  0.71617305292E+03  0.12509000000E+03 0.  0.
<mgrwt>
<rscale>  2 0.45321331E+03</rscale>
<asrwt>0</asrwt>
<pdfrwt beam="1">  1       21 0.40350803E+00 0.45321331E+03</pdfrwt>
<pdfrwt beam="2">  1       21 0.27521703E-02 0.45321331E+03</pdfrwt>
<totfact> 0.48685399E+03</totfact>
</mgrwt>
</event>
<event>
 7    0  0.4705418E-002  0.4542894E+03  0.7546771E-02  0.1026451E+00
         21   -1    0    0  502  501  0.00000000000E+00  0.00000000000E+00  0.68272301634E+03  0.68272301634E+03  0.00000000000E+00 0. -1.
         21   -1    0    0  501  502 -0.00000000000E+00 -0.00000000000E+00 -0.75571949009E+02  0.75571949009E+02  0.00000000000E+00 0. -1.
      99926    2    1    2    0    0  0.00000000000E+00  0.00000000000E+00  0.60715106734E+03  0.75829496535E+03  0.45428937464E+03 0.  0.
      99925    2    3    3    0    0 -0.79315867600E+02  0.79705118763E+02  0.37439630942E+03  0.47112568036E+03  0.26295037056E+03 0.  0.
         25    1    4    4    0    0 -0.58440849342E+02  0.12922514896E+02  0.22336602779E+03  0.26291103958E+03  0.12509000000E+03 0.  0.
         25    1    4    4    0    0 -0.20875018259E+02  0.66782603867E+02  0.15103028164E+03  0.20821464079E+03  0.12509000000E+03 0.  0.
         25    1    3    3    0    0  0.79315867600E+02 -0.79705118763E+02  0.23275475791E+03  0.28716928499E+03  0.12509000000E+03 0.  0.
<mgrwt>
<rscale>  2 0.45428937E+03</rscale>
<asrwt>0</asrwt>
<pdfrwt beam="1">  1       21 0.10040044E+00 0.45428937E+03</pdfrwt>
<pdfrwt beam="2">  1       21 0.11113522E-01 0.45428937E+03</pdfrwt>
<totfact> 0.50126708E+04</totfact>
</mgrwt>
</event>
<event>
 7    0  0.4705418E-002  0.4544795E+03  0.7546771E-02  0.1026395E+00
         21   -1    0    0  502  501  0.00000000000E+00  0.00000000000E+00  0.16618097119E+03  0.16618097119E+03  0.00000000000E+00 0. -1.
         21   -1    0    0  501  502 -0.00000000000E+00 -0.00000000000E+00 -0.31073293512E+03  0.31073293512E+03  0.00000000000E+00 0. -1.
      99926    2    1    2    0    0  0.44408920985E-15  0.88817841970E-15 -0.14455196393E+03  0.47691390631E+03  0.45447948661E+03 0.  0.
      99925    2    3    3    0    0 -0.24745779861E+01 -0.56494236579E+01  0.27147862874E+02  0.26439007670E+03  0.26292026676E+03 0.  0.
         25    1    4    4    0    0 -0.40580945248E+02  0.20908026566E+01  0.56698990192E+01  0.13164664989E+03  0.12509000000E+03 0.  0.
         25    1    3    3    0    0  0.24745779861E+01  0.56494236579E+01 -0.17169982681E+03  0.21252382961E+03  0.12509000000E+03 0.  0.
         25    1    4    4    0    0  0.38106367262E+02 -0.77402263145E+01  0.21477963855E+02  0.13274342681E+03  0.12509000000E+03 0.  0.
<mgrwt>
<rscale>  2 0.45447949E+03</rscale>
<asrwt>0</asrwt>
<pdfrwt beam="1">  1       21 0.24438378E-01 0.45447949E+03</pdfrwt>
<pdfrwt beam="2">  1       21 0.45696019E-01 0.45447949E+03</pdfrwt>
<totfact> 0.67202628E+04</totfact>
</mgrwt>
</event>
<event>
 7    0  0.4705418E-002  0.4571130E+03  0.7546771E-02  0.1025622E+00
         21   -1    0    0  502  501  0.00000000000E+00  0.00000000000E+00  0.79525892637E+02  0.79525892637E+02  0.00000000000E+00 0. -1.
         21   -1    0    0  501  502 -0.00000000000E+00 -0.00000000000E+00 -0.65686887621E+03  0.65686887621E+03  0.00000000000E+00 0. -1.
      99926    2    1    2    0    0  0.14210854715E-13  0.71054273576E-14 -0.57734298357E+03  0.73639476884E+03  0.45711304390E+03 0.  0.
      99925    2    3    3    0    0  0.86533333967E+02  0.58163249636E+02 -0.27763819725E+03  0.39530614614E+03  0.26136755557E+03 0.  0.
         25    1    3    3    0    0 -0.86533333967E+02 -0.58163249636E+02 -0.29970478632E+03  0.34108862271E+03  0.12509000000E+03 0.  0.
         25    1    4    4    0    0  0.36680380124E+02 -0.24586076913E+01 -0.10007661183E+03  0.16436037044E+03  0.12509000000E+03 0.  0.
         25    1    4    4    0    0  0.49852953842E+02  0.60621857327E+02 -0.17756158542E+03  0.23094577569E+03  0.12509000000E+03 0.  0.
<mgrwt>
<rscale>  2 0.45711304E+03</rscale>
<asrwt>0</asrwt>
<pdfrwt beam="1">  1       21 0.11694985E-01 0.45711304E+03</pdfrwt>
<pdfrwt beam="2">  1       21 0.96598359E-01 0.45711304E+03</pdfrwt>
<totfact> 0.50133040E+04</totfact>
</mgrwt>
</event>
<event>
 7    0  0.4705418E-002  0.4712414E+03  0.7546771E-02  0.1021570E+00
         21   -1    0    0  502  501  0.00000000000E+00  0.00000000000E+00  0.31409533279E+02  0.31409533279E+02  0.00000000000E+00 0.  1.
         21   -1    0    0  501  502 -0.00000000000E+00 -0.00000000000E+00 -0.17675243506E+04  0.17675243506E+04  0.00000000000E+00 0.  1.
      99926    2    1    2    0    0 -0.17763568394E-14  0.00000000000E+00 -0.17361148174E+04  0.17989338839E+04  0.47124140274E+03 0.  0.
      99925    2    3    3    0    0 -0.10388367093E+02  0.12655701051E+03 -0.10206112290E+04  0.10615618691E+04  0.26294814362E+03 0.  0.
         25    1    4    4    0    0  0.18234859124E+02  0.60274501478E+02 -0.38311824908E+03  0.40791252309E+03  0.12509000000E+03 0.  0.
         25    1    4    4    0    0 -0.28623226217E+02  0.66282509030E+02 -0.63749297988E+03  0.65364934604E+03  0.12509000000E+03 0.  0.
         25    1    3    3    0    0  0.10388367093E+02 -0.12655701051E+03 -0.71550358841E+03  0.73737201480E+03  0.12509000000E+03 0.  0.
<mgrwt>
<rscale>  2 0.47124140E+03</rscale>
<asrwt>0</asrwt>
<pdfrwt beam="1">  1       21 0.46190484E-02 0.47124140E+03</pdfrwt>
<pdfrwt beam="2">  1       21 0.25993008E+00 0.47124140E+03</pdfrwt>
<totfact> 0.15262843E+04</totfact>
</mgrwt>
</event>
<event>
 7    0  0.4705418E-002  0.4425696E+03  0.7546771E-02  0.1029961E+00
         21   -1    0    0  502  501  0.00000000000E+00  0.00000000000E+00  0.39283336868E+03  0.39283336868E+03  0.00000000000E+00 0.  1.
         21   -1    0    0  501  502 -0.00000000000E+00 -0.00000000000E+00 -0.12465073662E+03  0.12465073662E+03  0.00000000000E+00 0.  1.
      99926    2    1    2    0    0  0.00000000000E+00  0.14210854715E-13  0.26818263207E+03  0.51748410530E+03  0.44256962740E+03 0.  0.
      99925    2    3    3    0    0  0.43764229518E+02 -0.79702015092E+02  0.22247150203E+03  0.35622426993E+03  0.26293429269E+03 0.  0.
         25    1    4    4    0    0  0.18810229548E+02 -0.18560360784E+02  0.15063417821E+03  0.19757650537E+03  0.12509000000E+03 0.  0.
         25    1    4    4    0    0  0.24953999971E+02 -0.61141654307E+02  0.71837323823E+02  0.15864776456E+03  0.12509000000E+03 0.  0.
         25    1    3    3    0    0 -0.43764229518E+02  0.79702015092E+02  0.45711130034E+02  0.16125983537E+03  0.12509000000E+03 0.  0.
<mgrwt>
<rscale>  2 0.44256963E+03</rscale>
<asrwt>0</asrwt>
<pdfrwt beam="1">  1       21 0.57769613E-01 0.44256963E+03</pdfrwt>
<pdfrwt beam="2">  1       21 0.18330991E-01 0.44256963E+03</pdfrwt>
<totfact> 0.70781485E+04</totfact>
</mgrwt>
</event>
<event>
 7    0  0.4705418E-002  0.4572586E+03  0.7546771E-02  0.1025579E+00
         21   -1    0    0  502  501  0.00000000000E+00  0.00000000000E+00  0.50060810094E+02  0.50060810094E+02  0.00000000000E+00 0.  1.
         21   -1    0    0  501  502 -0.00000000000E+00 -0.00000000000E+00 -0.10441573848E+04  0.10441573848E+04  0.00000000000E+00 0.  1.
      99926    2    1    2    0    0  0.00000000000E+00  0.00000000000E+00 -0.99409657474E+03  0.10942181949E+04  0.45725863382E+03 0.  0.
      99925    2    3    3    0    0  0.67572070609E+02  0.89990765164E+02 -0.68393892346E+03  0.74135901722E+03  0.26301410391E+03 0.  0.
         25    1    4    4    0    0  0.59667158115E+02  0.55799687670E+02 -0.28481449326E+03  0.32162179430E+03  0.12509000000E+03 0.  0.
         25    1    4    4    0    0  0.79049124943E+01  0.34191077494E+02 -0.39912443020E+03  0.41973722292E+03  0.12509000000E+03 0.  0.
         25    1    3    3    0    0 -0.67572070609E+02 -0.89990765164E+02 -0.31015765128E+03  0.35285917770E+03  0.12509000000E+03 0.  0.
<mgrwt>
<rscale>  2 0.45725863E+03</rscale>
<asrwt>0</asrwt>
<pdfrwt beam="1">  1       21 0.73618843E-02 0.45725863E+03</pdfrwt>
<pdfrwt beam="2">  1       21 0.15355255E+00 0.45725863E+03</pdfrwt>
<totfact> 0.35073288E+04</totfact>
</mgrwt>
</event>
<event>
 7    0  0.4705418E-002  0.4532458E+03  0.7546771E-02  0.1026759E+00
         21   -1    0    0  502  501  0.00000000000E+00  0.00000000000E+00  0.31568209364E+03  0.31568209364E+03  0.00000000000E+00 0. -1.
         21   -1    0    0  501  502 -0.00000000000E+00 -0.00000000000E+00 -0.16268876198E+03  0.16268876198E+03  0.00000000000E+00 0. -1.
      99926    2    1    2    0    0  0.14210854715E-13  0.00000000000E+00  0.15299333166E+03  0.47837085561E+03  0.45324575670E+03 0.  0.
      99925    2    3    3    0    0 -0.98389640677E+02 -0.35679551030E+02  0.55305615844E+02  0.28825523375E+03  0.26282849330E+03 0.  0.
         25    1    3    3    0    0  0.98389640677E+02  0.35679551030E+02  0.97687715814E+02  0.19011562186E+03  0.12509000000E+03 0.  0.
         25    1    4    4    0    0 -0.62859146228E+01 -0.14211662064E+02  0.22501501931E+02  0.12804417109E+03  0.12509000000E+03 0.  0.
         25    1    4    4    0    0 -0.92103726054E+02 -0.21467888966E+02  0.32804113912E+02  0.16021106266E+03  0.12509000000E+03 0.  0.
<mgrwt>
<rscale>  2 0.45324576E+03</rscale>
<asrwt>0</asrwt>
<pdfrwt beam="1">  1       21 0.46423837E-01 0.45324576E+03</pdfrwt>
<pdfrwt beam="2">  1       21 0.23924818E-01 0.45324576E+03</pdfrwt>
<totfact> 0.67757423E+04</totfact>
</mgrwt>
</event>
<event>
 7    0  0.4705418E-002  0.4550881E+03  0.7546771E-02  0.1026216E+00
         21   -1    0    0  502  501  0.00000000000E+00  0.00000000000E+00  0.10093641987E+04  0.10093641987E+04  0.00000000000E+00 0. -1.
         21   -1    0    0  501  502 -0.00000000000E+00 -0.00000000000E+00 -0.51295941893E+02  0.51295941893E+02  0.00000000000E+00 0. -1.
      99926    2    1    2    0    0  0.00000000000E+00  0.14210854715E-13  0.95806825679E+03  0.10606601406E+04  0.45508806745E+03 0.  0.
      99925    2    3    3    0    0  0.37931141007E+02  0.67416007516E+02  0.41166349123E+03  0.49480736339E+03  0.26340806237E+03 0.  0.
         25    1    4    4    0    0  0.53030829594E+02  0.35629629038E+02  0.17090232568E+03  0.22121675428E+03  0.12509000000E+03 0.  0.
         25    1    4    4    0    0 -0.15099688587E+02  0.31786378478E+02  0.24076116555E+03  0.27359060910E+03  0.12509000000E+03 0.  0.
         25    1    3    3    0    0 -0.37931141007E+02 -0.67416007516E+02  0.54640476556E+03  0.56585277719E+03  0.12509000000E+03 0.  0.
<mgrwt>
<rscale>  2 0.45508807E+03</rscale>
<asrwt>0</asrwt>
<pdfrwt beam="1">  1       21 0.14843590E+00 0.45508807E+03</pdfrwt>
<pdfrwt beam="2">  1       21 0.75435215E-02 0.45508807E+03</pdfrwt>
<totfact> 0.36863312E+04</totfact>
</mgrwt>
</event>
<event>
 7    0  0.4705418E-002  0.4545524E+03  0.7546771E-02  0.1026373E+00
         21   -1    0    0  502  501  0.00000000000E+00  0.00000000000E+00  0.61519469639E+03  0.61519469639E+03  0.00000000000E+00 0.  1.
         21   -1    0    0  501  502 -0.00000000000E+00 -0.00000000000E+00 -0.83964412212E+02  0.83964412212E+02  0.00000000000E+00 0.  1.
      99926    2    1    2    0    0  0.14210854715E-13 -0.71054273576E-14  0.53123028418E+03  0.69915910860E+03  0.45455235596E+03 0.  0.
      99925    2    3    3    0    0  0.71773827980E+02 -0.53839553151E+02  0.43963873994E+03  0.52003150341E+03  0.26286947905E+03 0.  0.
         25    1    4    4    0    0  0.63460140550E+02 -0.12068686357E+02  0.27481275835E+03  0.30877565138E+03  0.12509000000E+03 0.  0.
         25    1    4    4    0    0  0.83136874306E+01 -0.41770866794E+02  0.16482598158E+03  0.21125585203E+03  0.12509000000E+03 0.  0.
         25    1    3    3    0    0 -0.71773827980E+02  0.53839553151E+02  0.91591544237E+02  0.17912760519E+03  0.12509000000E+03 0.  0.
<mgrwt>
<rscale>  2 0.45455236E+03</rscale>
<asrwt>0</asrwt>
<pdfrwt beam="1">  1       21 0.90469806E-01 0.45455236E+03</pdfrwt>
<pdfrwt beam="2">  1       21 0.12347708E-01 0.45455236E+03</pdfrwt>
<totfact> 0.53135585E+04</totfact>
</mgrwt>
</event>
<event>
 7    0  0.4705418E-002  0.4453250E+03  0.7546771E-02  0.1029125E+00
         21   -1    0    0  502  501  0.00000000000E+00  0.00000000000E+00  0.96776558936E+02  0.96776558936E+02  0.00000000000E+00 0.  1.
         21   -1    0    0  501  502 -0.00000000000E+00 -0.00000000000E+00 -0.51229959800E+03  0.51229959800E+03  0.00000000000E+00 0.  1.
      99926    2    1    2    0    0  0.00000000000E+00  0.00000000000E+00 -0.41552303906E+03  0.60907615694E+03  0.44532501497E+03 0.  0.
      99925    2    3    3    0    0  0.46717365908E+02 -0.61564574874E+02 -0.16910927574E+03  0.32212675371E+03  0.26304940440E+03 0.  0.
         25    1    4    4    0    0 -0.50520520298E+01 -0.38503899807E+02 -0.11574729755E+03  0.17479421764E+03  0.12509000000E+03 0.  0.
         25    1    3    3    0    0 -0.46717365908E+02  0.61564574874E+02 -0.24641376333E+03  0.28694940323E+03  0.12509000000E+03 0.  0.
         25    1    4    4    0    0  0.51769417938E+02 -0.23060675066E+02 -0.53361978188E+02  0.14733253607E+03  0.12509000000E+03 0.  0.
<mgrwt>
<rscale>  2 0.44532501E+03</rscale>
<asrwt>0</asrwt>
<pdfrwt beam="1">  1       21 0.14231847E-01 0.44532501E+03</pdfrwt>
<pdfrwt beam="2">  1       21 0.75338175E-01 0.44532501E+03</pdfrwt>
<totfact> 0.62785297E+04</totfact>
</mgrwt>
</event>
<event>
 7    0  0.4705418E-002  0.4629278E+03  0.7546771E-02  0.1023935E+00
         21   -1    0    0  502  501  0.00000000000E+00  0.00000000000E+00  0.22282854642E+03  0.22282854642E+03  0.00000000000E+00 0. -1.
         21   -1    0    0  501  502 -0.00000000000E+00 -0.00000000000E+00 -0.24043385384E+03  0.24043385384E+03  0.00000000000E+00 0. -1.
      99926    2    1    2    0    0  0.14210854715E-13  0.00000000000E+00 -0.17605307417E+02  0.46326240027E+03  0.46292775317E+03 0.  0.
      99925    2    3    3    0    0 -0.76174683137E+02  0.51482952272E+01 -0.10424410929E+03  0.29301881776E+03  0.26299069555E+03 0.  0.
         25    1    3    3    0    0  0.76174683137E+02 -0.51482952272E+01  0.86638801869E+02  0.17024358251E+03  0.12509000000E+03 0.  0.
         25    1    4    4    0    0 -0.31538421312E+02 -0.20765821239E+02 -0.16408651059E+02  0.13169147004E+03  0.12509000000E+03 0.  0.
         25    1    4    4    0    0 -0.44636261825E+02  0.25914116466E+02 -0.87835458227E+02  0.16132734772E+03  0.12509000000E+03 0.  0.
<mgrwt>
<rscale>  2 0.46292775E+03</rscale>
<asrwt>0</asrwt>
<pdfrwt beam="1">  1       21 0.32768904E-01 0.46292775E+03</pdfrwt>
<pdfrwt beam="2">  1       21 0.35357920E-01 0.46292775E+03</pdfrwt>
<totfact> 0.63811769E+04</totfact>
</mgrwt>
</event>
<event>
 7    0  0.4705418E-002  0.4530322E+03  0.7546771E-02  0.1026822E+00
         21   -1    0    0  502  501  0.00000000000E+00  0.00000000000E+00  0.23476444036E+03  0.23476444036E+03  0.00000000000E+00 0. -1.
         21   -1    0    0  501  502 -0.00000000000E+00 -0.00000000000E+00 -0.21855752362E+03  0.21855752362E+03  0.00000000000E+00 0. -1.
      99926    2    1    2    0    0  0.00000000000E+00  0.00000000000E+00  0.16206916741E+02  0.45332196398E+03  0.45303216098E+03 0.  0.
      99925    2    3    3    0    0 -0.22941267849E+02 -0.10535308927E+03  0.37761349978E+02  0.28677564346E+03  0.26303759226E+03 0.  0.
         25    1    4    4    0    0 -0.11397284398E+02 -0.48039432734E+02 -0.22090643851E+02  0.13628349069E+03  0.12509000000E+03 0.  0.
         25    1    4    4    0    0 -0.11543983451E+02 -0.57313656533E+02  0.59851993829E+02  0.15049215277E+03  0.12509000000E+03 0.  0.
         25    1    3    3    0    0  0.22941267849E+02  0.10535308927E+03 -0.21554433237E+02  0.16654632053E+03  0.12509000000E+03 0.  0.
<mgrwt>
<rscale>  2 0.45303216E+03</rscale>
<asrwt>0</asrwt>
<pdfrwt beam="1">  1       21 0.34524182E-01 0.45303216E+03</pdfrwt>
<pdfrwt beam="2">  1       21 0.32140812E-01 0.45303216E+03</pdfrwt>
<totfact> 0.69757778E+04</totfact>
</mgrwt>
</event>
<event>
 7    0  0.4705418E-002  0.4529336E+03  0.7546771E-02  0.1026851E+00
         21   -1    0    0  502  501  0.00000000000E+00  0.00000000000E+00  0.18829413809E+03  0.18829413809E+03  0.00000000000E+00 0. -1.
         21   -1    0    0  501  502 -0.00000000000E+00 -0.00000000000E+00 -0.27237819013E+03  0.27237819013E+03  0.00000000000E+00 0. -1.
      99926    2    1    2    0    0  0.00000000000E+00  0.00000000000E+00 -0.84084052038E+02  0.46067232822E+03  0.45293362226E+03 0.  0.
      99925    2    3    3    0    0 -0.10485068588E+03 -0.22638874528E+02 -0.82947118334E+02  0.29588462938E+03  0.26298536936E+03 0.  0.
         25    1    3    3    0    0  0.10485068588E+03  0.22638874528E+02 -0.11369337045E+01  0.16478769883E+03  0.12509000000E+03 0.  0.
         25    1    4    4    0    0 -0.51059625132E+02 -0.12072926613E+02 -0.83539940400E+02  0.15930872737E+03  0.12509000000E+03 0.  0.
         25    1    4    4    0    0 -0.53791060745E+02 -0.10565947915E+02  0.59282206629E+00  0.13657590201E+03  0.12509000000E+03 0.  0.
<mgrwt>
<rscale>  2 0.45293362E+03</rscale>
<asrwt>0</asrwt>
<pdfrwt beam="1">  1       21 0.27690314E-01 0.45293362E+03</pdfrwt>
<pdfrwt beam="2">  1       21 0.40055616E-01 0.45293362E+03</pdfrwt>
<totfact> 0.69263376E+04</totfact>
</mgrwt>
</event>
<event>
 7    0  0.4705418E-002  0.4613555E+03  0.7546771E-02  0.1024389E+00
         21   -1    0    0  502  501  0.00000000000E+00  0.00000000000E+00  0.42653891907E+02  0.42653891907E+02  0.00000000000E+00 0. -1.
         21   -1    0    0  501  502 -0.00000000000E+00 -0.00000000000E+00 -0.12475348569E+04  0.12475348569E+04  0.00000000000E+00 0. -1.
      99926    2    1    2    0    0  0.00000000000E+00  0.00000000000E+00 -0.12048809650E+04  0.12901887488E+04  0.46135546788E+03 0.  0.
      99925    2    3    3    0    0 -0.10347403108E+03 -0.58479516852E+02 -0.75374289325E+03  0.80717757205E+03  0.26321199571E+03 0.  0.
         25    1    4    4    0    0 -0.44569964580E+02 -0.33599947772E+02 -0.26049993637E+03  0.29431813261E+03  0.12509000000E+03 0.  0.
         25    1    3    3    0    0  0.10347403108E+03  0.58479516852E+02 -0.45113807172E+03  0.48301117674E+03  0.12509000000E+03 0.  0.
         25    1    4    4    0    0 -0.58904066500E+02 -0.24879569080E+02 -0.49324295688E+03  0.51285943944E+03  0.12509000000E+03 0.  0.
<mgrwt>
<rscale>  2 0.46135547E+03</rscale>
<asrwt>0</asrwt>
<pdfrwt beam="1">  1       21 0.62726300E-02 0.46135547E+03</pdfrwt>
<pdfrwt beam="2">  1       21 0.18346104E+00 0.46135547E+03</pdfrwt>
<totfact> 0.27991003E+04</totfact>
</mgrwt>
</event>
<event>
 7    0  0.4705418E-002  0.4551707E+03  0.7546771E-02  0.1026191E+00
         21   -1    0    0  502  501  0.00000000000E+00  0.00000000000E+00  0.36761158089E+02  0.36761158089E+02  0.00000000000E+00 0.  1.
         21   -1    0    0  501  502 -0.00000000000E+00 -0.00000000000E+00 -0.14089621981E+04  0.14089621981E+04  0.00000000000E+00 0.  1.
      99926    2    1    2    0    0 -0.14210854715E-13  0.00000000000E+00 -0.13722010400E+04  0.14457233562E+04  0.45517065857E+03 0.  0.
      99925    2    3    3    0    0  0.11097014451E+03 -0.22275603504E+02 -0.85444451165E+03  0.90117776008E+03  0.26312612239E+03 0.  0.
         25    1    3    3    0    0 -0.11097014451E+03  0.22275603504E+02 -0.51775652833E+03  0.54454559608E+03  0.12509000000E+03 0.  0.
         25    1    4    4    0    0  0.16642480568E+02 -0.29413425723E+02 -0.39308186328E+03  0.41388764310E+03  0.12509000000E+03 0.  0.
         25    1    4    4    0    0  0.94327663943E+02  0.71378222187E+01 -0.46136264838E+03  0.48729011698E+03  0.12509000000E+03 0.  0.
<mgrwt>
<rscale>  2 0.45517066E+03</rscale>
<asrwt>0</asrwt>
<pdfrwt beam="1">  1       21 0.54060520E-02 0.45517066E+03</pdfrwt>
<pdfrwt beam="2">  1       21 0.20720035E+00 0.45517066E+03</pdfrwt>
<totfact> 0.25105310E+04</totfact>
</mgrwt>
</event>
<event>
 7    0  0.4705418E-002  0.4584433E+03  0.7546771E-02  0.1025234E+00
         21   -1    0    0  502  501  0.00000000000E+00  0.00000000000E+00  0.22246811959E+03  0.22246811959E+03  0.00000000000E+00 0.  1.
         21   -1    0    0  501  502 -0.00000000000E+00 -0.00000000000E+00 -0.23618020253E+03  0.23618020253E+03  0.00000000000E+00 0.  1.
      99926    2    1    2    0    0 -0.44408920985E-15  0.35527136788E-14 -0.13712082942E+02  0.45864832213E+03  0.45844330312E+03 0.  0.
      99925    2    3    3    0    0  0.29191361799E+01 -0.18138304315E+02 -0.12351107905E+03  0.29119430729E+03  0.26306200507E+03 0.  0.
         25    1    3    3    0    0 -0.29191361799E+01  0.18138304315E+02  0.10979899610E+03  0.16745401484E+03  0.12509000000E+03 0.  0.
         25    1    4    4    0    0  0.14328585573E+02 -0.36961901314E+02 -0.92217563676E+02  0.16038415652E+03  0.12509000000E+03 0.  0.
         25    1    4    4    0    0 -0.11409449393E+02  0.18823597000E+02 -0.31293515370E+02  0.13081015077E+03  0.12509000000E+03 0.  0.
<mgrwt>
<rscale>  2 0.45844330E+03</rscale>
<asrwt>0</asrwt>
<pdfrwt beam="1">  1       21 0.32715900E-01 0.45844330E+03</pdfrwt>
<pdfrwt beam="2">  1       21 0.34732383E-01 0.45844330E+03</pdfrwt>
<totfact> 0.66435272E+04</totfact>
</mgrwt>
</event>
<event>
 7    0  0.4705418E-002  0.4576292E+03  0.7546771E-02  0.1025471E+00
         21   -1    0    0  502  501  0.00000000000E+00  0.00000000000E+00  0.14943784245E+04  0.14943784245E+04  0.00000000000E+00 0. -1.
         21   -1    0    0  501  502 -0.00000000000E+00 -0.00000000000E+00 -0.35035383757E+02  0.35035383757E+02  0.00000000000E+00 0. -1.
      99926    2    1    2    0    0 -0.11102230246E-15  0.00000000000E+00  0.14593430408E+04  0.15294138083E+04  0.45762920179E+03 0.  0.
      99925    2    3    3    0    0  0.81506328118E+00  0.76177203815E+02  0.62391926269E+03  0.68124871363E+03  0.26271835253E+03 0.  0.
         25    1    3    3    0    0 -0.81506328118E+00 -0.76177203815E+02  0.83542377808E+03  0.84816509465E+03  0.12509000000E+03 0.  0.
         25    1    4    4    0    0 -0.81138544601E+01  0.76992537848E+02  0.30731185861E+03  0.34070775169E+03  0.12509000000E+03 0.  0.
         25    1    4    4    0    0  0.89289177413E+01 -0.81533403258E+00  0.31660740408E+03  0.34054096195E+03  0.12509000000E+03 0.  0.
<mgrwt>
<rscale>  2 0.45762920E+03</rscale>
<asrwt>0</asrwt>
<pdfrwt beam="1">  1       21 0.21976149E+00 0.45762920E+03</pdfrwt>
<pdfrwt beam="2">  1       21 0.51522633E-02 0.45762920E+03</pdfrwt>
<totfact> 0.22602288E+04</totfact>
</mgrwt>
</event>
<event>
 7    0  0.4705418E-002  0.4673289E+03  0.7546771E-02  0.1022677E+00
         21   -1    0    0  502  501  0.00000000000E+00  0.00000000000E+00  0.55627988800E+02  0.55627988800E+02  0.00000000000E+00 0.  1.
         21   -1    0    0  501  502 -0.00000000000E+00 -0.00000000000E+00 -0.98150360870E+03  0.98150360870E+03  0.00000000000E+00 0.  1.
      99926    2    1    2    0    0  0.00000000000E+00  0.00000000000E+00 -0.92587561990E+03  0.10371315975E+04  0.46732888527E+03 0.  0.
      99925    2    3    3    0    0 -0.12127363859E+03  0.27283619028E+02 -0.58601559946E+03  0.65424253671E+03  0.26299681127E+03 0.  0.
         25    1    3    3    0    0  0.12127363859E+03 -0.27283619028E+02 -0.33986002044E+03  0.38288906079E+03  0.12509000000E+03 0.  0.
         25    1    4    4    0    0 -0.10262645091E+03  0.16780881363E+02 -0.35971871467E+03  0.39478962523E+03  0.12509000000E+03 0.  0.
         25    1    4    4    0    0 -0.18647187673E+02  0.10502737665E+02 -0.22629688479E+03  0.25945291148E+03  0.12509000000E+03 0.  0.
<mgrwt>
<rscale>  2 0.46732889E+03</rscale>
<asrwt>0</asrwt>
<pdfrwt beam="1">  1       21 0.81805869E-02 0.46732889E+03</pdfrwt>
<pdfrwt beam="2">  1       21 0.14433876E+00 0.46732889E+03</pdfrwt>
<totfact> 0.34328279E+04</totfact>
</mgrwt>
</event>
<event>
 7    0  0.4705418E-002  0.4510733E+03  0.7546771E-02  0.1027402E+00
         21   -1    0    0  502  501  0.00000000000E+00  0.00000000000E+00  0.79807852012E+03  0.79807852012E+03  0.00000000000E+00 0. -1.
         21   -1    0    0  501  502 -0.00000000000E+00 -0.00000000000E+00 -0.63736564726E+02  0.63736564726E+02  0.00000000000E+00 0. -1.
      99926    2    1    2    0    0  0.00000000000E+00  0.00000000000E+00  0.73434195540E+03  0.86181508485E+03  0.45107331224E+03 0.  0.
      99925    2    3    3    0    0 -0.48722930533E+02 -0.49628720749E+02  0.62513841131E+03  0.68178770909E+03  0.26305800327E+03 0.  0.
         25    1    4    4    0    0 -0.28993564867E+02 -0.62902597721E+02  0.36930801988E+03  0.39602182421E+03  0.12509000000E+03 0.  0.
         25    1    4    4    0    0 -0.19729365666E+02  0.13273876972E+02  0.25583039143E+03  0.28576588488E+03  0.12509000000E+03 0.  0.
         25    1    3    3    0    0  0.48722930533E+02  0.49628720749E+02  0.10920354409E+03  0.18002737576E+03  0.12509000000E+03 0.  0.
<mgrwt>
<rscale>  2 0.45107331E+03</rscale>
<asrwt>0</asrwt>
<pdfrwt beam="1">  1       21 0.11736448E+00 0.45107331E+03</pdfrwt>
<pdfrwt beam="2">  1       21 0.93730247E-02 0.45107331E+03</pdfrwt>
<totfact> 0.46325679E+04</totfact>
</mgrwt>
</event>
<event>
 7    0  0.4705418E-002  0.4521109E+03  0.7546771E-02  0.1027094E+00
         21   -1    0    0  502  501  0.00000000000E+00  0.00000000000E+00  0.12467805979E+03  0.12467805979E+03  0.00000000000E+00 0.  1.
         21   -1    0    0  501  502 -0.00000000000E+00 -0.00000000000E+00 -0.40986408347E+03  0.40986408347E+03  0.00000000000E+00 0.  1.
      99926    2    1    2    0    0 -0.35527136788E-14 -0.14210854715E-13 -0.28518602368E+03  0.53454214326E+03  0.45211086562E+03 0.  0.
      99925    2    3    3    0    0  0.30607948835E+02  0.61248974409E+02 -0.77295227669E+02  0.28244221354E+03  0.26288927017E+03 0.  0.
         25    1    4    4    0    0  0.39452852837E+01  0.66911640879E+01 -0.69177946837E+02  0.14315527717E+03  0.12509000000E+03 0.  0.
         25    1    4    4    0    0  0.26662663551E+02  0.54557810321E+02 -0.81172808316E+01  0.13928693637E+03  0.12509000000E+03 0.  0.
         25    1    3    3    0    0 -0.30607948835E+02 -0.61248974409E+02 -0.20789079601E+03  0.25209992972E+03  0.12509000000E+03 0.  0.
<mgrwt>
<rscale>  2 0.45211087E+03</rscale>
<asrwt>0</asrwt>
<pdfrwt beam="1">  1       21 0.18335009E-01 0.45211087E+03</pdfrwt>
<pdfrwt beam="2">  1       21 0.60274131E-01 0.45211087E+03</pdfrwt>
<totfact> 0.64358825E+04</totfact>
</mgrwt>
</event>
<event>
 7    0  0.4705418E-002  0.4588588E+03  0.7546771E-02  0.1025113E+00
         21   -1    0    0  502  501  0.00000000000E+00  0.00000000000E+00  0.10084673055E+03  0.10084673055E+03  0.00000000000E+00 0. -1.
         21   -1    0    0  501  502 -0.00000000000E+00 -0.00000000000E+00 -0.52195892369E+03  0.52195892369E+03  0.00000000000E+00 0. -1.
      99926    2    1    2    0    0  0.00000000000E+00  0.00000000000E+00 -0.42111219314E+03  0.62280565423E+03  0.45885880588E+03 0.  0.
      99925    2    3    3    0    0 -0.88535603016E+02 -0.46096692045E+02 -0.18125138884E+03  0.33445834358E+03  0.26276769135E+03 0.  0.
         25    1    4    4    0    0 -0.69241707616E+02 -0.51980152788E+02 -0.11979134839E+03  0.19363322444E+03  0.12509000000E+03 0.  0.
         25    1    3    3    0    0  0.88535603016E+02  0.46096692045E+02 -0.23986080430E+03  0.28834731065E+03  0.12509000000E+03 0.  0.
         25    1    4    4    0    0 -0.19293895400E+02  0.58834607439E+01 -0.61460040448E+02  0.14082511914E+03  0.12509000000E+03 0.  0.
<mgrwt>
<rscale>  2 0.45885881E+03</rscale>
<asrwt>0</asrwt>
<pdfrwt beam="1">  1       21 0.14830401E-01 0.45885881E+03</pdfrwt>
<pdfrwt beam="2">  1       21 0.76758667E-01 0.45885881E+03</pdfrwt>
<totfact> 0.55582994E+04</totfact>
</mgrwt>
</event>
<event>
 7    0  0.4705418E-002  0.4535907E+03  0.7546771E-02  0.1026657E+00
         21   -1    0    0  502  501  0.00000000000E+00  0.00000000000E+00  0.10936948737E+03  0.10936948737E+03  0.00000000000E+00 0.  1.
         21   -1    0    0  501  502 -0.00000000000E+00 -0.00000000000E+00 -0.47029700246E+03  0.47029700246E+03  0.00000000000E+00 0.  1.
      99926    2    1    2    0    0  0.00000000000E+00  0.00000000000E+00 -0.36092751509E+03  0.57966648983E+03  0.45359074978E+03 0.  0.
      99925    2    3    3    0    0 -0.10459486551E+03  0.23163105901E+01 -0.17713560348E+03  0.33395848008E+03  0.26306993976E+03 0.  0.
         25    1    4    4    0    0 -0.40743835281E+02  0.36406242995E+02 -0.65856046820E+02  0.15155857496E+03  0.12509000000E+03 0.  0.
         25    1    3    3    0    0  0.10459486551E+03 -0.23163105901E+01 -0.18379191160E+03  0.24570800975E+03  0.12509000000E+03 0.  0.
         25    1    4    4    0    0 -0.63851030232E+02 -0.34089932405E+02 -0.11127955666E+03  0.18239990511E+03  0.12509000000E+03 0.  0.
<mgrwt>
<rscale>  2 0.45359075E+03</rscale>
<asrwt>0</asrwt>
<pdfrwt beam="1">  1       21 0.16083749E-01 0.45359075E+03</pdfrwt>
<pdfrwt beam="2">  1       21 0.69161321E-01 0.45359075E+03</pdfrwt>
<totfact> 0.60620197E+04</totfact>
</mgrwt>
</event>
<event>
 7    0  0.4705418E-002  0.4513291E+03  0.7546771E-02  0.1027326E+00
         21   -1    0    0  502  501  0.00000000000E+00  0.00000000000E+00  0.32986639881E+03  0.32986639881E+03  0.00000000000E+00 0.  1.
         21   -1    0    0  501  502 -0.00000000000E+00 -0.00000000000E+00 -0.15437914896E+03  0.15437914896E+03  0.00000000000E+00 0.  1.
      99926    2    1    2    0    0  0.00000000000E+00  0.00000000000E+00  0.17548724985E+03  0.48424554777E+03  0.45132912123E+03 0.  0.
      99925    2    3    3    0    0 -0.23691786004E+02  0.50761092518E+02  0.21204748958E+03  0.34239298886E+03  0.26292742677E+03 0.  0.
         25    1    3    3    0    0  0.23691786004E+02 -0.50761092518E+02 -0.36560239735E+02  0.14185255890E+03  0.12509000000E+03 0.  0.
         25    1    4    4    0    0 -0.96384595565E+01  0.44387346377E+02  0.15427910002E+03  0.20374662015E+03  0.12509000000E+03 0.  0.
         25    1    4    4    0    0 -0.14053326448E+02  0.63737461416E+01  0.57768389563E+02  0.13864636871E+03  0.12509000000E+03 0.  0.
<mgrwt>
<rscale>  2 0.45132912E+03</rscale>
<asrwt>0</asrwt>
<pdfrwt beam="1">  1       21 0.48509765E-01 0.45132912E+03</pdfrwt>
<pdfrwt beam="2">  1       21 0.22702816E-01 0.45132912E+03</pdfrwt>
<totfact> 0.68362899E+04</totfact>
</mgrwt>
</event>
<event>
 7    0  0.4705418E-002  0.4444348E+03  0.7546771E-02  0.1029395E+00
         21   -1    0    0  502  501  0.00000000000E+00  0.00000000000E+00  0.52017965267E+03  0.52017965267E+03  0.00000000000E+00 0.  1.
         21   -1    0    0  501  502 -0.00000000000E+00 -0.00000000000E+00 -0.94929852355E+02  0.94929852355E+02  0.00000000000E+00 0.  1.
      99926    2    1    2    0    0  0.00000000000E+00  0.00000000000E+00  0.42524980031E+03  0.61510950502E+03  0.44443482143E+03 0.  0.
      99925    2    3    3    0    0 -0.81463587461E+02 -0.48836797842E+02  0.32513408250E+03  0.42885158181E+03  0.26302121343E+03 0.  0.
         25    1    4    4    0    0 -0.53970345865E+02  0.13665737433E+02  0.16767272545E+03  0.21647448250E+03  0.12509000000E+03 0.  0.
         25    1    4    4    0    0 -0.27493241596E+02 -0.62502535276E+02  0.15746135705E+03  0.21237709931E+03  0.12509000000E+03 0.  0.
         25    1    3    3    0    0  0.81463587461E+02  0.48836797842E+02  0.10011571781E+03  0.18625792321E+03  0.12509000000E+03 0.  0.
<mgrwt>
<rscale>  2 0.44443482E+03</rscale>
<asrwt>0</asrwt>
<pdfrwt beam="1">  1       21 0.76497006E-01 0.44443482E+03</pdfrwt>
<pdfrwt beam="2">  1       21 0.13960273E-01 0.44443482E+03</pdfrwt>
<totfact> 0.62838892E+04</totfact>
</mgrwt>
</event>
<event>
 7    0  0.4705418E-002  0.4430052E+03  0.7546771E-02  0.1029829E+00
         21   -1    0    0  502  501  0.00000000000E+00  0.00000000000E+00  0.55214109439E+02  0.55214109439E+02  0.00000000000E+00 0.  1.
         21   -1    0    0  501  502 -0.00000000000E+00 -0.00000000000E+00 -0.88860253146E+03  0.88860253146E+03  0.00000000000E+00 0.  1.
      99926    2    1    2    0    0  0.35527136788E-14  0.00000000000E+00 -0.83338842202E+03  0.94381664090E+03  0.44300518019E+03 0.  0.
      99925    2    3    3    0    0  0.29605228284E+02 -0.73980760244E+02 -0.39633934604E+03  0.48228763277E+03  0.26299593357E+03 0.  0.
         25    1    4    4    0    0 -0.16661304263E+02 -0.10998728184E+02 -0.19951656112E+03  0.23633226048E+03  0.12509000000E+03 0.  0.
         25    1    3    3    0    0 -0.29605228284E+02  0.73980760244E+02 -0.43704907597E+03  0.46152900812E+03  0.12509000000E+03 0.  0.
         25    1    4    4    0    0  0.46266532547E+02 -0.62982032060E+02 -0.19682278493E+03  0.24595537230E+03  0.12509000000E+03 0.  0.
<mgrwt>
<rscale>  2 0.44300518E+03</rscale>
<asrwt>0</asrwt>
<pdfrwt beam="1">  1       21 0.81197221E-02 0.44300518E+03</pdfrwt>
<pdfrwt beam="2">  1       21 0.13067684E+00 0.44300518E+03</pdfrwt>
<totfact> 0.45513843E+04</totfact>
</mgrwt>
</event>
<event>
 7    0  0.4705418E-002  0.4619655E+03  0.7546771E-02  0.1024213E+00
         21   -1    0    0  502  501  0.00000000000E+00  0.00000000000E+00  0.61973131965E+02  0.61973131965E+02  0.00000000000E+00 0.  1.
         21   -1    0    0  501  502 -0.00000000000E+00 -0.00000000000E+00 -0.86090596163E+03  0.86090596163E+03  0.00000000000E+00 0.  1.
      99926    2    1    2    0    0  0.00000000000E+00  0.00000000000E+00 -0.79893282967E+03  0.92287909360E+03  0.46196553452E+03 0.  0.
      99925    2    3    3    0    0  0.10577387378E+03 -0.27842410517E+02 -0.40344071918E+03  0.49389794045E+03  0.26307308774E+03 0.  0.
         25    1    4    4    0    0  0.96533623436E+02 -0.15257722309E+02 -0.21828140505E+03  0.26989964512E+03  0.12509000000E+03 0.  0.
         25    1    4    4    0    0  0.92402503416E+01 -0.12584688208E+02 -0.18515931413E+03  0.22399829533E+03  0.12509000000E+03 0.  0.
         25    1    3    3    0    0 -0.10577387378E+03  0.27842410517E+02 -0.39549211049E+03  0.42898115315E+03  0.12509000000E+03 0.  0.
<mgrwt>
<rscale>  2 0.46196553E+03</rscale>
<asrwt>0</asrwt>
<pdfrwt beam="1">  1       21 0.91136965E-02 0.46196553E+03</pdfrwt>
<pdfrwt beam="2">  1       21 0.12660381E+00 0.46196553E+03</pdfrwt>
<totfact> 0.40031856E+04</totfact>
</mgrwt>
</event>
<event>
 7    0  0.4705418E-002  0.4623271E+03  0.7546771E-02  0.1024108E+00
         21   -1    0    0  502  501  0.00000000000E+00  0.00000000000E+00  0.73999388376E+02  0.73999388376E+02  0.00000000000E+00 0.  1.
         21   -1    0    0  501  502 -0.00000000000E+00 -0.00000000000E+00 -0.72212207606E+03  0.72212207606E+03  0.00000000000E+00 0.  1.
      99926    2    1    2    0    0  0.00000000000E+00  0.00000000000E+00 -0.64812268768E+03  0.79612146444E+03  0.46232712212E+03 0.  0.
      99925    2    3    3    0    0 -0.14420956726E+02 -0.95535228832E+00 -0.61003885666E+03  0.66456629359E+03  0.26323387937E+03 0.  0.
         25    1    4    4    0    0  0.93619561684E+01  0.23645510066E+02 -0.23053724583E+03  0.26351790487E+03  0.12509000000E+03 0.  0.
         25    1    3    3    0    0  0.14420956726E+02  0.95535228832E+00 -0.38083831021E+02  0.13155517085E+03  0.12509000000E+03 0.  0.
         25    1    4    4    0    0 -0.23782912894E+02 -0.24600862354E+02 -0.37950161083E+03  0.40104838872E+03  0.12509000000E+03 0.  0.
<mgrwt>
<rscale>  2 0.46232712E+03</rscale>
<asrwt>0</asrwt>
<pdfrwt beam="1">  1       21 0.10882263E-01 0.46232712E+03</pdfrwt>
<pdfrwt beam="2">  1       21 0.10619443E+00 0.46232712E+03</pdfrwt>
<totfact> 0.45291854E+04</totfact>
</mgrwt>
</event>
<event>
 7    0  0.4705418E-002  0.5073978E+03  0.7546771E-02  0.1011866E+00
         21   -1    0    0  502  501  0.00000000000E+00  0.00000000000E+00  0.38673029695E+02  0.38673029695E+02  0.00000000000E+00 0.  1.
         21   -1    0    0  501  502 -0.00000000000E+00 -0.00000000000E+00 -0.16642897096E+04  0.16642897096E+04  0.00000000000E+00 0.  1.
      99926    2    1    2    0    0  0.88817841970E-15 -0.28421709430E-13 -0.16256166799E+04  0.17029627392E+04  0.50739777437E+03 0.  0.
      99925    2    3    3    0    0  0.51098987886E+01  0.15527165289E+03 -0.89762433206E+03  0.94814106242E+03  0.26288140954E+03 0.  0.
         25    1    3    3    0    0 -0.51098987886E+01 -0.15527165289E+03 -0.72799234780E+03  0.75482167683E+03  0.12509000000E+03 0.  0.
         25    1    4    4    0    0  0.22117164052E+02  0.91230941338E+02 -0.57373495210E+03  0.59466928369E+03  0.12509000000E+03 0.  0.
         25    1    4    4    0    0 -0.17007265264E+02  0.64040711550E+02 -0.32388937996E+03  0.35347177873E+03  0.12509000000E+03 0.  0.
<mgrwt>
<rscale>  2 0.50739777E+03</rscale>
<asrwt>0</asrwt>
<pdfrwt beam="1">  1       21 0.56872113E-02 0.50739777E+03</pdfrwt>
<pdfrwt beam="2">  1       21 0.24474844E+00 0.50739777E+03</pdfrwt>
<totfact> 0.13037998E+04</totfact>
</mgrwt>
</event>
<event>
 7    0  0.4705418E-002  0.4178141E+03  0.7546771E-02  0.1037780E+00
         21   -1    0    0  502  501  0.00000000000E+00  0.00000000000E+00  0.10002293472E+03  0.10002293472E+03  0.00000000000E+00 0. -1.
         21   -1    0    0  501  502 -0.00000000000E+00 -0.00000000000E+00 -0.43632158018E+03  0.43632158018E+03  0.00000000000E+00 0. -1.
      99926    2    1    2    0    0  0.00000000000E+00  0.00000000000E+00 -0.33629864547E+03  0.53634451490E+03  0.41781414495E+03 0.  0.
      99925    2    3    3    0    0  0.67065039289E+02  0.17115362707E+02 -0.19102221649E+03  0.33252252381E+03  0.26323200131E+03 0.  0.
         25    1    3    3    0    0 -0.67065039289E+02 -0.17115362707E+02 -0.14527642898E+03  0.20382199109E+03  0.12509000000E+03 0.  0.
         25    1    4    4    0    0  0.41982812756E+02  0.48698522132E+02 -0.94207629382E+02  0.16928286434E+03  0.12509000000E+03 0.  0.
         25    1    4    4    0    0  0.25082226533E+02 -0.31583159425E+02 -0.96814587107E+02  0.16323965947E+03  0.12509000000E+03 0.  0.
<mgrwt>
<rscale>  2 0.41781414E+03</rscale>
<asrwt>0</asrwt>
<pdfrwt beam="1">  1       21 0.14709255E-01 0.41781414E+03</pdfrwt>
<pdfrwt beam="2">  1       21 0.64164938E-01 0.41781414E+03</pdfrwt>
<totfact> 0.85225376E+04</totfact>
</mgrwt>
</event>
<event>
 7    0  0.4705418E-002  0.4536816E+03  0.7546771E-02  0.1026630E+00
         21   -1    0    0  502  501  0.00000000000E+00  0.00000000000E+00  0.90807059595E+02  0.90807059595E+02  0.00000000000E+00 0. -1.
         21   -1    0    0  501  502 -0.00000000000E+00 -0.00000000000E+00 -0.56666026848E+03  0.56666026848E+03  0.00000000000E+00 0. -1.
      99926    2    1    2    0    0  0.00000000000E+00  0.35527136788E-14 -0.47585320888E+03  0.65746732807E+03  0.45368161862E+03 0.  0.
      99925    2    3    3    0    0  0.95462647166E+02 -0.17852855545E+02 -0.21884709944E+03  0.35558740187E+03  0.26290018254E+03 0.  0.
         25    1    4    4    0    0  0.60620481302E+02  0.29094591984E+02 -0.11714553777E+03  0.18409759139E+03  0.12509000000E+03 0.  0.
         25    1    4    4    0    0  0.34842165863E+02 -0.46947447529E+02 -0.10170156167E+03  0.17148981048E+03  0.12509000000E+03 0.  0.
         25    1    3    3    0    0 -0.95462647166E+02  0.17852855545E+02 -0.25700610944E+03  0.30187992620E+03  0.12509000000E+03 0.  0.
<mgrwt>
<rscale>  2 0.45368162E+03</rscale>
<asrwt>0</asrwt>
<pdfrwt beam="1">  1       21 0.13353980E-01 0.45368162E+03</pdfrwt>
<pdfrwt beam="2">  1       21 0.83332389E-01 0.45368162E+03</pdfrwt>
<totfact> 0.55851620E+04</totfact>
</mgrwt>
</event>
<event>
 7    0  0.4705418E-002  0.4568328E+03  0.7546771E-02  0.1025704E+00
         21   -1    0    0  502  501  0.00000000000E+00  0.00000000000E+00  0.80109244242E+03  0.80109244242E+03  0.00000000000E+00 0.  1.
         21   -1    0    0  501  502 -0.00000000000E+00 -0.00000000000E+00 -0.65128614737E+02  0.65128614737E+02  0.00000000000E+00 0.  1.
      99926    2    1    2    0    0  0.00000000000E+00  0.14210854715E-13  0.73596382768E+03  0.86622105715E+03  0.45683275299E+03 0.  0.
      99925    2    3    3    0    0 -0.32709143556E+02  0.90823429708E+02  0.58051325451E+03  0.64456553105E+03  0.26296444948E+03 0.  0.
         25    1    4    4    0    0 -0.56903610547E+02  0.49871313376E+02  0.31172258971E+03  0.34430168432E+03  0.12509000000E+03 0.  0.
         25    1    3    3    0    0  0.32709143556E+02 -0.90823429708E+02  0.15545057317E+03  0.22165552611E+03  0.12509000000E+03 0.  0.
         25    1    4    4    0    0  0.24194466990E+02  0.40952116332E+02  0.26879066480E+03  0.30026384673E+03  0.12509000000E+03 0.  0.
<mgrwt>
<rscale>  2 0.45683275E+03</rscale>
<asrwt>0</asrwt>
<pdfrwt beam="1">  1       21 0.11780771E+00 0.45683275E+03</pdfrwt>
<pdfrwt beam="2">  1       21 0.95777379E-02 0.45683275E+03</pdfrwt>
<totfact> 0.44085039E+04</totfact>
</mgrwt>
</event>
<event>
 7    0  0.4705418E-002  0.4581699E+03  0.7546771E-02  0.1025313E+00
         21   -1    0    0  502  501  0.00000000000E+00  0.00000000000E+00  0.18521578742E+03  0.18521578742E+03  0.00000000000E+00 0.  1.
         21   -1    0    0  501  502 -0.00000000000E+00 -0.00000000000E+00 -0.28334472746E+03  0.28334472746E+03  0.00000000000E+00 0.  1.
      99926    2    1    2    0    0  0.00000000000E+00  0.00000000000E+00 -0.98128940044E+02  0.46856051488E+03  0.45816991087E+03 0.  0.
      99925    2    3    3    0    0  0.67863947395E+02 -0.73103447240E+02 -0.42561437709E+00  0.28109564537E+03  0.26280211442E+03 0.  0.
         25    1    4    4    0    0  0.65685909803E+02 -0.65481505009E+02  0.18181086083E+01  0.15573464568E+03  0.12509000000E+03 0.  0.
         25    1    4    4    0    0  0.21780375922E+01 -0.76219422308E+01 -0.22437229854E+01  0.12536099969E+03  0.12509000000E+03 0.  0.
         25    1    3    3    0    0 -0.67863947395E+02  0.73103447240E+02 -0.97703325667E+02  0.18746486951E+03  0.12509000000E+03 0.  0.
<mgrwt>
<rscale>  2 0.45816991E+03</rscale>
<asrwt>0</asrwt>
<pdfrwt beam="1">  1       21 0.27237616E-01 0.45816991E+03</pdfrwt>
<pdfrwt beam="2">  1       21 0.41668342E-01 0.45816991E+03</pdfrwt>
<totfact> 0.65871325E+04</totfact>
</mgrwt>
</event>
<event>
 7    0  0.4705418E-002  0.4407785E+03  0.7546771E-02  0.1030508E+00
         21   -1    0    0  502  501  0.00000000000E+00  0.00000000000E+00  0.87996577116E+02  0.87996577116E+02  0.00000000000E+00 0. -1.
         21   -1    0    0  501  502 -0.00000000000E+00 -0.00000000000E+00 -0.55196938581E+03  0.55196938581E+03  0.00000000000E+00 0. -1.
      99926    2    1    2    0    0  0.00000000000E+00 -0.53290705182E-14 -0.46397280869E+03  0.63996596292E+03  0.44077847780E+03 0.  0.
      99925    2    3    3    0    0 -0.82434831030E+02 -0.97683862168E+01 -0.37475865650E+03  0.46533035433E+03  0.26305392091E+03 0.  0.
         25    1    4    4    0    0 -0.63622830433E+02 -0.33856346139E+02 -0.23032252596E+03  0.27182731797E+03  0.12509000000E+03 0.  0.
         25    1    4    4    0    0 -0.18812000598E+02  0.24087959922E+02 -0.14443613053E+03  0.19350303637E+03  0.12509000000E+03 0.  0.
         25    1    3    3    0    0  0.82434831030E+02  0.97683862168E+01 -0.89214152196E+02  0.17463560859E+03  0.12509000000E+03 0.  0.
<mgrwt>
<rscale>  2 0.44077848E+03</rscale>
<asrwt>0</asrwt>
<pdfrwt beam="1">  1       21 0.12940673E-01 0.44077848E+03</pdfrwt>
<pdfrwt beam="2">  1       21 0.81171969E-01 0.44077848E+03</pdfrwt>
<totfact> 0.63068194E+04</totfact>
</mgrwt>
</event>
<event>
 7    0  0.4705418E-002  0.4547018E+03  0.7546771E-02  0.1026329E+00
         21   -1    0    0  502  501  0.00000000000E+00  0.00000000000E+00  0.91350101746E+02  0.91350101746E+02  0.00000000000E+00 0. -1.
         21   -1    0    0  501  502 -0.00000000000E+00 -0.00000000000E+00 -0.56582794423E+03  0.56582794423E+03  0.00000000000E+00 0. -1.
      99926    2    1    2    0    0  0.88817841970E-15 -0.17763568394E-14 -0.47447784249E+03  0.65717804598E+03  0.45470183759E+03 0.  0.
      99925    2    3    3    0    0 -0.63737125933E+01  0.14409971264E+02 -0.46091035520E+03  0.53037167274E+03  0.26193030413E+03 0.  0.
         25    1    4    4    0    0  0.33428759282E+02  0.14462138209E+02 -0.25091016846E+03  0.28271904096E+03  0.12509000000E+03 0.  0.
         25    1    3    3    0    0  0.63737125933E+01 -0.14409971264E+02 -0.13567487283E+02  0.12680637324E+03  0.12509000000E+03 0.  0.
         25    1    4    4    0    0 -0.39802471876E+02 -0.52166944910E-01 -0.21000018675E+03  0.24765263177E+03  0.12509000000E+03 0.  0.
<mgrwt>
<rscale>  2 0.45470184E+03</rscale>
<asrwt>0</asrwt>
<pdfrwt beam="1">  1       21 0.13433838E-01 0.45470184E+03</pdfrwt>
<pdfrwt beam="2">  1       21 0.83209995E-01 0.45470184E+03</pdfrwt>
<totfact> 0.55419940E+04</totfact>
</mgrwt>
</event>
<event>
 7    0  0.4705418E-002  0.4396321E+03  0.7546771E-02  0.1030860E+00
         21   -1    0    0  502  501  0.00000000000E+00  0.00000000000E+00  0.82628525645E+03  0.82628525645E+03  0.00000000000E+00 0. -1.
         21   -1    0    0  501  502 -0.00000000000E+00 -0.00000000000E+00 -0.58477512741E+02  0.58477512741E+02  0.00000000000E+00 0. -1.
      99926    2    1    2    0    0 -0.35527136788E-14  0.00000000000E+00  0.76780774371E+03  0.88476276919E+03  0.43963214901E+03 0.  0.
      99925    2    3    3    0    0  0.23213656161E+02  0.94426386898E+02  0.46749336433E+03  0.54521682099E+03  0.26316557493E+03 0.  0.
         25    1    4    4    0    0 -0.95659596241E+01  0.36916052737E+02  0.15945407020E+03  0.20622175233E+03  0.12509000000E+03 0.  0.
         25    1    4    4    0    0  0.32779615785E+02  0.57510334161E+02  0.30803929413E+03  0.33899506866E+03  0.12509000000E+03 0.  0.
         25    1    3    3    0    0 -0.23213656161E+02 -0.94426386898E+02  0.30031437938E+03  0.33954594820E+03  0.12509000000E+03 0.  0.
<mgrwt>
<rscale>  2 0.43963215E+03</rscale>
<asrwt>0</asrwt>
<pdfrwt beam="1">  1       21 0.12151253E+00 0.43963215E+03</pdfrwt>
<pdfrwt beam="2">  1       21 0.85996347E-02 0.43963215E+03</pdfrwt>
<totfact> 0.49603143E+04</totfact>
</mgrwt>
</event>
<event>
 7    0  0.4705418E-002  0.4515547E+03  0.7546771E-02  0.1027259E+00
         21   -1    0    0  502  501  0.00000000000E+00  0.00000000000E+00  0.23806689891E+03  0.23806689891E+03  0.00000000000E+00 0.  1.
         21   -1    0    0  501  502 -0.00000000000E+00 -0.00000000000E+00 -0.21412220743E+03  0.21412220743E+03  0.00000000000E+00 0.  1.
      99926    2    1    2    0    0  0.00000000000E+00  0.00000000000E+00  0.23944691479E+02  0.45218910634E+03  0.45155469175E+03 0.  0.
      99925    2    3    3    0    0 -0.29972446929E+02  0.74322704295E+02  0.90387010877E+02  0.28944912399E+03  0.26303758609E+03 0.  0.
         25    1    4    4    0    0 -0.45868776208E+02  0.11937828315E+02  0.52968507446E+02  0.14387365032E+03  0.12509000000E+03 0.  0.
         25    1    3    3    0    0  0.29972446929E+02 -0.74322704295E+02 -0.66442319398E+02  0.16273998235E+03  0.12509000000E+03 0.  0.
         25    1    4    4    0    0  0.15896329279E+02  0.62384875980E+02  0.37418503431E+02  0.14557547367E+03  0.12509000000E+03 0.  0.
<mgrwt>
<rscale>  2 0.45155469E+03</rscale>
<asrwt>0</asrwt>
<pdfrwt beam="1">  1       21 0.35009838E-01 0.45155469E+03</pdfrwt>
<pdfrwt beam="2">  1       21 0.31488560E-01 0.45155469E+03</pdfrwt>
<totfact> 0.70675179E+04</totfact>
</mgrwt>
</event>
<event>
 7    0  0.4705418E-002  0.4540933E+03  0.7546771E-02  0.1026508E+00
         21   -1    0    0  502  501  0.00000000000E+00  0.00000000000E+00  0.27602461551E+03  0.27602461551E+03  0.00000000000E+00 0.  1.
         21   -1    0    0  501  502 -0.00000000000E+00 -0.00000000000E+00 -0.18675938551E+03  0.18675938551E+03  0.00000000000E+00 0.  1.
      99926    2    1    2    0    0  0.00000000000E+00 -0.35527136788E-14  0.89265229999E+02  0.46278400102E+03  0.45409332776E+03 0.  0.
      99925    2    3    3    0    0 -0.10682701291E+03 -0.16589128462E+02  0.87120214681E+02  0.29743794252E+03  0.26304407991E+03 0.  0.
         25    1    4    4    0    0 -0.82306548463E+02  0.20033658178E+02  0.36030553785E+02  0.15531073461E+03  0.12509000000E+03 0.  0.
         25    1    3    3    0    0  0.10682701291E+03  0.16589128462E+02  0.21450153183E+01  0.16534605850E+03  0.12509000000E+03 0.  0.
         25    1    4    4    0    0 -0.24520464445E+02 -0.36622786640E+02  0.51089660896E+02  0.14212720791E+03  0.12509000000E+03 0.  0.
<mgrwt>
<rscale>  2 0.45409333E+03</rscale>
<asrwt>0</asrwt>
<pdfrwt beam="1">  1       21 0.40591856E-01 0.45409333E+03</pdfrwt>
<pdfrwt beam="2">  1       21 0.27464615E-01 0.45409333E+03</pdfrwt>
<totfact> 0.68467164E+04</totfact>
</mgrwt>
</event>
<event>
 7    0  0.4705418E-002  0.4584522E+03  0.7546771E-02  0.1025231E+00
         21   -1    0    0  502  501  0.00000000000E+00  0.00000000000E+00  0.59461003361E+02  0.59461003361E+02  0.00000000000E+00 0.  1.
         21   -1    0    0  501  502 -0.00000000000E+00 -0.00000000000E+00 -0.88368182500E+03  0.88368182500E+03  0.00000000000E+00 0.  1.
      99926    2    1    2    0    0  0.00000000000E+00  0.71054273576E-14 -0.82422082164E+03  0.94314282836E+03  0.45845221328E+03 0.  0.
      99925    2    3    3    0    0  0.17864780712E+02 -0.48812260341E+02 -0.30285859331E+03  0.40447050832E+03  0.26300432964E+03 0.  0.
         25    1    3    3    0    0 -0.17864780712E+02  0.48812260341E+02 -0.52136222833E+03  0.53867232004E+03  0.12509000000E+03 0.  0.
         25    1    4    4    0    0  0.13726424951E+02 -0.58902917088E+02 -0.12597429521E+03  0.18754999210E+03  0.12509000000E+03 0.  0.
         25    1    4    4    0    0  0.41383557608E+01  0.10090656747E+02 -0.17688429810E+03  0.21692051622E+03  0.12509000000E+03 0.  0.
<mgrwt>
<rscale>  2 0.45845221E+03</rscale>
<asrwt>0</asrwt>
<pdfrwt beam="1">  1       21 0.87442647E-02 0.45845221E+03</pdfrwt>
<pdfrwt beam="2">  1       21 0.12995322E+00 0.45845221E+03</pdfrwt>
<totfact> 0.40320105E+04</totfact>
</mgrwt>
</event>
<event>
 7    0  0.4705418E-002  0.4078930E+03  0.7546771E-02  0.1041080E+00
         21   -1    0    0  502  501  0.00000000000E+00  0.00000000000E+00  0.49584219099E+02  0.49584219099E+02  0.00000000000E+00 0. -1.
         21   -1    0    0  501  502 -0.00000000000E+00 -0.00000000000E+00 -0.83885893848E+03  0.83885893848E+03  0.00000000000E+00 0. -1.
      99926    2    1    2    0    0 -0.71054273576E-14  0.00000000000E+00 -0.78927471938E+03  0.88844315758E+03  0.40789295360E+03 0.  0.
      99925    2    3    3    0    0  0.50190425692E+02 -0.28423997306E+02 -0.49404371498E+03  0.56265817248E+03  0.26301715590E+03 0.  0.
         25    1    3    3    0    0 -0.50190425692E+02  0.28423997306E+02 -0.29523100441E+03  0.32578498510E+03  0.12509000000E+03 0.  0.
         25    1    4    4    0    0  0.72161513779E+01 -0.49854207360E+02 -0.23201302301E+03  0.26835622925E+03  0.12509000000E+03 0.  0.
         25    1    4    4    0    0  0.42974274314E+02  0.21430210054E+02 -0.26203069197E+03  0.29430194323E+03  0.12509000000E+03 0.  0.
<mgrwt>
<rscale>  2 0.40789295E+03</rscale>
<asrwt>0</asrwt>
<pdfrwt beam="1">  1       21 0.72917973E-02 0.40789295E+03</pdfrwt>
<pdfrwt beam="2">  1       21 0.12336160E+00 0.40789295E+03</pdfrwt>
<totfact> 0.64399497E+04</totfact>
</mgrwt>
</event>
<event>
 7    0  0.4705418E-002  0.4655851E+03  0.7546771E-02  0.1023174E+00
         21   -1    0    0  502  501  0.00000000000E+00  0.00000000000E+00  0.60911952569E+02  0.60911952569E+02  0.00000000000E+00 0. -1.
         21   -1    0    0  501  502 -0.00000000000E+00 -0.00000000000E+00 -0.88968371219E+03  0.88968371219E+03  0.00000000000E+00 0. -1.
      99926    2    1    2    0    0  0.17763568394E-14  0.42188474936E-14 -0.82877175962E+03  0.95059566476E+03  0.46558510319E+03 0.  0.
      99925    2    3    3    0    0 -0.85238844755E+01 -0.12526934242E+01 -0.26710884936E+03  0.37510721248E+03  0.26321864979E+03 0.  0.
         25    1    4    4    0    0  0.12305838918E+02 -0.37909313877E+02 -0.12888811976E+03  0.18397881744E+03  0.12509000000E+03 0.  0.
         25    1    3    3    0    0  0.85238844755E+01  0.12526934242E+01 -0.56166291026E+03  0.57548845228E+03  0.12509000000E+03 0.  0.
         25    1    4    4    0    0 -0.20829723394E+02  0.36656620453E+02 -0.13822072960E+03  0.19112839504E+03  0.12509000000E+03 0.  0.
<mgrwt>
<rscale>  2 0.46558510E+03</rscale>
<asrwt>0</asrwt>
<pdfrwt beam="1">  1       21 0.89576407E-02 0.46558510E+03</pdfrwt>
<pdfrwt beam="2">  1       21 0.13083583E+00 0.46558510E+03</pdfrwt>
<totfact> 0.37882159E+04</totfact>
</mgrwt>
</event>
<event>
 7    0  0.4705418E-002  0.4594973E+03  0.7546771E-02  0.1024927E+00
         21   -1    0    0  502  501  0.00000000000E+00  0.00000000000E+00  0.89643788575E+03  0.89643788575E+03  0.00000000000E+00 0. -1.
         21   -1    0    0  501  502 -0.00000000000E+00 -0.00000000000E+00 -0.58882423476E+02  0.58882423476E+02  0.00000000000E+00 0. -1.
      99926    2    1    2    0    0  0.00000000000E+00  0.00000000000E+00  0.83755546227E+03  0.95532030922E+03  0.45949726967E+03 0.  0.
      99925    2    3    3    0    0 -0.23148298593E+02  0.78325629404E+02  0.34994708998E+03  0.44533974020E+03  0.26304708793E+03 0.  0.
         25    1    3    3    0    0  0.23148298593E+02 -0.78325629404E+02  0.48760837229E+03  0.50998056902E+03  0.12509000000E+03 0.  0.
         25    1    4    4    0    0 -0.38851011206E+02  0.86771098200E+01  0.17376805385E+03  0.21777864437E+03  0.12509000000E+03 0.  0.
         25    1    4    4    0    0  0.15702712613E+02  0.69648519584E+02  0.17617903613E+03  0.22756109583E+03  0.12509000000E+03 0.  0.
<mgrwt>
<rscale>  2 0.45949727E+03</rscale>
<asrwt>0</asrwt>
<pdfrwt beam="1">  1       21 0.13182909E+00 0.45949727E+03</pdfrwt>
<pdfrwt beam="2">  1       21 0.86591805E-02 0.45949727E+03</pdfrwt>
<totfact> 0.39518037E+04</totfact>
</mgrwt>
</event>
<event>
 7    0  0.4705418E-002  0.4597462E+03  0.7546771E-02  0.1024855E+00
         21   -1    0    0  502  501  0.00000000000E+00  0.00000000000E+00  0.15958339697E+04  0.15958339697E+04  0.00000000000E+00 0. -1.
         21   -1    0    0  501  502 -0.00000000000E+00 -0.00000000000E+00 -0.33112244292E+02  0.33112244292E+02  0.00000000000E+00 0. -1.
      99926    2    1    2    0    0  0.00000000000E+00  0.00000000000E+00  0.15627217254E+04  0.16289462140E+04  0.45974620936E+03 0.  0.
      99925    2    3    3    0    0  0.10785882692E+03  0.27935318548E+02  0.84693796850E+03  0.89382186851E+03  0.26305836153E+03 0.  0.
         25    1    3    3    0    0 -0.10785882692E+03 -0.27935318548E+02  0.71578375693E+03  0.73512434550E+03  0.12509000000E+03 0.  0.
         25    1    4    4    0    0  0.31441815569E+02  0.44338479091E+02  0.35715942263E+03  0.38231511842E+03  0.12509000000E+03 0.  0.
         25    1    4    4    0    0  0.76417011351E+02 -0.16403160543E+02  0.48977854587E+03  0.51150675009E+03  0.12509000000E+03 0.  0.
<mgrwt>
<rscale>  2 0.45974621E+03</rscale>
<asrwt>0</asrwt>
<pdfrwt beam="1">  1       21 0.23468141E+00 0.45974621E+03</pdfrwt>
<pdfrwt beam="2">  1       21 0.48694488E-02 0.45974621E+03</pdfrwt>
<totfact> 0.20034942E+04</totfact>
</mgrwt>
</event>
<event>
 7    0  0.4705418E-002  0.4520496E+03  0.7546771E-02  0.1027113E+00
         21   -1    0    0  502  501  0.00000000000E+00  0.00000000000E+00  0.24322574603E+02  0.24322574603E+02  0.00000000000E+00 0. -1.
         21   -1    0    0  501  502 -0.00000000000E+00 -0.00000000000E+00 -0.21004028757E+04  0.21004028757E+04  0.00000000000E+00 0. -1.
      99926    2    1    2    0    0  0.00000000000E+00  0.71054273576E-14 -0.20760803011E+04  0.21247254503E+04  0.45204957976E+03 0.  0.
      99925    2    3    3    0    0 -0.99104557423E+02  0.35326690216E+02 -0.14663956407E+04  0.14935102876E+04  0.26303443862E+03 0.  0.
         25    1    4    4    0    0 -0.63171266481E+02  0.35327404416E+02 -0.58661228002E+03  0.60415238937E+03  0.12509000000E+03 0.  0.
         25    1    3    3    0    0  0.99104557423E+02 -0.35326690216E+02 -0.60968466041E+03  0.63121516267E+03  0.12509000000E+03 0.  0.
         25    1    4    4    0    0 -0.35933290943E+02 -0.71420049607E-03 -0.87978336068E+03  0.88935789828E+03  0.12509000000E+03 0.  0.
<mgrwt>
<rscale>  2 0.45204958E+03</rscale>
<asrwt>0</asrwt>
<pdfrwt beam="1">  1       21 0.35768472E-02 0.45204958E+03</pdfrwt>
<pdfrwt beam="2">  1       21 0.30888295E+00 0.45204958E+03</pdfrwt>
<totfact> 0.12052011E+04</totfact>
</mgrwt>
</event>
<event>
 7    0  0.4705418E-002  0.4534496E+03  0.7546771E-02  0.1026698E+00
         21   -1    0    0  502  501  0.00000000000E+00  0.00000000000E+00  0.10286516304E+03  0.10286516304E+03  0.00000000000E+00 0. -1.
         21   -1    0    0  501  502 -0.00000000000E+00 -0.00000000000E+00 -0.49972355921E+03  0.49972355921E+03  0.00000000000E+00 0. -1.
      99926    2    1    2    0    0 -0.17763568394E-14  0.00000000000E+00 -0.39685839617E+03  0.60258872225E+03  0.45344964612E+03 0.  0.
      99925    2    3    3    0    0  0.11579521694E+02  0.11050120555E+03 -0.24632223465E+03  0.37752596260E+03  0.26364105789E+03 0.  0.
         25    1    4    4    0    0 -0.15716224842E+02  0.21966391006E+02 -0.13593144128E+03  0.18669329631E+03  0.12509000000E+03 0.  0.
         25    1    3    3    0    0 -0.11579521694E+02 -0.11050120555E+03 -0.15053616153E+03  0.22506275964E+03  0.12509000000E+03 0.  0.
         25    1    4    4    0    0  0.27295746536E+02  0.88534814544E+02 -0.11039079336E+03  0.19083266629E+03  0.12509000000E+03 0.  0.
<mgrwt>
<rscale>  2 0.45344965E+03</rscale>
<asrwt>0</asrwt>
<pdfrwt beam="1">  1       21 0.15127230E-01 0.45344965E+03</pdfrwt>
<pdfrwt beam="2">  1       21 0.73488758E-01 0.45344965E+03</pdfrwt>
<totfact> 0.59241513E+04</totfact>
</mgrwt>
</event>
<event>
 7    0  0.4705418E-002  0.4581788E+03  0.7546771E-02  0.1025311E+00
         21   -1    0    0  502  501  0.00000000000E+00  0.00000000000E+00  0.47085758486E+03  0.47085758486E+03  0.00000000000E+00 0. -1.
         21   -1    0    0  501  502 -0.00000000000E+00 -0.00000000000E+00 -0.11146033089E+03  0.11146033089E+03  0.00000000000E+00 0. -1.
      99926    2    1    2    0    0  0.00000000000E+00  0.00000000000E+00  0.35939725397E+03  0.58231791574E+03  0.45817875206E+03 0.  0.
      99925    2    3    3    0    0 -0.29297256065E+02 -0.11229174133E+03  0.21930673295E+03  0.36154512176E+03  0.26296704654E+03 0.  0.
         25    1    3    3    0    0  0.29297256065E+02  0.11229174133E+03  0.14009052102E+03  0.22077279398E+03  0.12509000000E+03 0.  0.
         25    1    4    4    0    0 -0.16624129939E+02 -0.16870554028E+02  0.75485797109E+02  0.14800875297E+03  0.12509000000E+03 0.  0.
         25    1    4    4    0    0 -0.12673126125E+02 -0.95421187301E+02  0.14382093584E+03  0.21353636879E+03  0.12509000000E+03 0.  0.
<mgrwt>
<rscale>  2 0.45817875E+03</rscale>
<asrwt>0</asrwt>
<pdfrwt beam="1">  1       21 0.69243762E-01 0.45817875E+03</pdfrwt>
<pdfrwt beam="2">  1       21 0.16391225E-01 0.45817875E+03</pdfrwt>
<totfact> 0.58301144E+04</totfact>
</mgrwt>
</event>
<event>
 7    0  0.4705418E-002  0.4503171E+03  0.7546771E-02  0.1027628E+00
         21   -1    0    0  502  501  0.00000000000E+00  0.00000000000E+00  0.51474810646E+02  0.51474810646E+02  0.00000000000E+00 0.  1.
         21   -1    0    0  501  502 -0.00000000000E+00 -0.00000000000E+00 -0.98487748743E+03  0.98487748743E+03  0.00000000000E+00 0.  1.
      99926    2    1    2    0    0  0.00000000000E+00 -0.22204460493E-15 -0.93340267678E+03  0.10363522981E+04  0.45031714236E+03 0.  0.
      99925    2    3    3    0    0 -0.94011977707E+02 -0.18611182811E+01 -0.71549240691E+03  0.76807238915E+03  0.26299067460E+03 0.  0.
         25    1    4    4    0    0 -0.44118746165E+02 -0.32315770509E+01 -0.46635102099E+03  0.48485842236E+03  0.12509000000E+03 0.  0.
         25    1    3    3    0    0  0.94011977707E+02  0.18611182811E+01 -0.21791026988E+03  0.26827990892E+03  0.12509000000E+03 0.  0.
         25    1    4    4    0    0 -0.49893231542E+02  0.13704587697E+01 -0.24914138592E+03  0.28321396679E+03  0.12509000000E+03 0.  0.
<mgrwt>
<rscale>  2 0.45031714E+03</rscale>
<asrwt>0</asrwt>
<pdfrwt beam="1">  1       21 0.75698256E-02 0.45031714E+03</pdfrwt>
<pdfrwt beam="2">  1       21 0.14483492E+00 0.45031714E+03</pdfrwt>
<totfact> 0.39195539E+04</totfact>
</mgrwt>
</event>
<event>
 7    0  0.4705418E-002  0.4377201E+03  0.7546771E-02  0.1031449E+00
         21   -1    0    0  502  501  0.00000000000E+00  0.00000000000E+00  0.87674482914E+03  0.87674482914E+03  0.00000000000E+00 0. -1.
         21   -1    0    0  501  502 -0.00000000000E+00 -0.00000000000E+00 -0.54633587298E+02  0.54633587298E+02  0.00000000000E+00 0. -1.
      99926    2    1    2    0    0  0.00000000000E+00  0.00000000000E+00  0.82211124184E+03  0.93137841644E+03  0.43772007110E+03 0.  0.
      99925    2    3    3    0    0  0.69536989041E+01  0.84032671004E+02  0.62362742974E+03  0.68207303044E+03  0.26306387816E+03 0.  0.
         25    1    4    4    0    0  0.44189633852E+01  0.24336565049E+02  0.39106010897E+03  0.41132385362E+03  0.12509000000E+03 0.  0.
         25    1    3    3    0    0 -0.69536989041E+01 -0.84032671004E+02  0.19848381210E+03  0.24930538600E+03  0.12509000000E+03 0.  0.
         25    1    4    4    0    0  0.25347355189E+01  0.59696105954E+02  0.23256732078E+03  0.27074917681E+03  0.12509000000E+03 0.  0.
<mgrwt>
<rscale>  2 0.43772007E+03</rscale>
<asrwt>0</asrwt>
<pdfrwt beam="1">  1       21 0.12893305E+00 0.43772007E+03</pdfrwt>
<pdfrwt beam="2">  1       21 0.80343516E-02 0.43772007E+03</pdfrwt>
<totfact> 0.48080836E+04</totfact>
</mgrwt>
</event>
<event>
 7    0  0.4705418E-002  0.4478374E+03  0.7546771E-02  0.1028369E+00
         21   -1    0    0  502  501  0.00000000000E+00  0.00000000000E+00  0.47158588354E+03  0.47158588354E+03  0.00000000000E+00 0. -1.
         21   -1    0    0  501  502 -0.00000000000E+00 -0.00000000000E+00 -0.10632122711E+03  0.10632122711E+03  0.00000000000E+00 0. -1.
      99926    2    1    2    0    0  0.00000000000E+00  0.00000000000E+00  0.36526465643E+03  0.57790711064E+03  0.44783742507E+03 0.  0.
      99925    2    3    3    0    0 -0.61228939561E+02  0.56025840304E+02  0.31707964407E+03  0.42024550676E+03  0.26301883478E+03 0.  0.
         25    1    4    4    0    0 -0.46267807976E+02  0.95657614933E+01  0.20788166248E+03  0.24717303158E+03  0.12509000000E+03 0.  0.
         25    1    4    4    0    0 -0.14961131585E+02  0.46460078811E+02  0.10919798159E+03  0.17307247518E+03  0.12509000000E+03 0.  0.
         25    1    3    3    0    0  0.61228939561E+02 -0.56025840304E+02  0.48185012365E+02  0.15766160388E+03  0.12509000000E+03 0.  0.
<mgrwt>
<rscale>  2 0.44783743E+03</rscale>
<asrwt>0</asrwt>
<pdfrwt beam="1">  1       21 0.69350864E-01 0.44783743E+03</pdfrwt>
<pdfrwt beam="2">  1       21 0.15635475E-01 0.44783743E+03</pdfrwt>
<totfact> 0.63583986E+04</totfact>
</mgrwt>
</event>
<event>
 7    0  0.4705418E-002  0.4504223E+03  0.7546771E-02  0.1027596E+00
         21   -1    0    0  502  501  0.00000000000E+00  0.00000000000E+00  0.42626283085E+02  0.42626283085E+02  0.00000000000E+00 0. -1.
         21   -1    0    0  501  502 -0.00000000000E+00 -0.00000000000E+00 -0.11898774609E+04  0.11898774609E+04  0.00000000000E+00 0. -1.
      99926    2    1    2    0    0  0.00000000000E+00  0.00000000000E+00 -0.11472511778E+04  0.12325037439E+04  0.45042226181E+03 0.  0.
      99925    2    3    3    0    0  0.17547773695E+02 -0.56496722786E+00 -0.43119536640E+03  0.50539187039E+03  0.26302709957E+03 0.  0.
         25    1    3    3    0    0 -0.17547773695E+02  0.56496722786E+00 -0.71605581138E+03  0.72711187355E+03  0.12509000000E+03 0.  0.
         25    1    4    4    0    0  0.48303050572E+01 -0.40916480479E+01 -0.29230627639E+03  0.31801028403E+03  0.12509000000E+03 0.  0.
         25    1    4    4    0    0  0.12717468638E+02  0.35266808200E+01 -0.13888909001E+03  0.18738158637E+03  0.12509000000E+03 0.  0.
<mgrwt>
<rscale>  2 0.45042226E+03</rscale>
<asrwt>0</asrwt>
<pdfrwt beam="1">  1       21 0.62685710E-02 0.45042226E+03</pdfrwt>
<pdfrwt beam="2">  1       21 0.17498198E+00 0.45042226E+03</pdfrwt>
<totfact> 0.32274689E+04</totfact>
</mgrwt>
</event>
<event>
 7    0  0.4705418E-002  0.4566789E+03  0.7546771E-02  0.1025749E+00
         21   -1    0    0  502  501  0.00000000000E+00  0.00000000000E+00  0.10635114366E+03  0.10635114366E+03  0.00000000000E+00 0. -1.
         21   -1    0    0  501  502 -0.00000000000E+00 -0.00000000000E+00 -0.49025250283E+03  0.49025250283E+03  0.00000000000E+00 0. -1.
      99926    2    1    2    0    0  0.71054273576E-14  0.00000000000E+00 -0.38390135917E+03  0.59660364649E+03  0.45667894349E+03 0.  0.
      99925    2    3    3    0    0  0.50511907524E+02 -0.10261811252E+03 -0.22865357526E+03  0.36675301601E+03  0.26295130245E+03 0.  0.
         25    1    3    3    0    0 -0.50511907524E+02  0.10261811252E+03 -0.15524778391E+03  0.22985063047E+03  0.12509000000E+03 0.  0.
         25    1    4    4    0    0  0.12335637034E+02 -0.97714697193E+01 -0.10873187611E+03  0.16648657166E+03  0.12509000000E+03 0.  0.
         25    1    4    4    0    0  0.38176270489E+02 -0.92846642796E+02 -0.11992169915E+03  0.20026644435E+03  0.12509000000E+03 0.  0.
<mgrwt>
<rscale>  2 0.45667894E+03</rscale>
<asrwt>0</asrwt>
<pdfrwt beam="1">  1       21 0.15639874E-01 0.45667894E+03</pdfrwt>
<pdfrwt beam="2">  1       21 0.72095957E-01 0.45667894E+03</pdfrwt>
<totfact> 0.58112968E+04</totfact>
</mgrwt>
</event>
<event>
 7    0  0.4705418E-002  0.4434876E+03  0.7546771E-02  0.1029682E+00
         21   -1    0    0  502  501  0.00000000000E+00  0.00000000000E+00  0.15312187026E+04  0.15312187026E+04  0.00000000000E+00 0.  1.
         21   -1    0    0  501  502 -0.00000000000E+00 -0.00000000000E+00 -0.32111878778E+02  0.32111878778E+02  0.00000000000E+00 0.  1.
      99926    2    1    2    0    0  0.00000000000E+00  0.00000000000E+00  0.14991068238E+04  0.15633305813E+04  0.44348758431E+03 0.  0.
      99925    2    3    3    0    0  0.32498918050E+02 -0.59800426862E+02  0.12213670159E+04  0.12512101242E+04  0.26297740754E+03 0.  0.
         25    1    4    4    0    0  0.23582180336E+02 -0.52365447569E+02  0.79082274508E+03  0.80271189201E+03  0.12509000000E+03 0.  0.
         25    1    4    4    0    0  0.89167377138E+01 -0.74349792932E+01  0.43054427077E+03  0.44849823224E+03  0.12509000000E+03 0.  0.
         25    1    3    3    0    0 -0.32498918050E+02  0.59800426862E+02  0.27773980793E+03  0.31212045710E+03  0.12509000000E+03 0.  0.
<mgrwt>
<rscale>  2 0.44348758E+03</rscale>
<asrwt>0</asrwt>
<pdfrwt beam="1">  1       21 0.22517917E+00 0.44348758E+03</pdfrwt>
<pdfrwt beam="2">  1       21 0.47223361E-02 0.44348758E+03</pdfrwt>
<totfact> 0.24376567E+04</totfact>
</mgrwt>
</event>
<event>
 7    0  0.4705418E-002  0.4533830E+03  0.7546771E-02  0.1026718E+00
         21   -1    0    0  502  501  0.00000000000E+00  0.00000000000E+00  0.96865723219E+02  0.96865723219E+02  0.00000000000E+00 0. -1.
         21   -1    0    0  501  502 -0.00000000000E+00 -0.00000000000E+00 -0.53051827529E+03  0.53051827529E+03  0.00000000000E+00 0. -1.
      99926    2    1    2    0    0  0.00000000000E+00  0.00000000000E+00 -0.43365255207E+03  0.62738399851E+03  0.45338300108E+03 0.  0.
      99925    2    3    3    0    0  0.25062612004E+02 -0.92101163012E+02 -0.35330020094E+03  0.45070698478E+03  0.26306842341E+03 0.  0.
         25    1    4    4    0    0  0.16311257412E+02 -0.31736558557E+02 -0.23253518432E+03  0.26644584124E+03  0.12509000000E+03 0.  0.
         25    1    3    3    0    0 -0.25062612004E+02  0.92101163012E+02 -0.80352351129E+02  0.17667701373E+03  0.12509000000E+03 0.  0.
         25    1    4    4    0    0  0.87513545920E+01 -0.60364604455E+02 -0.12076501662E+03  0.18426114354E+03  0.12509000000E+03 0.  0.
<mgrwt>
<rscale>  2 0.45338300E+03</rscale>
<asrwt>0</asrwt>
<pdfrwt beam="1">  1       21 0.14244960E-01 0.45338300E+03</pdfrwt>
<pdfrwt beam="2">  1       21 0.78017392E-01 0.45338300E+03</pdfrwt>
<totfact> 0.57757375E+04</totfact>
</mgrwt>
</event>
<event>
 7    0  0.4705418E-002  0.4534946E+03  0.7546771E-02  0.1026685E+00
         21   -1    0    0  502  501  0.00000000000E+00  0.00000000000E+00  0.78594220764E+03  0.78594220764E+03  0.00000000000E+00 0.  1.
         21   -1    0    0  501  502 -0.00000000000E+00 -0.00000000000E+00 -0.65417446919E+02  0.65417446919E+02  0.00000000000E+00 0.  1.
      99926    2    1    2    0    0  0.35527136788E-14  0.00000000000E+00  0.72052476072E+03  0.85135965455E+03  0.45349457615E+03 0.  0.
      99925    2    3    3    0    0  0.30382770053E+02  0.10719659822E+02  0.25330799429E+03  0.36661535211E+03  0.26306625137E+03 0.  0.
         25    1    3    3    0    0 -0.30382770053E+02 -0.10719659822E+02  0.46721676643E+03  0.48474430245E+03  0.12509000000E+03 0.  0.
         25    1    4    4    0    0  0.39146359805E+02 -0.17724330889E+02  0.95944705839E+02  0.16339976766E+03  0.12509000000E+03 0.  0.
         25    1    4    4    0    0 -0.87635897520E+01  0.28443990710E+02  0.15736328845E+03  0.20321558445E+03  0.12509000000E+03 0.  0.
<mgrwt>
<rscale>  2 0.45349458E+03</rscale>
<asrwt>0</asrwt>
<pdfrwt beam="1">  1       21 0.11557973E+00 0.45349458E+03</pdfrwt>
<pdfrwt beam="2">  1       21 0.96202132E-02 0.45349458E+03</pdfrwt>
<totfact> 0.45918476E+04</totfact>
</mgrwt>
</event>
<event>
 7    0  0.4705418E-002  0.4534725E+03  0.7546771E-02  0.1026692E+00
         21   -1    0    0  502  501  0.00000000000E+00  0.00000000000E+00  0.13787146023E+03  0.13787146023E+03  0.00000000000E+00 0.  1.
         21   -1    0    0  501  502 -0.00000000000E+00 -0.00000000000E+00 -0.37287866357E+03  0.37287866357E+03  0.00000000000E+00 0.  1.
      99926    2    1    2    0    0  0.00000000000E+00  0.00000000000E+00 -0.23500720334E+03  0.51075012380E+03  0.45347249458E+03 0.  0.
      99925    2    3    3    0    0  0.19196368684E+02  0.44962304424E+02 -0.26133290801E+03  0.37389012155E+03  0.26288557357E+03 0.  0.
         25    1    4    4    0    0 -0.30093924606E+01  0.27565792310E+02 -0.18376859773E+03  0.22402529982E+03  0.12509000000E+03 0.  0.
         25    1    3    3    0    0 -0.19196368684E+02 -0.44962304424E+02  0.26325704678E+02  0.13686000225E+03  0.12509000000E+03 0.  0.
         25    1    4    4    0    0  0.22205761144E+02  0.17396512114E+02 -0.77564310289E+02  0.14986482173E+03  0.12509000000E+03 0.  0.
<mgrwt>
<rscale>  2 0.45347249E+03</rscale>
<asrwt>0</asrwt>
<pdfrwt beam="1">  1       21 0.20275215E-01 0.45347249E+03</pdfrwt>
<pdfrwt beam="2">  1       21 0.54835097E-01 0.45347249E+03</pdfrwt>
<totfact> 0.65309953E+04</totfact>
</mgrwt>
</event>
<event>
 7    0  0.4705418E-002  0.4556585E+03  0.7546771E-02  0.1026048E+00
         21   -1    0    0  502  501  0.00000000000E+00  0.00000000000E+00  0.98817547708E+03  0.98817547708E+03  0.00000000000E+00 0. -1.
         21   -1    0    0  501  502 -0.00000000000E+00 -0.00000000000E+00 -0.52527275252E+02  0.52527275252E+02  0.00000000000E+00 0. -1.
      99926    2    1    2    0    0 -0.44408920985E-15  0.00000000000E+00  0.93564820183E+03  0.10407027523E+04  0.45565849178E+03 0.  0.
      99925    2    3    3    0    0  0.21856755143E+01  0.30030326727E+02  0.33816741950E+03  0.42952569857E+03  0.26311313995E+03 0.  0.
         25    1    3    3    0    0 -0.21856755143E+01 -0.30030326727E+02  0.59748078232E+03  0.61117705376E+03  0.12509000000E+03 0.  0.
         25    1    4    4    0    0  0.78198172718E+01 -0.25416553163E+02  0.16395077735E+03  0.20792911342E+03  0.12509000000E+03 0.  0.
         25    1    4    4    0    0 -0.56341417575E+01  0.55446879890E+02  0.17421664216E+03  0.22159658514E+03  0.12509000000E+03 0.  0.
<mgrwt>
<rscale>  2 0.45565849E+03</rscale>
<asrwt>0</asrwt>
<pdfrwt beam="1">  1       21 0.14531991E+00 0.45565849E+03</pdfrwt>
<pdfrwt beam="2">  1       21 0.77245999E-02 0.45565849E+03</pdfrwt>
<totfact> 0.37427642E+04</totfact>
</mgrwt>
</event>
<event>
 7    0  0.4705418E-002  0.4534394E+03  0.7546771E-02  0.1026701E+00
         21   -1    0    0  502  501  0.00000000000E+00  0.00000000000E+00  0.18700007258E+03  0.18700007258E+03  0.00000000000E+00 0. -1.
         21   -1    0    0  501  502 -0.00000000000E+00 -0.00000000000E+00 -0.27487589694E+03  0.27487589694E+03  0.00000000000E+00 0. -1.
      99926    2    1    2    0    0 -0.14210854715E-13  0.00000000000E+00 -0.87875824363E+02  0.46187596951E+03  0.45343935725E+03 0.  0.
      99925    2    3    3    0    0 -0.87861544727E+02  0.19170818303E+02 -0.12281162273E+03  0.30390385354E+03  0.26303552271E+03 0.  0.
         25    1    3    3    0    0  0.87861544727E+02 -0.19170818303E+02  0.34935798365E+02  0.15797211597E+03  0.12509000000E+03 0.  0.
         25    1    4    4    0    0 -0.15674469676E+02  0.26805388990E+02 -0.30885921950E+02  0.13253552789E+03  0.12509000000E+03 0.  0.
         25    1    4    4    0    0 -0.72187075051E+02 -0.76345706871E+01 -0.91925700777E+02  0.17136832565E+03  0.12509000000E+03 0.  0.
<mgrwt>
<rscale>  2 0.45343936E+03</rscale>
<asrwt>0</asrwt>
<pdfrwt beam="1">  1       21 0.27500011E-01 0.45343936E+03</pdfrwt>
<pdfrwt beam="2">  1       21 0.40422925E-01 0.45343936E+03</pdfrwt>
<totfact> 0.68893457E+04</totfact>
</mgrwt>
</event>
<event>
 7    0  0.4705418E-002  0.4579428E+03  0.7546771E-02  0.1025380E+00
         21   -1    0    0  502  501  0.00000000000E+00  0.00000000000E+00  0.64790068163E+03  0.64790068163E+03  0.00000000000E+00 0.  1.
         21   -1    0    0  501  502 -0.00000000000E+00 -0.00000000000E+00 -0.80919666413E+02  0.80919666413E+02  0.00000000000E+00 0.  1.
      99926    2    1    2    0    0  0.00000000000E+00 -0.71054273576E-14  0.56698101522E+03  0.72882034805E+03  0.45794282187E+03 0.  0.
      99925    2    3    3    0    0  0.79279682374E+02  0.62692216535E+02  0.44544669585E+03  0.52724237074E+03  0.26333662222E+03 0.  0.
         25    1    4    4    0    0  0.32031027013E+01  0.27453008818E+02  0.24568992625E+03  0.27708297588E+03  0.12509000000E+03 0.  0.
         25    1    4    4    0    0  0.76076579672E+02  0.35239207717E+02  0.19975676960E+03  0.25015939486E+03  0.12509000000E+03 0.  0.
         25    1    3    3    0    0 -0.79279682374E+02 -0.62692216535E+02  0.12153431937E+03  0.20157797731E+03  0.12509000000E+03 0.  0.
<mgrwt>
<rscale>  2 0.45794282E+03</rscale>
<asrwt>0</asrwt>
<pdfrwt beam="1">  1       21 0.95279509E-01 0.45794282E+03</pdfrwt>
<pdfrwt beam="2">  1       21 0.11899951E-01 0.45794282E+03</pdfrwt>
<totfact> 0.50194305E+04</totfact>
</mgrwt>
</event>
<event>
 7    0  0.4705418E-002  0.4601476E+03  0.7546771E-02  0.1024738E+00
         21   -1    0    0  502  501  0.00000000000E+00  0.00000000000E+00  0.95449166277E+03  0.95449166277E+03  0.00000000000E+00 0. -1.
         21   -1    0    0  501  502 -0.00000000000E+00 -0.00000000000E+00 -0.55457741612E+02  0.55457741612E+02  0.00000000000E+00 0. -1.
      99926    2    1    2    0    0  0.00000000000E+00  0.00000000000E+00  0.89903392115E+03  0.10099494044E+04  0.46014759373E+03 0.  0.
      99925    2    3    3    0    0  0.64669640412E+02 -0.97484078582E+02  0.53061604583E+03  0.60366804014E+03  0.26301408067E+03 0.  0.
         25    1    4    4    0    0  0.13602661537E+02 -0.29020936253E+02  0.17808945801E+03  0.21997865873E+03  0.12509000000E+03 0.  0.
         25    1    4    4    0    0  0.51066978874E+02 -0.68463142329E+02  0.35252658782E+03  0.38368938141E+03  0.12509000000E+03 0.  0.
         25    1    3    3    0    0 -0.64669640412E+02  0.97484078582E+02  0.36841787533E+03  0.40628136424E+03  0.12509000000E+03 0.  0.
<mgrwt>
<rscale>  2 0.46014759E+03</rscale>
<asrwt>0</asrwt>
<pdfrwt beam="1">  1       21 0.14036641E+00 0.46014759E+03</pdfrwt>
<pdfrwt beam="2">  1       21 0.81555508E-02 0.46014759E+03</pdfrwt>
<totfact> 0.37261538E+04</totfact>
</mgrwt>
</event>
<event>
 7    0  0.4705418E-002  0.4531354E+03  0.7546771E-02  0.1026791E+00
         21   -1    0    0  502  501  0.00000000000E+00  0.00000000000E+00  0.63203235073E+03  0.63203235073E+03  0.00000000000E+00 0.  1.
         21   -1    0    0  501  502 -0.00000000000E+00 -0.00000000000E+00 -0.81218838527E+02  0.81218838527E+02  0.00000000000E+00 0.  1.
      99926    2    1    2    0    0  0.00000000000E+00 -0.71054273576E-14  0.55081351220E+03  0.71325118926E+03  0.45313544747E+03 0.  0.
      99925    2    3    3    0    0 -0.80312637584E+01  0.63103792895E+02  0.20357228040E+03  0.33872405934E+03  0.26314582489E+03 0.  0.
         25    1    4    4    0    0 -0.55494271295E+01  0.72988618103E+02  0.10129590727E+03  0.17682336792E+03  0.12509000000E+03 0.  0.
         25    1    4    4    0    0 -0.24818366289E+01 -0.98848252080E+01  0.10227637313E+03  0.16190069142E+03  0.12509000000E+03 0.  0.
         25    1    3    3    0    0  0.80312637584E+01 -0.63103792895E+02  0.34724123180E+03  0.37452712991E+03  0.12509000000E+03 0.  0.
<mgrwt>
<rscale>  2 0.45313545E+03</rscale>
<asrwt>0</asrwt>
<pdfrwt beam="1">  1       21 0.92945931E-01 0.45313545E+03</pdfrwt>
<pdfrwt beam="2">  1       21 0.11943947E-01 0.45313545E+03</pdfrwt>
<totfact> 0.52962025E+04</totfact>
</mgrwt>
</event>
<event>
 7    0  0.4705418E-002  0.4610795E+03  0.7546771E-02  0.1024469E+00
         21   -1    0    0  502  501  0.00000000000E+00  0.00000000000E+00  0.80073474916E+02  0.80073474916E+02  0.00000000000E+00 0.  1.
         21   -1    0    0  501  502 -0.00000000000E+00 -0.00000000000E+00 -0.66374755655E+03  0.66374755655E+03  0.00000000000E+00 0.  1.
      99926    2    1    2    0    0 -0.35527136788E-14  0.14210854715E-13 -0.58367408163E+03  0.74382103147E+03  0.46107948694E+03 0.  0.
      99925    2    3    3    0    0 -0.20083552978E+02  0.10850274764E+03 -0.43631320306E+03  0.52124760093E+03  0.26297082531E+03 0.  0.
         25    1    3    3    0    0  0.20083552978E+02 -0.10850274764E+03 -0.14736087857E+03  0.22257343053E+03  0.12509000000E+03 0.  0.
         25    1    4    4    0    0 -0.49655099343E+02  0.45780287160E+02 -0.21686401354E+03  0.25930478602E+03  0.12509000000E+03 0.  0.
         25    1    4    4    0    0  0.29571546365E+02  0.62722460483E+02 -0.21944918952E+03  0.26194281491E+03  0.12509000000E+03 0.  0.
<mgrwt>
<rscale>  2 0.46107949E+03</rscale>
<asrwt>0</asrwt>
<pdfrwt beam="1">  1       21 0.11775511E-01 0.46107949E+03</pdfrwt>
<pdfrwt beam="2">  1       21 0.97609933E-01 0.46107949E+03</pdfrwt>
<totfact> 0.48240428E+04</totfact>
</mgrwt>
</event>
<event>
 7    0  0.4705418E-002  0.4523406E+03  0.7546771E-02  0.1027026E+00
         21   -1    0    0  502  501  0.00000000000E+00  0.00000000000E+00  0.42436771188E+03  0.42436771188E+03  0.00000000000E+00 0. -1.
         21   -1    0    0  501  502 -0.00000000000E+00 -0.00000000000E+00 -0.12053932245E+03  0.12053932245E+03  0.00000000000E+00 0. -1.
      99926    2    1    2    0    0  0.00000000000E+00  0.00000000000E+00  0.30382838943E+03  0.54490703433E+03  0.45234056400E+03 0.  0.
      99925    2    3    3    0    0  0.88460660496E+02 -0.16454312332E+02  0.26918829586E+03  0.38697199378E+03  0.26303792976E+03 0.  0.
         25    1    3    3    0    0 -0.88460660496E+02  0.16454312332E+02  0.34640093563E+02  0.15793504054E+03  0.12509000000E+03 0.  0.
         25    1    4    4    0    0  0.71209997797E+02 -0.40082806547E+02  0.13904845503E+03  0.20410653128E+03  0.12509000000E+03 0.  0.
         25    1    4    4    0    0  0.17250662698E+02  0.23628494215E+02  0.13013984083E+03  0.18286546250E+03  0.12509000000E+03 0.  0.
<mgrwt>
<rscale>  2 0.45234056E+03</rscale>
<asrwt>0</asrwt>
<pdfrwt beam="1">  1       21 0.62407016E-01 0.45234056E+03</pdfrwt>
<pdfrwt beam="2">  1       21 0.17726371E-01 0.45234056E+03</pdfrwt>
<totfact> 0.63530730E+04</totfact>
</mgrwt>
</event>
<event>
 7    0  0.4705418E-002  0.4590614E+03  0.7546771E-02  0.1025054E+00
         21   -1    0    0  502  501  0.00000000000E+00  0.00000000000E+00  0.27336865223E+03  0.27336865223E+03  0.00000000000E+00 0.  1.
         21   -1    0    0  501  502 -0.00000000000E+00 -0.00000000000E+00 -0.19272272380E+03  0.19272272380E+03  0.00000000000E+00 0.  1.
      99926    2    1    2    0    0  0.00000000000E+00  0.00000000000E+00  0.80645928429E+02  0.46609137604E+03  0.45906143929E+03 0.  0.
      99925    2    3    3    0    0  0.49666047641E+02 -0.26475815811E+02  0.15467227985E+03  0.31022254042E+03  0.26295783944E+03 0.  0.
         25    1    3    3    0    0 -0.49666047641E+02  0.26475815811E+02 -0.74026351421E+02  0.15586883561E+03  0.12509000000E+03 0.  0.
         25    1    4    4    0    0  0.55781514622E+02  0.10297694813E+02  0.92892694966E+02  0.16581369295E+03  0.12509000000E+03 0.  0.
         25    1    4    4    0    0 -0.61154669811E+01 -0.36773510623E+02  0.61779584884E+02  0.14440884747E+03  0.12509000000E+03 0.  0.
<mgrwt>
<rscale>  2 0.45906144E+03</rscale>
<asrwt>0</asrwt>
<pdfrwt beam="1">  1       21 0.40201273E-01 0.45906144E+03</pdfrwt>
<pdfrwt beam="2">  1       21 0.28341577E-01 0.45906144E+03</pdfrwt>
<totfact> 0.65585971E+04</totfact>
</mgrwt>
</event>
<event>
 7    0  0.4705418E-002  0.4539273E+03  0.7546771E-02  0.1026557E+00
         21   -1    0    0  502  501  0.00000000000E+00  0.00000000000E+00  0.97111767031E+03  0.97111767031E+03  0.00000000000E+00 0. -1.
         21   -1    0    0  501  502 -0.00000000000E+00 -0.00000000000E+00 -0.53044551780E+02  0.53044551780E+02  0.00000000000E+00 0. -1.
      99926    2    1    2    0    0  0.00000000000E+00  0.00000000000E+00  0.91807311853E+03  0.10241622221E+04  0.45392731377E+03 0.  0.
      99925    2    3    3    0    0 -0.44817642398E+02 -0.10213293590E+03  0.55171585188E+03  0.62129138349E+03  0.26300730849E+03 0.  0.
         25    1    3    3    0    0  0.44817642398E+02  0.10213293590E+03  0.36635726666E+03  0.40287083861E+03  0.12509000000E+03 0.  0.
         25    1    4    4    0    0 -0.26841178082E+02 -0.13592052327E+02  0.29389232805E+03  0.32081988921E+03  0.12509000000E+03 0.  0.
         25    1    4    4    0    0 -0.17976464316E+02 -0.88540883577E+02  0.25782352383E+03  0.30047149427E+03  0.12509000000E+03 0.  0.
<mgrwt>
<rscale>  2 0.45392731E+03</rscale>
<asrwt>0</asrwt>
<pdfrwt beam="1">  1       21 0.14281141E+00 0.45392731E+03</pdfrwt>
<pdfrwt beam="2">  1       21 0.78006700E-02 0.45392731E+03</pdfrwt>
<totfact> 0.38561913E+04</totfact>
</mgrwt>
</event>
<event>
 7    0  0.4705418E-002  0.4537171E+03  0.7546771E-02  0.1026619E+00
         21   -1    0    0  502  501  0.00000000000E+00  0.00000000000E+00  0.12040624779E+04  0.12040624779E+04  0.00000000000E+00 0. -1.
         21   -1    0    0  501  502 -0.00000000000E+00 -0.00000000000E+00 -0.42742635810E+02  0.42742635810E+02  0.00000000000E+00 0. -1.
      99926    2    1    2    0    0  0.00000000000E+00  0.00000000000E+00  0.11613198421E+04  0.12468051137E+04  0.45371711003E+03 0.  0.
      99925    2    3    3    0    0 -0.61699544262E+02 -0.74462418541E+02  0.57672909324E+03  0.64121008625E+03  0.26302555425E+03 0.  0.
         25    1    4    4    0    0 -0.41660919026E+02  0.26956755695E+01  0.27643098925E+03  0.30627520102E+03  0.12509000000E+03 0.  0.
         25    1    3    3    0    0  0.61699544262E+02  0.74462418541E+02  0.58459074882E+03  0.60559502742E+03  0.12509000000E+03 0.  0.
         25    1    4    4    0    0 -0.20038625236E+02 -0.77158094111E+02  0.30029810399E+03  0.33493488523E+03  0.12509000000E+03 0.  0.
<mgrwt>
<rscale>  2 0.45371711E+03</rscale>
<asrwt>0</asrwt>
<pdfrwt beam="1">  1       21 0.17706799E+00 0.45371711E+03</pdfrwt>
<pdfrwt beam="2">  1       21 0.62856825E-02 0.45371711E+03</pdfrwt>
<totfact> 0.31008070E+04</totfact>
</mgrwt>
</event>
<event>
 7    0  0.4705418E-002  0.4566973E+03  0.7546771E-02  0.1025743E+00
         21   -1    0    0  502  501  0.00000000000E+00  0.00000000000E+00  0.18287827371E+03  0.18287827371E+03  0.00000000000E+00 0.  1.
         21   -1    0    0  501  502 -0.00000000000E+00 -0.00000000000E+00 -0.28512471317E+03  0.28512471317E+03  0.00000000000E+00 0.  1.
      99926    2    1    2    0    0 -0.35527136788E-14  0.00000000000E+00 -0.10224643946E+03  0.46800298687E+03  0.45669734107E+03 0.  0.
      99925    2    3    3    0    0 -0.24930078337E+02 -0.69935800718E+02  0.25131800549E+02  0.27465033198E+03  0.26322741580E+03 0.  0.
         25    1    4    4    0    0  0.21027552151E+02 -0.57282460198E+02  0.49021535694E+01  0.13926585154E+03  0.12509000000E+03 0.  0.
         25    1    4    4    0    0 -0.45957630489E+02 -0.12653340520E+02  0.20229646980E+02  0.13538448044E+03  0.12509000000E+03 0.  0.
         25    1    3    3    0    0  0.24930078337E+02  0.69935800718E+02 -0.12737824001E+03  0.19335265490E+03  0.12509000000E+03 0.  0.
<mgrwt>
<rscale>  2 0.45669734E+03</rscale>
<asrwt>0</asrwt>
<pdfrwt beam="1">  1       21 0.26893864E-01 0.45669734E+03</pdfrwt>
<pdfrwt beam="2">  1       21 0.41930104E-01 0.45669734E+03</pdfrwt>
<totfact> 0.66682563E+04</totfact>
</mgrwt>
</event>
<event>
 7    0  0.4705418E-002  0.4477970E+03  0.7546771E-02  0.1028381E+00
         21   -1    0    0  502  501  0.00000000000E+00  0.00000000000E+00  0.57023898608E+03  0.57023898608E+03  0.00000000000E+00 0. -1.
         21   -1    0    0  501  502 -0.00000000000E+00 -0.00000000000E+00 -0.87911442725E+02  0.87911442725E+02  0.00000000000E+00 0. -1.
      99926    2    1    2    0    0  0.00000000000E+00  0.00000000000E+00  0.48232754335E+03  0.65815042880E+03  0.44779697169E+03 0.  0.
      99925    2    3    3    0    0 -0.80809317302E+02 -0.65099458982E+02  0.33870243342E+03  0.44125468052E+03  0.26309365129E+03 0.  0.
         25    1    4    4    0    0 -0.10856693891E+02 -0.17409548481E+02  0.11387548085E+03  0.17039980464E+03  0.12509000000E+03 0.  0.
         25    1    4    4    0    0 -0.69952623411E+02 -0.47689910501E+02  0.22482695257E+03  0.27085487588E+03  0.12509000000E+03 0.  0.
         25    1    3    3    0    0  0.80809317302E+02  0.65099458982E+02  0.14362510993E+03  0.21689574829E+03  0.12509000000E+03 0.  0.
<mgrwt>
<rscale>  2 0.44779697E+03</rscale>
<asrwt>0</asrwt>
<pdfrwt beam="1">  1       21 0.83858673E-01 0.44779697E+03</pdfrwt>
<pdfrwt beam="2">  1       21 0.12928154E-01 0.44779697E+03</pdfrwt>
<totfact> 0.58486017E+04</totfact>
</mgrwt>
</event>
<event>
 7    0  0.4705418E-002  0.4469861E+03  0.7546771E-02  0.1028625E+00
         21   -1    0    0  502  501  0.00000000000E+00  0.00000000000E+00  0.68095360608E+03  0.68095360608E+03  0.00000000000E+00 0. -1.
         21   -1    0    0  501  502 -0.00000000000E+00 -0.00000000000E+00 -0.73351758618E+02  0.73351758618E+02  0.00000000000E+00 0. -1.
      99926    2    1    2    0    0  0.00000000000E+00  0.00000000000E+00  0.60760184747E+03  0.75430536470E+03  0.44698610512E+03 0.  0.
      99925    2    3    3    0    0 -0.53731753713E+02 -0.81458779109E+02  0.31764467873E+03  0.42378259415E+03  0.26300363330E+03 0.  0.
         25    1    4    4    0    0 -0.12739767612E+02 -0.71440499914E+02  0.20099717228E+03  0.24761546412E+03  0.12509000000E+03 0.  0.
         25    1    3    3    0    0  0.53731753713E+02  0.81458779109E+02  0.28995716873E+03  0.33052277055E+03  0.12509000000E+03 0.  0.
         25    1    4    4    0    0 -0.40991986102E+02 -0.10018279195E+02  0.11664750645E+03  0.17616713003E+03  0.12509000000E+03 0.  0.
<mgrwt>
<rscale>  2 0.44698611E+03</rscale>
<asrwt>0</asrwt>
<pdfrwt beam="1">  1       21 0.10014023E+00 0.44698611E+03</pdfrwt>
<pdfrwt beam="2">  1       21 0.10787024E-01 0.44698611E+03</pdfrwt>
<totfact> 0.53331089E+04</totfact>
</mgrwt>
</event>
<event>
 7    0  0.4705418E-002  0.4552895E+03  0.7546771E-02  0.1026156E+00
         21   -1    0    0  502  501  0.00000000000E+00  0.00000000000E+00  0.24562834345E+03  0.24562834345E+03  0.00000000000E+00 0. -1.
         21   -1    0    0  501  502 -0.00000000000E+00 -0.00000000000E+00 -0.21097779017E+03  0.21097779017E+03  0.00000000000E+00 0. -1.
      99926    2    1    2    0    0 -0.14210854715E-13  0.00000000000E+00  0.34650553277E+02  0.45660613362E+03  0.45528946882E+03 0.  0.
      99925    2    3    3    0    0  0.88614142308E+02  0.22287767029E+02 -0.45657433283E+02  0.28211804927E+03  0.26297677033E+03 0.  0.
         25    1    4    4    0    0  0.63166840390E+02 -0.10702362369E+02  0.56124837072E+01  0.14065418002E+03  0.12509000000E+03 0.  0.
         25    1    3    3    0    0 -0.88614142308E+02 -0.22287767029E+02  0.80307986560E+02  0.17448808435E+03  0.12509000000E+03 0.  0.
         25    1    4    4    0    0  0.25447301918E+02  0.32990129398E+02 -0.51269916990E+02  0.14146386924E+03  0.12509000000E+03 0.  0.
<mgrwt>
<rscale>  2 0.45528947E+03</rscale>
<asrwt>0</asrwt>
<pdfrwt beam="1">  1       21 0.36121815E-01 0.45528947E+03</pdfrwt>
<pdfrwt beam="2">  1       21 0.31026146E-01 0.45528947E+03</pdfrwt>
<totfact> 0.68270510E+04</totfact>
</mgrwt>
</event>
<event>
 7    0  0.4705418E-002  0.4594475E+03  0.7546771E-02  0.1024942E+00
         21   -1    0    0  502  501  0.00000000000E+00  0.00000000000E+00  0.31203284442E+03  0.31203284442E+03  0.00000000000E+00 0. -1.
         21   -1    0    0  501  502 -0.00000000000E+00 -0.00000000000E+00 -0.16912641121E+03  0.16912641121E+03  0.00000000000E+00 0. -1.
      99926    2    1    2    0    0  0.00000000000E+00  0.00000000000E+00  0.14290643321E+03  0.48115925563E+03  0.45944747320E+03 0.  0.
      99925    2    3    3    0    0  0.18602813156E+02  0.75453050914E+02  0.18161146061E+03  0.32889364955E+03  0.26296213137E+03 0.  0.
         25    1    3    3    0    0 -0.18602813156E+02 -0.75453050914E+02 -0.38705027407E+02  0.15226560608E+03  0.12509000000E+03 0.  0.
         25    1    4    4    0    0  0.41117865922E+01  0.38554995626E+01  0.11276173404E+03  0.16850664209E+03  0.12509000000E+03 0.  0.
         25    1    4    4    0    0  0.14491026564E+02  0.71597551351E+02  0.68849726574E+02  0.16038700745E+03  0.12509000000E+03 0.  0.
<mgrwt>
<rscale>  2 0.45944747E+03</rscale>
<asrwt>0</asrwt>
<pdfrwt beam="1">  1       21 0.45887183E-01 0.45944747E+03</pdfrwt>
<pdfrwt beam="2">  1       21 0.24871531E-01 0.45944747E+03</pdfrwt>
<totfact> 0.64315329E+04</totfact>
</mgrwt>
</event>
<event>
 7    0  0.4705418E-002  0.4524218E+03  0.7546771E-02  0.1027002E+00
         21   -1    0    0  502  501  0.00000000000E+00  0.00000000000E+00  0.29646548650E+02  0.29646548650E+02  0.00000000000E+00 0.  1.
         21   -1    0    0  501  502 -0.00000000000E+00 -0.00000000000E+00 -0.17260484642E+04  0.17260484642E+04  0.00000000000E+00 0.  1.
      99926    2    1    2    0    0  0.71054273576E-14  0.14210854715E-13 -0.16964019155E+04  0.17556950128E+04  0.45242183751E+03 0.  0.
      99925    2    3    3    0    0 -0.32381501299E+02  0.84632280447E+02 -0.82300297296E+03  0.86874269985E+03  0.26299962076E+03 0.  0.
         25    1    4    4    0    0 -0.19535634995E+02  0.63443376049E+00 -0.39659769763E+03  0.41631632854E+03  0.12509000000E+03 0.  0.
         25    1    4    4    0    0 -0.12845866304E+02  0.83997846686E+02 -0.42640527533E+03  0.45242637131E+03  0.12509000000E+03 0.  0.
         25    1    3    3    0    0  0.32381501299E+02 -0.84632280447E+02 -0.87339894255E+03  0.88695231296E+03  0.12509000000E+03 0.  0.
<mgrwt>
<rscale>  2 0.45242184E+03</rscale>
<asrwt>0</asrwt>
<pdfrwt beam="1">  1       21 0.43597857E-02 0.45242184E+03</pdfrwt>
<pdfrwt beam="2">  1       21 0.25383071E+00 0.45242184E+03</pdfrwt>
<totfact> 0.18493912E+04</totfact>
</mgrwt>
</event>
<event>
 7    0  0.4705418E-002  0.4540406E+03  0.7546771E-02  0.1026524E+00
         21   -1    0    0  502  501  0.00000000000E+00  0.00000000000E+00  0.96143796970E+03  0.96143796970E+03  0.00000000000E+00 0.  1.
         21   -1    0    0  501  502 -0.00000000000E+00 -0.00000000000E+00 -0.53605342971E+02  0.53605342971E+02  0.00000000000E+00 0.  1.
      99926    2    1    2    0    0  0.00000000000E+00 -0.14210854715E-13  0.90783262673E+03  0.10150433127E+04  0.45404058017E+03 0.  0.
      99925    2    3    3    0    0 -0.31920293479E+02  0.68145255101E+02  0.38591372721E+03  0.47309356712E+03  0.26310727370E+03 0.  0.
         25    1    4    4    0    0 -0.74754039699E+01  0.69927036526E+02  0.17115337753E+03  0.22335321543E+03  0.12509000000E+03 0.  0.
         25    1    3    3    0    0  0.31920293479E+02 -0.68145255101E+02  0.52191889951E+03  0.54194974555E+03  0.12509000000E+03 0.  0.
         25    1    4    4    0    0 -0.24444889509E+02 -0.17817814254E+01  0.21476034968E+03  0.24974035169E+03  0.12509000000E+03 0.  0.
<mgrwt>
<rscale>  2 0.45404058E+03</rscale>
<asrwt>0</asrwt>
<pdfrwt beam="1">  1       21 0.14138793E+00 0.45404058E+03</pdfrwt>
<pdfrwt beam="2">  1       21 0.78831392E-02 0.45404058E+03</pdfrwt>
<totfact> 0.38877142E+04</totfact>
</mgrwt>
</event>
<event>
 7    0  0.4705418E-002  0.5086185E+03  0.7546771E-02  0.1011554E+00
         21   -1    0    0  502  501  0.00000000000E+00  0.00000000000E+00  0.96140185716E+03  0.96140185716E+03  0.00000000000E+00 0.  1.
         21   -1    0    0  501  502 -0.00000000000E+00 -0.00000000000E+00 -0.67269669730E+02  0.67269669730E+02  0.00000000000E+00 0.  1.
      99926    2    1    2    0    0 -0.14210854715E-13  0.35527136788E-14  0.89413218743E+03  0.10286715269E+04  0.50861846372E+03 0.  0.
      99925    2    3    3    0    0 -0.75292929225E+02 -0.22579812073E+02  0.81727191695E+03  0.86213659847E+03  0.26299668265E+03 0.  0.
         25    1    4    4    0    0 -0.74730970205E+02 -0.19392002361E+01  0.48824428381E+03  0.50952769029E+03  0.12509000000E+03 0.  0.
         25    1    4    4    0    0 -0.56195901971E+00 -0.20640611837E+02  0.32902763314E+03  0.35260890818E+03  0.12509000000E+03 0.  0.
         25    1    3    3    0    0  0.75292929225E+02  0.22579812073E+02  0.76860270478E+02  0.16653492842E+03  0.12509000000E+03 0.  0.
<mgrwt>
<rscale>  2 0.50861846E+03</rscale>
<asrwt>0</asrwt>
<pdfrwt beam="1">  1       21 0.14138262E+00 0.50861846E+03</pdfrwt>
<pdfrwt beam="2">  1       21 0.98925991E-02 0.50861846E+03</pdfrwt>
<totfact> 0.25566529E+04</totfact>
</mgrwt>
</event>
<event>
 7    0  0.4705418E-002  0.4589704E+03  0.7546771E-02  0.1025080E+00
         21   -1    0    0  502  501  0.00000000000E+00  0.00000000000E+00  0.23029845939E+02  0.23029845939E+02  0.00000000000E+00 0.  1.
         21   -1    0    0  501  502 -0.00000000000E+00 -0.00000000000E+00 -0.22867484533E+04  0.22867484533E+04  0.00000000000E+00 0.  1.
      99926    2    1    2    0    0  0.14210854715E-13  0.00000000000E+00 -0.22637186074E+04  0.23097782993E+04  0.45897043295E+03 0.  0.
      99925    2    3    3    0    0 -0.80051385824E+02 -0.53177223862E+02 -0.17541362747E+04  0.17763387962E+04  0.26296274882E+03 0.  0.
         25    1    4    4    0    0 -0.45284220831E+01 -0.44856352724E+02 -0.89564004275E+03  0.90545634532E+03  0.12509000000E+03 0.  0.
         25    1    3    3    0    0  0.80051385824E+02  0.53177223862E+02 -0.50958233268E+03  0.53343950303E+03  0.12509000000E+03 0.  0.
         25    1    4    4    0    0 -0.75522963741E+02 -0.83208711377E+01 -0.85849623195E+03  0.87088245092E+03  0.12509000000E+03 0.  0.
<mgrwt>
<rscale>  2 0.45897043E+03</rscale>
<asrwt>0</asrwt>
<pdfrwt beam="1">  1       21 0.33867429E-02 0.45897043E+03</pdfrwt>
<pdfrwt beam="2">  1       21 0.33628645E+00 0.45897043E+03</pdfrwt>
<totfact> 0.89986156E+03</totfact>
</mgrwt>
</event>
<event>
 7    0  0.4705418E-002  0.4550157E+03  0.7546771E-02  0.1026237E+00
         21   -1    0    0  502  501  0.00000000000E+00  0.00000000000E+00  0.15522792395E+04  0.15522792395E+04  0.00000000000E+00 0. -1.
         21   -1    0    0  501  502 -0.00000000000E+00 -0.00000000000E+00 -0.33344400495E+02  0.33344400495E+02  0.00000000000E+00 0. -1.
      99926    2    1    2    0    0  0.00000000000E+00  0.00000000000E+00  0.15189348390E+04  0.15856236400E+04  0.45501569486E+03 0.  0.
      99925    2    3    3    0    0 -0.96366054867E+02  0.24227928455E+02  0.11451573157E+04  0.11791380264E+04  0.26288362160E+03 0.  0.
         25    1    4    4    0    0 -0.54421356748E+02 -0.10551940621E+02  0.71101366048E+03  0.72405867235E+03  0.12509000000E+03 0.  0.
         25    1    3    3    0    0  0.96366054867E+02 -0.24227928455E+02  0.37377752330E+03  0.40648561361E+03  0.12509000000E+03 0.  0.
         25    1    4    4    0    0 -0.41944698119E+02  0.34779869076E+02  0.43414365524E+03  0.45507935404E+03  0.12509000000E+03 0.  0.
<mgrwt>
<rscale>  2 0.45501569E+03</rscale>
<asrwt>0</asrwt>
<pdfrwt beam="1">  1       21 0.22827631E+00 0.45501569E+03</pdfrwt>
<pdfrwt beam="2">  1       21 0.49035893E-02 0.45501569E+03</pdfrwt>
<totfact> 0.21753748E+04</totfact>
</mgrwt>
</event>
<event>
 7    0  0.4705418E-002  0.4543420E+03  0.7546771E-02  0.1026435E+00
         21   -1    0    0  502  501  0.00000000000E+00  0.00000000000E+00  0.74997291438E+03  0.74997291438E+03  0.00000000000E+00 0.  1.
         21   -1    0    0  501  502 -0.00000000000E+00 -0.00000000000E+00 -0.68811361017E+02  0.68811361017E+02  0.00000000000E+00 0.  1.
      99926    2    1    2    0    0  0.00000000000E+00 -0.13877787808E-14  0.68116155336E+03  0.81878427539E+03  0.45434197237E+03 0.  0.
      99925    2    3    3    0    0 -0.76746606115E+02  0.18547661589E+00  0.28047138916E+03  0.39206400199E+03  0.26298270963E+03 0.  0.
         25    1    4    4    0    0 -0.34670946081E+02  0.39810632249E+02  0.12885445416E+03  0.18718423918E+03  0.12509000000E+03 0.  0.
         25    1    3    3    0    0  0.76746606115E+02 -0.18547661589E+00  0.40069016420E+03  0.42672027341E+03  0.12509000000E+03 0.  0.
         25    1    4    4    0    0 -0.42075660034E+02 -0.39625155633E+02  0.15161693501E+03  0.20487976280E+03  0.12509000000E+03 0.  0.
<mgrwt>
<rscale>  2 0.45434197E+03</rscale>
<asrwt>0</asrwt>
<pdfrwt beam="1">  1       21 0.11029013E+00 0.45434197E+03</pdfrwt>
<pdfrwt beam="2">  1       21 0.10119318E-01 0.45434197E+03</pdfrwt>
<totfact> 0.47112416E+04</totfact>
</mgrwt>
</event>
<event>
 7    0  0.4705418E-002  0.4561790E+03  0.7546771E-02  0.1025895E+00
         21   -1    0    0  502  501  0.00000000000E+00  0.00000000000E+00  0.32399471069E+03  0.32399471069E+03  0.00000000000E+00 0.  1.
         21   -1    0    0  501  502 -0.00000000000E+00 -0.00000000000E+00 -0.16057304355E+03  0.16057304355E+03  0.00000000000E+00 0.  1.
      99926    2    1    2    0    0 -0.33306690739E-15  0.00000000000E+00  0.16342166714E+03  0.48456775424E+03  0.45617898588E+03 0.  0.
      99925    2    3    3    0    0  0.36002829878E+00  0.96203434356E+02  0.16799747071E+03  0.32669541189E+03  0.26315681937E+03 0.  0.
         25    1    4    4    0    0 -0.10355469708E+02  0.66472348975E+01  0.82726302505E+02  0.15047448525E+03  0.12509000000E+03 0.  0.
         25    1    4    4    0    0  0.10715498007E+02  0.89556199459E+02  0.85271168206E+02  0.17622092664E+03  0.12509000000E+03 0.  0.
         25    1    3    3    0    0 -0.36002829878E+00 -0.96203434356E+02 -0.45758035674E+01  0.15787234235E+03  0.12509000000E+03 0.  0.
<mgrwt>
<rscale>  2 0.45617899E+03</rscale>
<asrwt>0</asrwt>
<pdfrwt beam="1">  1       21 0.47646281E-01 0.45617899E+03</pdfrwt>
<pdfrwt beam="2">  1       21 0.23613683E-01 0.45617899E+03</pdfrwt>
<totfact> 0.65751549E+04</totfact>
</mgrwt>
</event>
<event>
 7    0  0.4705418E-002  0.4604378E+03  0.7546771E-02  0.1024654E+00
         21   -1    0    0  502  501  0.00000000000E+00  0.00000000000E+00  0.48980239423E+02  0.48980239423E+02  0.00000000000E+00 0.  1.
         21   -1    0    0  501  502 -0.00000000000E+00 -0.00000000000E+00 -0.10820841919E+04  0.10820841919E+04  0.00000000000E+00 0.  1.
      99926    2    1    2    0    0  0.00000000000E+00 -0.14210854715E-13 -0.10331039525E+04  0.11310644313E+04  0.46043780382E+03 0.  0.
      99925    2    3    3    0    0 -0.24866262056E+02  0.10884689709E+03 -0.55225089069E+03  0.62181679694E+03  0.26307623361E+03 0.  0.
         25    1    4    4    0    0 -0.18500147237E+01  0.64884343606E+02 -0.19940152598E+03  0.24417591459E+03  0.12509000000E+03 0.  0.
         25    1    4    4    0    0 -0.23016247332E+02  0.43962553488E+02 -0.35284936471E+03  0.37764088236E+03  0.12509000000E+03 0.  0.
         25    1    3    3    0    0  0.24866262056E+02 -0.10884689709E+03 -0.48085306180E+03  0.50924763439E+03  0.12509000000E+03 0.  0.
<mgrwt>
<rscale>  2 0.46043780E+03</rscale>
<asrwt>0</asrwt>
<pdfrwt beam="1">  1       21 0.72029764E-02 0.46043780E+03</pdfrwt>
<pdfrwt beam="2">  1       21 0.15913003E+00 0.46043780E+03</pdfrwt>
<totfact> 0.32999741E+04</totfact>
</mgrwt>
</event>
<event>
 7    0  0.4705418E-002  0.4411809E+03  0.7546771E-02  0.1030385E+00
         21   -1    0    0  502  501  0.00000000000E+00  0.00000000000E+00  0.12466924841E+03  0.12466924841E+03  0.00000000000E+00 0.  1.
         21   -1    0    0  501  502 -0.00000000000E+00 -0.00000000000E+00 -0.39031402857E+03  0.39031402857E+03  0.00000000000E+00 0.  1.
      99926    2    1    2    0    0  0.00000000000E+00  0.00000000000E+00 -0.26564478016E+03  0.51498327699E+03  0.44118094514E+03 0.  0.
      99925    2    3    3    0    0 -0.92387398973E+02 -0.16292399517E+02 -0.13011133199E+03  0.30805890084E+03  0.26300276406E+03 0.  0.
         25    1    3    3    0    0  0.92387398973E+02  0.16292399517E+02 -0.13553344816E+03  0.20692437614E+03  0.12509000000E+03 0.  0.
         25    1    4    4    0    0 -0.46364233331E+02 -0.48774142632E+02 -0.65546480989E+02  0.15643659544E+03  0.12509000000E+03 0.  0.
         25    1    4    4    0    0 -0.46023165642E+02  0.32481743114E+02 -0.64564851006E+02  0.15162230541E+03  0.12509000000E+03 0.  0.
<mgrwt>
<rscale>  2 0.44118095E+03</rscale>
<asrwt>0</asrwt>
<pdfrwt beam="1">  1       21 0.18333713E-01 0.44118095E+03</pdfrwt>
<pdfrwt beam="2">  1       21 0.57399122E-01 0.44118095E+03</pdfrwt>
<totfact> 0.71779727E+04</totfact>
</mgrwt>
</event>
<event>
 7    0  0.4705418E-002  0.4544195E+03  0.7546771E-02  0.1026412E+00
         21   -1    0    0  502  501  0.00000000000E+00  0.00000000000E+00  0.18846121357E+03  0.18846121357E+03  0.00000000000E+00 0.  1.
         21   -1    0    0  501  502 -0.00000000000E+00 -0.00000000000E+00 -0.27392519767E+03  0.27392519767E+03  0.00000000000E+00 0.  1.
      99926    2    1    2    0    0 -0.14210854715E-13  0.35527136788E-14 -0.85463984109E+02  0.46238641124E+03  0.45441952062E+03 0.  0.
      99925    2    3    3    0    0 -0.10818868363E+03  0.30790510232E+02 -0.57078209643E+02  0.29178129092E+03  0.26310749311E+03 0.  0.
         25    1    3    3    0    0  0.10818868363E+03 -0.30790510232E+02 -0.28385774465E+02  0.17060512032E+03  0.12509000000E+03 0.  0.
         25    1    4    4    0    0 -0.85447025366E+02  0.34229900760E+02 -0.54422249899E+02  0.16456661154E+03  0.12509000000E+03 0.  0.
         25    1    4    4    0    0 -0.22741658267E+02 -0.34393905279E+01 -0.26559597440E+01  0.12721467938E+03  0.12509000000E+03 0.  0.
<mgrwt>
<rscale>  2 0.45441952E+03</rscale>
<asrwt>0</asrwt>
<pdfrwt beam="1">  1       21 0.27714885E-01 0.45441952E+03</pdfrwt>
<pdfrwt beam="2">  1       21 0.40283117E-01 0.45441952E+03</pdfrwt>
<totfact> 0.68319322E+04</totfact>
</mgrwt>
</event>
<event>
 7    0  0.4705418E-002  0.4641137E+03  0.7546771E-02  0.1023595E+00
         21   -1    0    0  502  501  0.00000000000E+00  0.00000000000E+00  0.38744600494E+03  0.38744600494E+03  0.00000000000E+00 0. -1.
         21   -1    0    0  501  502 -0.00000000000E+00 -0.00000000000E+00 -0.13898810895E+03  0.13898810895E+03  0.00000000000E+00 0. -1.
      99926    2    1    2    0    0 -0.14210854715E-13  0.00000000000E+00  0.24845789599E+03  0.52643411389E+03  0.46411372549E+03 0.  0.
      99925    2    3    3    0    0  0.95471448563E+02 -0.55003132374E+02  0.97543487478E+02  0.30157235890E+03  0.26323186289E+03 0.  0.
         25    1    3    3    0    0 -0.95471448563E+02  0.55003132374E+02  0.15091440851E+03  0.22486175499E+03  0.12509000000E+03 0.  0.
         25    1    4    4    0    0  0.87592422372E+02 -0.42725983022E+02  0.42776000787E+02  0.16424139681E+03  0.12509000000E+03 0.  0.
         25    1    4    4    0    0  0.78790261913E+01 -0.12277149353E+02  0.54767486690E+02  0.13733096209E+03  0.12509000000E+03 0.  0.
<mgrwt>
<rscale>  2 0.46411373E+03</rscale>
<asrwt>0</asrwt>
<pdfrwt beam="1">  1       21 0.56977354E-01 0.46411373E+03</pdfrwt>
<pdfrwt beam="2">  1       21 0.20439428E-01 0.46411373E+03</pdfrwt>
<totfact> 0.59063490E+04</totfact>
</mgrwt>
</event>
<event>
 7    0  0.4705418E-002  0.4602679E+03  0.7546771E-02  0.1024704E+00
         21   -1    0    0  502  501  0.00000000000E+00  0.00000000000E+00  0.23179842639E+02  0.23179842639E+02  0.00000000000E+00 0.  1.
         21   -1    0    0  501  502 -0.00000000000E+00 -0.00000000000E+00 -0.22848143250E+04  0.22848143250E+04  0.00000000000E+00 0.  1.
      99926    2    1    2    0    0  0.14210854715E-13  0.00000000000E+00 -0.22616344824E+04  0.23079941676E+04  0.46026790682E+03 0.  0.
      99925    2    3    3    0    0  0.81421063701E+02 -0.68324296396E+01 -0.18442780153E+04  0.18646996826E+04  0.26280684375E+03 0.  0.
         25    1    4    4    0    0  0.77391547064E+02  0.11013760169E+02 -0.10822807214E+04  0.10922865111E+04  0.12509000000E+03 0.  0.
         25    1    4    4    0    0  0.40295166370E+01 -0.17846189808E+02 -0.76199729389E+03  0.77241317149E+03  0.12509000000E+03 0.  0.
         25    1    3    3    0    0 -0.81421063701E+02  0.68324296396E+01 -0.41735646712E+03  0.44329448503E+03  0.12509000000E+03 0.  0.
<mgrwt>
<rscale>  2 0.46026791E+03</rscale>
<asrwt>0</asrwt>
<pdfrwt beam="1">  1       21 0.34088018E-02 0.46026791E+03</pdfrwt>
<pdfrwt beam="2">  1       21 0.33600196E+00 0.46026791E+03</pdfrwt>
<totfact> 0.89303851E+03</totfact>
</mgrwt>
</event>
<event>
 7    0  0.4705418E-002  0.4567337E+03  0.7546771E-02  0.1025733E+00
         21   -1    0    0  502  501  0.00000000000E+00  0.00000000000E+00  0.43781184893E+03  0.43781184893E+03  0.00000000000E+00 0. -1.
         21   -1    0    0  501  502 -0.00000000000E+00 -0.00000000000E+00 -0.11911833722E+03  0.11911833722E+03  0.00000000000E+00 0. -1.
      99926    2    1    2    0    0 -0.14210854715E-13  0.00000000000E+00  0.31869351171E+03  0.55693018615E+03  0.45673370561E+03 0.  0.
      99925    2    3    3    0    0 -0.81587583335E+02  0.56114169595E+02  0.12944209573E+03  0.30940455044E+03  0.26300301500E+03 0.  0.
         25    1    4    4    0    0 -0.20048696564E+02  0.42979695615E+02  0.98159034692E+02  0.16592741986E+03  0.12509000000E+03 0.  0.
         25    1    4    4    0    0 -0.61538886772E+02  0.13134473980E+02  0.31283061038E+02  0.14347713058E+03  0.12509000000E+03 0.  0.
         25    1    3    3    0    0  0.81587583335E+02 -0.56114169595E+02  0.18925141598E+03  0.24752563571E+03  0.12509000000E+03 0.  0.
<mgrwt>
<rscale>  2 0.45673371E+03</rscale>
<asrwt>0</asrwt>
<pdfrwt beam="1">  1       21 0.64384095E-01 0.45673371E+03</pdfrwt>
<pdfrwt beam="2">  1       21 0.17517403E-01 0.45673371E+03</pdfrwt>
<totfact> 0.60575816E+04</totfact>
</mgrwt>
</event>
<event>
 7    0  0.4705418E-002  0.4555090E+03  0.7546771E-02  0.1026092E+00
         21   -1    0    0  502  501  0.00000000000E+00  0.00000000000E+00  0.32101618753E+03  0.32101618753E+03  0.00000000000E+00 0.  1.
         21   -1    0    0  501  502 -0.00000000000E+00 -0.00000000000E+00 -0.16158719971E+03  0.16158719971E+03  0.00000000000E+00 0.  1.
      99926    2    1    2    0    0 -0.71054273576E-14  0.71054273576E-14  0.15942898782E+03  0.48260338724E+03  0.45550897600E+03 0.  0.
      99925    2    3    3    0    0  0.42129433037E+02 -0.59997185571E+02  0.81720433009E+01  0.27307839406E+03  0.26292674950E+03 0.  0.
         25    1    3    3    0    0 -0.42129433037E+02  0.59997185571E+02  0.15125694452E+03  0.20952499318E+03  0.12509000000E+03 0.  0.
         25    1    4    4    0    0  0.58041640282E+02 -0.39092020521E+02 -0.11327082825E+02  0.14378048887E+03  0.12509000000E+03 0.  0.
         25    1    4    4    0    0 -0.15912207246E+02 -0.20905165050E+02  0.19499126125E+02  0.12929790518E+03  0.12509000000E+03 0.  0.
<mgrwt>
<rscale>  2 0.45550898E+03</rscale>
<asrwt>0</asrwt>
<pdfrwt beam="1">  1       21 0.47208263E-01 0.45550898E+03</pdfrwt>
<pdfrwt beam="2">  1       21 0.23762823E-01 0.45550898E+03</pdfrwt>
<totfact> 0.66243036E+04</totfact>
</mgrwt>
</event>
<event>
 7    0  0.4705418E-002  0.4457273E+03  0.7546771E-02  0.1029004E+00
         21   -1    0    0  502  501  0.00000000000E+00  0.00000000000E+00  0.26023906666E+03  0.26023906666E+03  0.00000000000E+00 0. -1.
         21   -1    0    0  501  502 -0.00000000000E+00 -0.00000000000E+00 -0.19085603273E+03  0.19085603273E+03  0.00000000000E+00 0. -1.
      99926    2    1    2    0    0 -0.35527136788E-14  0.00000000000E+00  0.69383033928E+02  0.45109509939E+03  0.44572725213E+03 0.  0.
      99925    2    3    3    0    0  0.26034102740E+02 -0.94226891251E+02  0.74369921854E+01  0.28068001283E+03  0.26300091104E+03 0.  0.
         25    1    4    4    0    0 -0.25987130708E+02 -0.45733942497E+02  0.15374432014E+02  0.13656795275E+03  0.12509000000E+03 0.  0.
         25    1    4    4    0    0  0.52021233448E+02 -0.48492948754E+02 -0.79374398282E+01  0.14411206008E+03  0.12509000000E+03 0.  0.
         25    1    3    3    0    0 -0.26034102740E+02  0.94226891251E+02  0.61946041742E+02  0.17041508656E+03  0.12509000000E+03 0.  0.
<mgrwt>
<rscale>  2 0.44572725E+03</rscale>
<asrwt>0</asrwt>
<pdfrwt beam="1">  1       21 0.38270451E-01 0.44572725E+03</pdfrwt>
<pdfrwt beam="2">  1       21 0.28067064E-01 0.44572725E+03</pdfrwt>
<totfact> 0.74169091E+04</totfact>
</mgrwt>
</event>
<event>
 7    0  0.4705418E-002  0.4756035E+03  0.7546771E-02  0.1020351E+00
         21   -1    0    0  502  501  0.00000000000E+00  0.00000000000E+00  0.12856252325E+03  0.12856252325E+03  0.00000000000E+00 0. -1.
         21   -1    0    0  501  502 -0.00000000000E+00 -0.00000000000E+00 -0.43986116090E+03  0.43986116090E+03  0.00000000000E+00 0. -1.
      99926    2    1    2    0    0  0.00000000000E+00  0.00000000000E+00 -0.31129863765E+03  0.56842368415E+03  0.47560345131E+03 0.  0.
      99925    2    3    3    0    0  0.76946112334E+02 -0.41437726272E+02 -0.74890637611E+02  0.28704486486E+03  0.26296075273E+03 0.  0.
         25    1    3    3    0    0 -0.76946112334E+02  0.41437726272E+02 -0.23640800004E+03  0.28137881929E+03  0.12509000000E+03 0.  0.
         25    1    4    4    0    0  0.78171894598E+02 -0.91059815238E+01 -0.35946920975E+02  0.15209685477E+03  0.12509000000E+03 0.  0.
         25    1    4    4    0    0 -0.12257822639E+01 -0.32331744748E+02 -0.38943716635E+02  0.13494801009E+03  0.12509000000E+03 0.  0.
<mgrwt>
<rscale>  2 0.47560345E+03</rscale>
<asrwt>0</asrwt>
<pdfrwt beam="1">  1       21 0.18906254E-01 0.47560345E+03</pdfrwt>
<pdfrwt beam="2">  1       21 0.64685464E-01 0.47560345E+03</pdfrwt>
<totfact> 0.51709166E+04</totfact>
</mgrwt>
</event>
<event>
 7    0  0.4705418E-002  0.4545744E+03  0.7546771E-02  0.1026367E+00
         21   -1    0    0  502  501  0.00000000000E+00  0.00000000000E+00  0.46725515158E+03  0.46725515158E+03  0.00000000000E+00 0.  1.
         21   -1    0    0  501  502 -0.00000000000E+00 -0.00000000000E+00 -0.11055944714E+03  0.11055944714E+03  0.00000000000E+00 0.  1.
      99926    2    1    2    0    0  0.00000000000E+00  0.00000000000E+00  0.35669570444E+03  0.57781459872E+03  0.45457439977E+03 0.  0.
      99925    2    3    3    0    0  0.89470332975E+02 -0.68510862336E+02  0.22009253834E+03  0.36100451632E+03  0.26303014396E+03 0.  0.
         25    1    4    4    0    0  0.59515392097E+02 -0.67977436659E+02  0.92922618623E+02  0.18012533121E+03  0.12509000000E+03 0.  0.
         25    1    4    4    0    0  0.29954940878E+02 -0.53342567762E+00  0.12716991972E+03  0.18087918511E+03  0.12509000000E+03 0.  0.
         25    1    3    3    0    0 -0.89470332975E+02  0.68510862336E+02  0.13660316609E+03  0.21681008239E+03  0.12509000000E+03 0.  0.
<mgrwt>
<rscale>  2 0.45457440E+03</rscale>
<asrwt>0</asrwt>
<pdfrwt beam="1">  1       21 0.68713992E-01 0.45457440E+03</pdfrwt>
<pdfrwt beam="2">  1       21 0.16258742E-01 0.45457440E+03</pdfrwt>
<totfact> 0.60267584E+04</totfact>
</mgrwt>
</event>
<event>
 7    0  0.4705418E-002  0.4455113E+03  0.7546771E-02  0.1029069E+00
         21   -1    0    0  502  501  0.00000000000E+00  0.00000000000E+00  0.97049227022E+02  0.97049227022E+02  0.00000000000E+00 0.  1.
         21   -1    0    0  501  502 -0.00000000000E+00 -0.00000000000E+00 -0.51128767481E+03  0.51128767481E+03  0.00000000000E+00 0.  1.
      99926    2    1    2    0    0  0.00000000000E+00 -0.14210854715E-13 -0.41423844779E+03  0.60833690183E+03  0.44551127315E+03 0.  0.
      99925    2    3    3    0    0  0.49539342960E+02 -0.74534944723E+02 -0.19049025688E+03  0.33682195653E+03  0.26296936694E+03 0.  0.
         25    1    4    4    0    0  0.28076790985E+02 -0.22833365848E+02 -0.13888185491E+03  0.19038210660E+03  0.12509000000E+03 0.  0.
         25    1    4    4    0    0  0.21462551975E+02 -0.51701578875E+02 -0.51608401964E+02  0.14643984993E+03  0.12509000000E+03 0.  0.
         25    1    3    3    0    0 -0.49539342960E+02  0.74534944723E+02 -0.22374819091E+03  0.27151494530E+03  0.12509000000E+03 0.  0.
<mgrwt>
<rscale>  2 0.44551127E+03</rscale>
<asrwt>0</asrwt>
<pdfrwt beam="1">  1       21 0.14271945E-01 0.44551127E+03</pdfrwt>
<pdfrwt beam="2">  1       21 0.75189364E-01 0.44551127E+03</pdfrwt>
<totfact> 0.62739831E+04</totfact>
</mgrwt>
</event>
<event>
 7    0  0.4705418E-002  0.4499422E+03  0.7546771E-02  0.1027739E+00
         21   -1    0    0  502  501  0.00000000000E+00  0.00000000000E+00  0.12674772523E+03  0.12674772523E+03  0.00000000000E+00 0. -1.
         21   -1    0    0  501  502 -0.00000000000E+00 -0.00000000000E+00 -0.39931283713E+03  0.39931283713E+03  0.00000000000E+00 0. -1.
      99926    2    1    2    0    0  0.00000000000E+00  0.00000000000E+00 -0.27256511191E+03  0.52606056236E+03  0.44994219078E+03 0.  0.
      99925    2    3    3    0    0  0.91622587008E+02 -0.57356014895E+02 -0.17925230030E+03  0.33622063031E+03  0.26311312051E+03 0.  0.
         25    1    4    4    0    0  0.48975226408E+02 -0.17454657404E+02 -0.42680977192E+02  0.14202961586E+03  0.12509000000E+03 0.  0.
         25    1    4    4    0    0  0.42647360601E+02 -0.39901357492E+02 -0.13657132311E+03  0.19419101445E+03  0.12509000000E+03 0.  0.
         25    1    3    3    0    0 -0.91622587008E+02  0.57356014895E+02 -0.93312811603E+02  0.18983993206E+03  0.12509000000E+03 0.  0.
<mgrwt>
<rscale>  2 0.44994219E+03</rscale>
<asrwt>0</asrwt>
<pdfrwt beam="1">  1       21 0.18639372E-01 0.44994219E+03</pdfrwt>
<pdfrwt beam="2">  1       21 0.58722476E-01 0.44994219E+03</pdfrwt>
<totfact> 0.66083258E+04</totfact>
</mgrwt>
</event>
<event>
 7    0  0.4705418E-002  0.4644421E+03  0.7546771E-02  0.1023501E+00
         21   -1    0    0  502  501  0.00000000000E+00  0.00000000000E+00  0.18387336084E+03  0.18387336084E+03  0.00000000000E+00 0. -1.
         21   -1    0    0  501  502 -0.00000000000E+00 -0.00000000000E+00 -0.29328129728E+03  0.29328129728E+03  0.00000000000E+00 0. -1.
      99926    2    1    2    0    0  0.00000000000E+00  0.00000000000E+00 -0.10940793644E+03  0.47715465812E+03  0.46444210749E+03 0.  0.
      99925    2    3    3    0    0  0.19843451600E+02 -0.14968754406E+02  0.54135248766E+02  0.26976201672E+03  0.26310282082E+03 0.  0.
         25    1    4    4    0    0 -0.15547726942E+02 -0.38519681722E+01 -0.56596488834E+01  0.12623830321E+03  0.12509000000E+03 0.  0.
         25    1    3    3    0    0 -0.19843451600E+02  0.14968754406E+02 -0.16354318520E+03  0.20739264140E+03  0.12509000000E+03 0.  0.
         25    1    4    4    0    0  0.35391178542E+02 -0.11116786233E+02  0.59794897649E+02  0.14352371351E+03  0.12509000000E+03 0.  0.
<mgrwt>
<rscale>  2 0.46444211E+03</rscale>
<asrwt>0</asrwt>
<pdfrwt beam="1">  1       21 0.27040200E-01 0.46444211E+03</pdfrwt>
<pdfrwt beam="2">  1       21 0.43129603E-01 0.46444211E+03</pdfrwt>
<totfact> 0.62121997E+04</totfact>
</mgrwt>
</event>
<event>
 7    0  0.4705418E-002  0.4456475E+03  0.7546771E-02  0.1029028E+00
         21   -1    0    0  502  501  0.00000000000E+00  0.00000000000E+00  0.77951552086E+02  0.77951552086E+02  0.00000000000E+00 0. -1.
         21   -1    0    0  501  502 -0.00000000000E+00 -0.00000000000E+00 -0.63693958402E+03  0.63693958402E+03  0.00000000000E+00 0. -1.
      99926    2    1    2    0    0  0.26645352591E-14  0.71054273576E-14 -0.55898803194E+03  0.71489113611E+03  0.44564752511E+03 0.  0.
      99925    2    3    3    0    0 -0.79421192955E+01 -0.39490462553E+02 -0.20101024204E+03  0.33355377883E+03  0.26311676510E+03 0.  0.
         25    1    4    4    0    0  0.17241584042E+02 -0.54742235157E+02 -0.10704793133E+03  0.17435811490E+03  0.12509000000E+03 0.  0.
         25    1    3    3    0    0  0.79421192955E+01  0.39490462553E+02 -0.35797778990E+03  0.38133735728E+03  0.12509000000E+03 0.  0.
         25    1    4    4    0    0 -0.25183703337E+02  0.15251772603E+02 -0.93962310705E+02  0.15919566393E+03  0.12509000000E+03 0.  0.
<mgrwt>
<rscale>  2 0.44564753E+03</rscale>
<asrwt>0</asrwt>
<pdfrwt beam="1">  1       21 0.11463464E-01 0.44564753E+03</pdfrwt>
<pdfrwt beam="2">  1       21 0.93667586E-01 0.44564753E+03</pdfrwt>
<totfact> 0.56118064E+04</totfact>
</mgrwt>
</event>
<event>
 7    0  0.4705418E-002  0.4533177E+03  0.7546771E-02  0.1026737E+00
         21   -1    0    0  502  501  0.00000000000E+00  0.00000000000E+00  0.10528121820E+04  0.10528121820E+04  0.00000000000E+00 0. -1.
         21   -1    0    0  501  502 -0.00000000000E+00 -0.00000000000E+00 -0.48797157070E+02  0.48797157070E+02  0.00000000000E+00 0. -1.
      99926    2    1    2    0    0  0.00000000000E+00  0.00000000000E+00  0.10040150249E+04  0.11016093391E+04  0.45331773145E+03 0.  0.
      99925    2    3    3    0    0  0.53366465840E+02 -0.65967826414E+02  0.45648099006E+03  0.53359458465E+03  0.26296112390E+03 0.  0.
         25    1    4    4    0    0  0.20421658696E+02 -0.71292299925E+02  0.21432457135E+03  0.25900225126E+03  0.12509000000E+03 0.  0.
         25    1    4    4    0    0  0.32944807143E+02  0.53244735111E+01  0.24215641871E+03  0.27459233339E+03  0.12509000000E+03 0.  0.
         25    1    3    3    0    0 -0.53366465840E+02  0.65967826414E+02  0.54753403488E+03  0.56801475443E+03  0.12509000000E+03 0.  0.
<mgrwt>
<rscale>  2 0.45331773E+03</rscale>
<asrwt>0</asrwt>
<pdfrwt beam="1">  1       21 0.15482531E+00 0.45331773E+03</pdfrwt>
<pdfrwt beam="2">  1       21 0.71760532E-02 0.45331773E+03</pdfrwt>
<totfact> 0.35907369E+04</totfact>
</mgrwt>
</event>
<event>
 7    0  0.4705418E-002  0.4571360E+03  0.7546771E-02  0.1025615E+00
         21   -1    0    0  502  501  0.00000000000E+00  0.00000000000E+00  0.19468223295E+03  0.19468223295E+03  0.00000000000E+00 0. -1.
         21   -1    0    0  501  502 -0.00000000000E+00 -0.00000000000E+00 -0.26835183269E+03  0.26835183269E+03  0.00000000000E+00 0. -1.
      99926    2    1    2    0    0  0.00000000000E+00 -0.71054273576E-14 -0.73669599742E+02  0.46303406564E+03  0.45713601478E+03 0.  0.
      99925    2    3    3    0    0  0.91802121788E+02 -0.57140829212E+02 -0.61558363399E+01  0.28443305703E+03  0.26300487767E+03 0.  0.
         25    1    4    4    0    0  0.13557949865E+02 -0.19559647797E+02 -0.28668765237E+02  0.13052127806E+03  0.12509000000E+03 0.  0.
         25    1    4    4    0    0  0.78244171923E+02 -0.37581181415E+02  0.22512928898E+02  0.15391177896E+03  0.12509000000E+03 0.  0.
         25    1    3    3    0    0 -0.91802121788E+02  0.57140829212E+02 -0.67513763402E+02  0.17860100861E+03  0.12509000000E+03 0.  0.
<mgrwt>
<rscale>  2 0.45713601E+03</rscale>
<asrwt>0</asrwt>
<pdfrwt beam="1">  1       21 0.28629740E-01 0.45713601E+03</pdfrwt>
<pdfrwt beam="2">  1       21 0.39463505E-01 0.45713601E+03</pdfrwt>
<totfact> 0.66814521E+04</totfact>
</mgrwt>
</event>
<event>
 7    0  0.4705418E-002  0.4506589E+03  0.7546771E-02  0.1027526E+00
         21   -1    0    0  502  501  0.00000000000E+00  0.00000000000E+00  0.10301400030E+03  0.10301400030E+03  0.00000000000E+00 0. -1.
         21   -1    0    0  501  502 -0.00000000000E+00 -0.00000000000E+00 -0.49287825326E+03  0.49287825326E+03  0.00000000000E+00 0. -1.
      99926    2    1    2    0    0  0.14210854715E-13  0.71054273576E-14 -0.38986425296E+03  0.59589225356E+03  0.45065889774E+03 0.  0.
      99925    2    3    3    0    0 -0.10443209253E+03 -0.27319485460E+02 -0.21915823303E+03  0.35832022326E+03  0.26212713530E+03 0.  0.
         25    1    3    3    0    0  0.10443209253E+03  0.27319485460E+02 -0.17070601993E+03  0.23757203029E+03  0.12509000000E+03 0.  0.
         25    1    4    4    0    0 -0.73941829507E+02 -0.10445709443E+02 -0.73472066518E+02  0.16316298494E+03  0.12509000000E+03 0.  0.
         25    1    4    4    0    0 -0.30490263027E+02 -0.16873776016E+02 -0.14568616651E+03  0.19515723832E+03  0.12509000000E+03 0.  0.
<mgrwt>
<rscale>  2 0.45065890E+03</rscale>
<asrwt>0</asrwt>
<pdfrwt beam="1">  1       21 0.15149118E-01 0.45065890E+03</pdfrwt>
<pdfrwt beam="2">  1       21 0.72482096E-01 0.45065890E+03</pdfrwt>
<totfact> 0.60997480E+04</totfact>
</mgrwt>
</event>
<event>
 7    0  0.4705418E-002  0.4536206E+03  0.7546771E-02  0.1026648E+00
         21   -1    0    0  502  501  0.00000000000E+00  0.00000000000E+00  0.50120572034E+03  0.50120572034E+03  0.00000000000E+00 0. -1.
         21   -1    0    0  501  502 -0.00000000000E+00 -0.00000000000E+00 -0.10263832833E+03  0.10263832833E+03  0.00000000000E+00 0. -1.
      99926    2    1    2    0    0  0.00000000000E+00  0.00000000000E+00  0.39856739201E+03  0.60384404867E+03  0.45362062249E+03 0.  0.
      99925    2    3    3    0    0  0.84386744773E+01 -0.11134173491E+03  0.24262695694E+03  0.37486125335E+03  0.26303027559E+03 0.  0.
         25    1    4    4    0    0  0.23200781133E+01 -0.94712002443E+02  0.10961836283E+03  0.19141431435E+03  0.12509000000E+03 0.  0.
         25    1    4    4    0    0  0.61185963640E+01 -0.16629732470E+02  0.13300859411E+03  0.18344693900E+03  0.12509000000E+03 0.  0.
         25    1    3    3    0    0 -0.84386744773E+01  0.11134173491E+03  0.15594043508E+03  0.22898279532E+03  0.12509000000E+03 0.  0.
<mgrwt>
<rscale>  2 0.45362062E+03</rscale>
<asrwt>0</asrwt>
<pdfrwt beam="1">  1       21 0.73706723E-01 0.45362062E+03</pdfrwt>
<pdfrwt beam="2">  1       21 0.15093872E-01 0.45362062E+03</pdfrwt>
<totfact> 0.59083515E+04</totfact>
</mgrwt>
</event>
<event>
 7    0  0.4705418E-002  0.4570564E+03  0.7546771E-02  0.1025638E+00
         21   -1    0    0  502  501  0.00000000000E+00  0.00000000000E+00  0.31376184668E+02  0.31376184668E+02  0.00000000000E+00 0. -1.
         21   -1    0    0  501  502 -0.00000000000E+00 -0.00000000000E+00 -0.16644834641E+04  0.16644834641E+04  0.00000000000E+00 0. -1.
      99926    2    1    2    0    0  0.00000000000E+00  0.00000000000E+00 -0.16331072794E+04  0.16958596488E+04  0.45705641029E+03 0.  0.
      99925    2    3    3    0    0 -0.44725693989E+02 -0.71128043483E+02 -0.73395872272E+03  0.78417153246E+03  0.26300189999E+03 0.  0.
         25    1    4    4    0    0  0.17669038847E+02 -0.42084647996E+02 -0.34058200266E+03  0.36568691686E+03  0.12509000000E+03 0.  0.
         25    1    4    4    0    0 -0.62394732836E+02 -0.29043395487E+02 -0.39337672006E+03  0.41848461560E+03  0.12509000000E+03 0.  0.
         25    1    3    3    0    0  0.44725693989E+02  0.71128043483E+02 -0.89914855672E+03  0.91168811631E+03  0.12509000000E+03 0.  0.
<mgrwt>
<rscale>  2 0.45705641E+03</rscale>
<asrwt>0</asrwt>
<pdfrwt beam="1">  1       21 0.46141433E-02 0.45705641E+03</pdfrwt>
<pdfrwt beam="2">  1       21 0.24477706E+00 0.45705641E+03</pdfrwt>
<totfact> 0.19042027E+04</totfact>
</mgrwt>
</event>
<event>
 7    0  0.4705418E-002  0.4436811E+03  0.7546771E-02  0.1029623E+00
         21   -1    0    0  502  501  0.00000000000E+00  0.00000000000E+00  0.39278453217E+02  0.39278453217E+02  0.00000000000E+00 0.  1.
         21   -1    0    0  501  502 -0.00000000000E+00 -0.00000000000E+00 -0.12529319800E+04  0.12529319800E+04  0.00000000000E+00 0.  1.
      99926    2    1    2    0    0 -0.17763568394E-14  0.14210854715E-13 -0.12136535268E+04  0.12922104333E+04  0.44368110242E+03 0.  0.
      99925    2    3    3    0    0 -0.12701049336E+02  0.10190705217E+03 -0.76914566888E+03  0.81915535421E+03  0.26245774982E+03 0.  0.
         25    1    3    3    0    0  0.12701049336E+02 -0.10190705217E+03 -0.44450785795E+03  0.47305507905E+03  0.12509000000E+03 0.  0.
         25    1    4    4    0    0  0.44738473758E+01  0.91193146114E+02 -0.40578841662E+03  0.43433622042E+03  0.12509000000E+03 0.  0.
         25    1    4    4    0    0 -0.17174896712E+02  0.10713906061E+02 -0.36335725226E+03  0.38481913379E+03  0.12509000000E+03 0.  0.
<mgrwt>
<rscale>  2 0.44368110E+03</rscale>
<asrwt>0</asrwt>
<pdfrwt beam="1">  1       21 0.57762440E-02 0.44368110E+03</pdfrwt>
<pdfrwt beam="2">  1       21 0.18425467E+00 0.44368110E+03</pdfrwt>
<totfact> 0.32073753E+04</totfact>
</mgrwt>
</event>
<event>
 7    0  0.4705418E-002  0.4540587E+03  0.7546771E-02  0.1026519E+00
         21   -1    0    0  502  501  0.00000000000E+00  0.00000000000E+00  0.13557025083E+03  0.13557025083E+03  0.00000000000E+00 0.  1.
         21   -1    0    0  501  502 -0.00000000000E+00 -0.00000000000E+00 -0.38018911088E+03  0.38018911088E+03  0.00000000000E+00 0.  1.
      99926    2    1    2    0    0  0.00000000000E+00  0.71054273576E-14 -0.24461886005E+03  0.51575936171E+03  0.45405873243E+03 0.  0.
      99925    2    3    3    0    0  0.97677199616E+02  0.53345542449E+02 -0.13730507721E+03  0.31688669312E+03  0.26301693828E+03 0.  0.
         25    1    4    4    0    0  0.70530704706E+02  0.63841117261E+02 -0.76767733483E+02  0.17490300616E+03  0.12509000000E+03 0.  0.
         25    1    4    4    0    0  0.27146494909E+02 -0.10495574812E+02 -0.60537343727E+02  0.14198368696E+03  0.12509000000E+03 0.  0.
         25    1    3    3    0    0 -0.97677199616E+02 -0.53345542449E+02 -0.10731378284E+03  0.19887266859E+03  0.12509000000E+03 0.  0.
<mgrwt>
<rscale>  2 0.45405873E+03</rscale>
<asrwt>0</asrwt>
<pdfrwt beam="1">  1       21 0.19936802E-01 0.45405873E+03</pdfrwt>
<pdfrwt beam="2">  1       21 0.55910162E-01 0.45405873E+03</pdfrwt>
<totfact> 0.64658681E+04</totfact>
</mgrwt>
</event>
<event>
 7    0  0.4705418E-002  0.4611603E+03  0.7546771E-02  0.1024445E+00
         21   -1    0    0  502  501  0.00000000000E+00  0.00000000000E+00  0.42036337229E+02  0.42036337229E+02  0.00000000000E+00 0.  1.
         21   -1    0    0  501  502 -0.00000000000E+00 -0.00000000000E+00 -0.12647913281E+04  0.12647913281E+04  0.00000000000E+00 0.  1.
      99926    2    1    2    0    0  0.00000000000E+00  0.00000000000E+00 -0.12227549909E+04  0.13068276653E+04  0.46116025324E+03 0.  0.
      99925    2    3    3    0    0  0.29427989907E+02 -0.41197717602E+02 -0.46077546459E+03  0.53299075415E+03  0.26306245783E+03 0.  0.
         25    1    4    4    0    0 -0.18102319593E+02 -0.19933193127E+02 -0.17571103129E+03  0.21736352219E+03  0.12509000000E+03 0.  0.
         25    1    3    3    0    0 -0.29427989907E+02  0.41197717602E+02 -0.76197952627E+03  0.77383691117E+03  0.12509000000E+03 0.  0.
         25    1    4    4    0    0  0.47530309500E+02 -0.21264524474E+02 -0.28506443330E+03  0.31562723196E+03  0.12509000000E+03 0.  0.
<mgrwt>
<rscale>  2 0.46116025E+03</rscale>
<asrwt>0</asrwt>
<pdfrwt beam="1">  1       21 0.61818147E-02 0.46116025E+03</pdfrwt>
<pdfrwt beam="2">  1       21 0.18599871E+00 0.46116025E+03</pdfrwt>
<totfact> 0.27572099E+04</totfact>
</mgrwt>
</event>
<event>
 7    0  0.4705418E-002  0.4523639E+03  0.7546771E-02  0.1027019E+00
         21   -1    0    0  502  501  0.00000000000E+00  0.00000000000E+00  0.15388143532E+03  0.15388143532E+03  0.00000000000E+00 0.  1.
         21   -1    0    0  501  502 -0.00000000000E+00 -0.00000000000E+00 -0.33245250629E+03  0.33245250629E+03  0.00000000000E+00 0.  1.
      99926    2    1    2    0    0  0.00000000000E+00  0.00000000000E+00 -0.17857107097E+03  0.48633394160E+03  0.45236387496E+03 0.  0.
      99925    2    3    3    0    0  0.67624017639E+02  0.70347502484E+02 -0.16903483651E+03  0.32739927976E+03  0.26286067330E+03 0.  0.
         25    1    4    4    0    0  0.74981742124E+02  0.43779157078E+02 -0.89603817595E+02  0.17667831920E+03  0.12509000000E+03 0.  0.
         25    1    4    4    0    0 -0.73577244844E+01  0.26568345406E+02 -0.79431018913E+02  0.15072096056E+03  0.12509000000E+03 0.  0.
         25    1    3    3    0    0 -0.67624017639E+02 -0.70347502484E+02 -0.95362344622E+01  0.15893466184E+03  0.12509000000E+03 0.  0.
<mgrwt>
<rscale>  2 0.45236387E+03</rscale>
<asrwt>0</asrwt>
<pdfrwt beam="1">  1       21 0.22629623E-01 0.45236387E+03</pdfrwt>
<pdfrwt beam="2">  1       21 0.48890074E-01 0.45236387E+03</pdfrwt>
<totfact> 0.67646451E+04</totfact>
</mgrwt>
</event>
<event>
 7    0  0.4705418E-002  0.4571797E+03  0.7546771E-02  0.1025602E+00
         21   -1    0    0  502  501  0.00000000000E+00  0.00000000000E+00  0.34859078827E+03  0.34859078827E+03  0.00000000000E+00 0. -1.
         21   -1    0    0  501  502 -0.00000000000E+00 -0.00000000000E+00 -0.14989871741E+03  0.14989871741E+03  0.00000000000E+00 0. -1.
      99926    2    1    2    0    0  0.00000000000E+00  0.17763568394E-14  0.19869207087E+03  0.49848950568E+03  0.45717966736E+03 0.  0.
      99925    2    3    3    0    0  0.38913114059E+02 -0.11125780246E+02  0.71853729983E+01  0.26619586207E+03  0.26300303034E+03 0.  0.
         25    1    4    4    0    0  0.77795664302E+01  0.25871678658E+02  0.26536601372E+02  0.13069646025E+03  0.12509000000E+03 0.  0.
         25    1    3    3    0    0 -0.38913114059E+02  0.11125780246E+02  0.19150669787E+03  0.23229364361E+03  0.12509000000E+03 0.  0.
         25    1    4    4    0    0  0.31133547629E+02 -0.36997458904E+02 -0.19351228374E+02  0.13549940182E+03  0.12509000000E+03 0.  0.
<mgrwt>
<rscale>  2 0.45717967E+03</rscale>
<asrwt>0</asrwt>
<pdfrwt beam="1">  1       21 0.51263351E-01 0.45717967E+03</pdfrwt>
<pdfrwt beam="2">  1       21 0.22043929E-01 0.45717967E+03</pdfrwt>
<totfact> 0.64257837E+04</totfact>
</mgrwt>
</event>
<event>
 7    0  0.4705418E-002  0.4624047E+03  0.7546771E-02  0.1024086E+00
         21   -1    0    0  502  501  0.00000000000E+00  0.00000000000E+00  0.10500131253E+04  0.10500131253E+04  0.00000000000E+00 0.  1.
         21   -1    0    0  501  502 -0.00000000000E+00 -0.00000000000E+00 -0.50908441381E+02  0.50908441381E+02  0.00000000000E+00 0.  1.
      99926    2    1    2    0    0  0.00000000000E+00  0.00000000000E+00  0.99910468394E+03  0.11009215667E+04  0.46240472160E+03 0.  0.
      99925    2    3    3    0    0 -0.34967342780E+02  0.74356426584E+02  0.83314189585E+03  0.87744282416E+03  0.26273351104E+03 0.  0.
         25    1    3    3    0    0  0.34967342780E+02 -0.74356426584E+02  0.16596278810E+03  0.22347874254E+03  0.12509000000E+03 0.  0.
         25    1    4    4    0    0 -0.12808606310E+02 -0.65920597217E-01  0.44082995385E+03  0.45841315541E+03  0.12509000000E+03 0.  0.
         25    1    4    4    0    0 -0.22158736471E+02  0.74422347181E+02  0.39231194200E+03  0.41902966875E+03  0.12509000000E+03 0.  0.
<mgrwt>
<rscale>  2 0.46240472E+03</rscale>
<asrwt>0</asrwt>
<pdfrwt beam="1">  1       21 0.15441368E+00 0.46240472E+03</pdfrwt>
<pdfrwt beam="2">  1       21 0.74865361E-02 0.46240472E+03</pdfrwt>
<totfact> 0.33485784E+04</totfact>
</mgrwt>
</event>
<event>
 7    0  0.4705418E-002  0.4458382E+03  0.7546771E-02  0.1028970E+00
         21   -1    0    0  502  501  0.00000000000E+00  0.00000000000E+00  0.40052681960E+03  0.40052681960E+03  0.00000000000E+00 0. -1.
         21   -1    0    0  501  502 -0.00000000000E+00 -0.00000000000E+00 -0.12406892736E+03  0.12406892736E+03  0.00000000000E+00 0. -1.
      99926    2    1    2    0    0  0.00000000000E+00  0.35527136788E-14  0.27645789224E+03  0.52459574696E+03  0.44583823473E+03 0.  0.
      99925    2    3    3    0    0  0.93511887403E+02  0.22260709830E+02  0.22302156259E+03  0.35803356124E+03  0.26307679735E+03 0.  0.
         25    1    4    4    0    0  0.12025478631E+02  0.33311732427E+02  0.11301402923E+03  0.17226132054E+03  0.12509000000E+03 0.  0.
         25    1    3    3    0    0 -0.93511887403E+02 -0.22260709830E+02  0.53436329653E+02  0.16656218573E+03  0.12509000000E+03 0.  0.
         25    1    4    4    0    0  0.81486408771E+02 -0.11051022597E+02  0.11000753336E+03  0.18577224069E+03  0.12509000000E+03 0.  0.
<mgrwt>
<rscale>  2 0.44583823E+03</rscale>
<asrwt>0</asrwt>
<pdfrwt beam="1">  1       21 0.58901003E-01 0.44583823E+03</pdfrwt>
<pdfrwt beam="2">  1       21 0.18245431E-01 0.44583823E+03</pdfrwt>
<totfact> 0.68405357E+04</totfact>
</mgrwt>
</event>
<event>
 7    0  0.4705418E-002  0.4439529E+03  0.7546771E-02  0.1029541E+00
         21   -1    0    0  502  501  0.00000000000E+00  0.00000000000E+00  0.86908627954E+02  0.86908627954E+02  0.00000000000E+00 0.  1.
         21   -1    0    0  501  502 -0.00000000000E+00 -0.00000000000E+00 -0.56695805070E+03  0.56695805070E+03  0.00000000000E+00 0.  1.
      99926    2    1    2    0    0  0.00000000000E+00  0.00000000000E+00 -0.48004942275E+03  0.65386667866E+03  0.44395290874E+03 0.  0.
      99925    2    3    3    0    0  0.46583487202E+02  0.84253875470E+01 -0.17131575536E+03  0.31740718048E+03  0.26297760694E+03 0.  0.
         25    1    4    4    0    0  0.54436469548E+02 -0.34725806405E+01 -0.11902671541E+03  0.18108079720E+03  0.12509000000E+03 0.  0.
         25    1    3    3    0    0 -0.46583487202E+02 -0.84253875470E+01 -0.30873366739E+03  0.33645949818E+03  0.12509000000E+03 0.  0.
         25    1    4    4    0    0 -0.78529823462E+01  0.11897968188E+02 -0.52289039946E+02  0.13632638328E+03  0.12509000000E+03 0.  0.
<mgrwt>
<rscale>  2 0.44395291E+03</rscale>
<asrwt>0</asrwt>
<pdfrwt beam="1">  1       21 0.12780681E-01 0.44395291E+03</pdfrwt>
<pdfrwt beam="2">  1       21 0.83376182E-01 0.44395291E+03</pdfrwt>
<totfact> 0.60587265E+04</totfact>
</mgrwt>
</event>
<event>
 7    0  0.4705418E-002  0.4531340E+03  0.7546771E-02  0.1026792E+00
         21   -1    0    0  502  501  0.00000000000E+00  0.00000000000E+00  0.48444168645E+02  0.48444168645E+02  0.00000000000E+00 0.  1.
         21   -1    0    0  501  502 -0.00000000000E+00 -0.00000000000E+00 -0.10596241181E+04  0.10596241181E+04  0.00000000000E+00 0.  1.
      99926    2    1    2    0    0 -0.14210854715E-13  0.00000000000E+00 -0.10111799495E+04  0.11080682868E+04  0.45313401761E+03 0.  0.
      99925    2    3    3    0    0 -0.75744668715E+02 -0.17528007996E+02 -0.83172599173E+03  0.87591377582E+03  0.26346220118E+03 0.  0.
         25    1    3    3    0    0  0.75744668715E+02  0.17528007996E+02 -0.17945395775E+03  0.23215451095E+03  0.12509000000E+03 0.  0.
         25    1    4    4    0    0 -0.23613969251E+02  0.29140053700E+02 -0.42944679206E+03  0.44886391879E+03  0.12509000000E+03 0.  0.
         25    1    4    4    0    0 -0.52130699464E+02 -0.46668061696E+02 -0.40227919967E+03  0.42704985704E+03  0.12509000000E+03 0.  0.
<mgrwt>
<rscale>  2 0.45313402E+03</rscale>
<asrwt>0</asrwt>
<pdfrwt beam="1">  1       21 0.71241422E-02 0.45313402E+03</pdfrwt>
<pdfrwt beam="2">  1       21 0.15582708E+00 0.45313402E+03</pdfrwt>
<totfact> 0.35730541E+04</totfact>
</mgrwt>
</event>
<event>
 7    0  0.4705418E-002  0.4140046E+03  0.7546771E-02  0.1039035E+00
         21   -1    0    0  502  501  0.00000000000E+00  0.00000000000E+00  0.10933073561E+04  0.10933073561E+04  0.00000000000E+00 0.  1.
         21   -1    0    0  501  502 -0.00000000000E+00 -0.00000000000E+00 -0.39192954792E+02  0.39192954792E+02  0.00000000000E+00 0.  1.
      99926    2    1    2    0    0  0.71054273576E-14  0.00000000000E+00  0.10541144014E+04  0.11325003109E+04  0.41400456898E+03 0.  0.
      99925    2    3    3    0    0 -0.45825176902E+02 -0.45209778715E+02  0.75112972118E+03  0.79844777697E+03  0.26301924565E+03 0.  0.
         25    1    3    3    0    0  0.45825176902E+02  0.45209778715E+02  0.30298468017E+03  0.33405253397E+03  0.12509000000E+03 0.  0.
         25    1    4    4    0    0  0.98029901439E+00 -0.39824547348E+02  0.45474158528E+03  0.47331213067E+03  0.12509000000E+03 0.  0.
         25    1    4    4    0    0 -0.46805475917E+02 -0.53852313670E+01  0.29638813590E+03  0.32513564630E+03  0.12509000000E+03 0.  0.
<mgrwt>
<rscale>  2 0.41400457E+03</rscale>
<asrwt>0</asrwt>
<pdfrwt beam="1">  1       21 0.16078047E+00 0.41400457E+03</pdfrwt>
<pdfrwt beam="2">  1       21 0.57636706E-02 0.41400457E+03</pdfrwt>
<totfact> 0.47959515E+04</totfact>
</mgrwt>
</event>
<event>
 7    0  0.4705418E-002  0.4475779E+03  0.7546771E-02  0.1028447E+00
         21   -1    0    0  502  501  0.00000000000E+00  0.00000000000E+00  0.19398901996E+03  0.19398901996E+03  0.00000000000E+00 0. -1.
         21   -1    0    0  501  502 -0.00000000000E+00 -0.00000000000E+00 -0.25816667633E+03  0.25816667633E+03  0.00000000000E+00 0. -1.
      99926    2    1    2    0    0 -0.14210854715E-13  0.00000000000E+00 -0.64177656365E+02  0.45215569629E+03  0.44757792853E+03 0.  0.
      99925    2    3    3    0    0  0.70273571656E+02  0.79218585740E+02 -0.34321472401E+02  0.28556380266E+03  0.26297293154E+03 0.  0.
         25    1    4    4    0    0  0.18740760327E+02  0.30584166660E+02 -0.53157865697E+02  0.14056981943E+03  0.12509000000E+03 0.  0.
         25    1    4    4    0    0  0.51532811330E+02  0.48634419080E+02  0.18836393296E+02  0.14499398324E+03  0.12509000000E+03 0.  0.
         25    1    3    3    0    0 -0.70273571656E+02 -0.79218585740E+02 -0.29856183964E+02  0.16659189362E+03  0.12509000000E+03 0.  0.
<mgrwt>
<rscale>  2 0.44757793E+03</rscale>
<asrwt>0</asrwt>
<pdfrwt beam="1">  1       21 0.28527797E-01 0.44757793E+03</pdfrwt>
<pdfrwt beam="2">  1       21 0.37965687E-01 0.44757793E+03</pdfrwt>
<totfact> 0.72981008E+04</totfact>
</mgrwt>
</event>
<event>
 7    0  0.4705418E-002  0.4575410E+03  0.7546771E-02  0.1025497E+00
         21   -1    0    0  502  501  0.00000000000E+00  0.00000000000E+00  0.58236781677E+03  0.58236781677E+03  0.00000000000E+00 0. -1.
         21   -1    0    0  501  502 -0.00000000000E+00 -0.00000000000E+00 -0.89867509083E+02  0.89867509083E+02  0.00000000000E+00 0. -1.
      99926    2    1    2    0    0  0.00000000000E+00  0.00000000000E+00  0.49250030769E+03  0.67223532586E+03  0.45754101483E+03 0.  0.
      99925    2    3    3    0    0 -0.10168037238E+03  0.40440821667E+02  0.25548807065E+03  0.38275878658E+03  0.26316492220E+03 0.  0.
         25    1    4    4    0    0 -0.84727704391E+02  0.34661809973E+01  0.16090952593E+03  0.22074913802E+03  0.12509000000E+03 0.  0.
         25    1    4    4    0    0 -0.16952667991E+02  0.36974640670E+02  0.94578544721E+02  0.16200964856E+03  0.12509000000E+03 0.  0.
         25    1    3    3    0    0  0.10168037238E+03 -0.40440821667E+02  0.23701223704E+03  0.28947653927E+03  0.12509000000E+03 0.  0.
<mgrwt>
<rscale>  2 0.45754101E+03</rscale>
<asrwt>0</asrwt>
<pdfrwt beam="1">  1       21 0.85642324E-01 0.45754101E+03</pdfrwt>
<pdfrwt beam="2">  1       21 0.13215810E-01 0.45754101E+03</pdfrwt>
<totfact> 0.53359842E+04</totfact>
</mgrwt>
</event>
<event>
 7    0  0.4705418E-002  0.4538185E+03  0.7546771E-02  0.1026589E+00
         21   -1    0    0  502  501  0.00000000000E+00  0.00000000000E+00  0.10219976535E+03  0.10219976535E+03  0.00000000000E+00 0. -1.
         21   -1    0    0  501  502 -0.00000000000E+00 -0.00000000000E+00 -0.50379572387E+03  0.50379572387E+03  0.00000000000E+00 0. -1.
      99926    2    1    2    0    0 -0.17763568394E-14  0.00000000000E+00 -0.40159595852E+03  0.60599548922E+03  0.45381848690E+03 0.  0.
      99925    2    3    3    0    0  0.14701272311E+02  0.94518155674E+02 -0.33097065871E+03  0.43341145104E+03  0.26297167112E+03 0.  0.
         25    1    3    3    0    0 -0.14701272311E+02 -0.94518155674E+02 -0.70625299815E+02  0.17258403818E+03  0.12509000000E+03 0.  0.
         25    1    4    4    0    0 -0.28536031222E+02  0.27284778260E+02 -0.16357382412E+03  0.20967276466E+03  0.12509000000E+03 0.  0.
         25    1    4    4    0    0  0.43237303533E+02  0.67233377414E+02 -0.16739683459E+03  0.22373868639E+03  0.12509000000E+03 0.  0.
<mgrwt>
<rscale>  2 0.45381849E+03</rscale>
<asrwt>0</asrwt>
<pdfrwt beam="1">  1       21 0.15029377E-01 0.45381849E+03</pdfrwt>
<pdfrwt beam="2">  1       21 0.74087608E-01 0.45381849E+03</pdfrwt>
<totfact> 0.58858186E+04</totfact>
</mgrwt>
</event>
<event>
 7    0  0.4705418E-002  0.4530668E+03  0.7546771E-02  0.1026811E+00
         21   -1    0    0  502  501  0.00000000000E+00  0.00000000000E+00  0.42812217595E+03  0.42812217595E+03  0.00000000000E+00 0. -1.
         21   -1    0    0  501  502 -0.00000000000E+00 -0.00000000000E+00 -0.11986622783E+03  0.11986622783E+03  0.00000000000E+00 0. -1.
      99926    2    1    2    0    0  0.00000000000E+00  0.00000000000E+00  0.30825594812E+03  0.54798840378E+03  0.45306683958E+03 0.  0.
      99925    2    3    3    0    0 -0.14367236938E+02 -0.11046397951E+03  0.19604329621E+03  0.34637517104E+03  0.26293359781E+03 0.  0.
         25    1    3    3    0    0  0.14367236938E+02  0.11046397951E+03  0.11221265191E+03  0.20161323274E+03  0.12509000000E+03 0.  0.
         25    1    4    4    0    0  0.15664744057E+01 -0.95463311773E+02  0.12419982756E+03  0.20047145184E+03  0.12509000000E+03 0.  0.
         25    1    4    4    0    0 -0.15933711344E+02 -0.15000667738E+02  0.71843468656E+02  0.14590371921E+03  0.12509000000E+03 0.  0.
<mgrwt>
<rscale>  2 0.45306684E+03</rscale>
<asrwt>0</asrwt>
<pdfrwt beam="1">  1       21 0.62959143E-01 0.45306684E+03</pdfrwt>
<pdfrwt beam="2">  1       21 0.17627387E-01 0.45306684E+03</pdfrwt>
<totfact> 0.62957097E+04</totfact>
</mgrwt>
</event>
<event>
 7    0  0.4705418E-002  0.4637050E+03  0.7546771E-02  0.1023712E+00
         21   -1    0    0  502  501  0.00000000000E+00  0.00000000000E+00  0.95490555326E+02  0.95490555326E+02  0.00000000000E+00 0.  1.
         21   -1    0    0  501  502 -0.00000000000E+00 -0.00000000000E+00 -0.56294142501E+03  0.56294142501E+03  0.00000000000E+00 0.  1.
      99926    2    1    2    0    0  0.00000000000E+00  0.00000000000E+00 -0.46745086968E+03  0.65843198033E+03  0.46370503249E+03 0.  0.
      99925    2    3    3    0    0  0.75693033013E+02  0.84081169864E+02 -0.23044626321E+03  0.36754064330E+03  0.26302388842E+03 0.  0.
         25    1    4    4    0    0  0.13753497422E+02  0.49288267854E+02 -0.15306435635E+03  0.20419279450E+03  0.12509000000E+03 0.  0.
         25    1    3    3    0    0 -0.75693033013E+02 -0.84081169864E+02 -0.23700460647E+03  0.29089133703E+03  0.12509000000E+03 0.  0.
         25    1    4    4    0    0  0.61939535590E+02  0.34792902010E+02 -0.77381906861E+02  0.16334784880E+03  0.12509000000E+03 0.  0.
<mgrwt>
<rscale>  2 0.46370503E+03</rscale>
<asrwt>0</asrwt>
<pdfrwt beam="1">  1       21 0.14042729E-01 0.46370503E+03</pdfrwt>
<pdfrwt beam="2">  1       21 0.82785504E-01 0.46370503E+03</pdfrwt>
<totfact> 0.51584269E+04</totfact>
</mgrwt>
</event>
<event>
 7    0  0.4705418E-002  0.4665246E+03  0.7546771E-02  0.1022906E+00
         21   -1    0    0  502  501  0.00000000000E+00  0.00000000000E+00  0.11999639557E+03  0.11999639557E+03  0.00000000000E+00 0.  1.
         21   -1    0    0  501  502 -0.00000000000E+00 -0.00000000000E+00 -0.45344107260E+03  0.45344107260E+03  0.00000000000E+00 0.  1.
      99926    2    1    2    0    0  0.00000000000E+00 -0.71054273576E-14 -0.33344467704E+03  0.57343746817E+03  0.46652457305E+03 0.  0.
      99925    2    3    3    0    0  0.89476193627E+02 -0.47976074088E+02 -0.12068766941E+03  0.30656531656E+03  0.26288607202E+03 0.  0.
         25    1    4    4    0    0  0.58208053712E+02 -0.52118055263E+02 -0.34649474719E+02  0.15150103432E+03  0.12509000000E+03 0.  0.
         25    1    4    4    0    0  0.31268139914E+02  0.41419811754E+01 -0.86038194692E+02  0.15506428224E+03  0.12509000000E+03 0.  0.
         25    1    3    3    0    0 -0.89476193627E+02  0.47976074088E+02 -0.21275700763E+03  0.26687215161E+03  0.12509000000E+03 0.  0.
<mgrwt>
<rscale>  2 0.46652457E+03</rscale>
<asrwt>0</asrwt>
<pdfrwt beam="1">  1       21 0.17646528E-01 0.46652457E+03</pdfrwt>
<pdfrwt beam="2">  1       21 0.66682513E-01 0.46652457E+03</pdfrwt>
<totfact> 0.55144090E+04</totfact>
</mgrwt>
</event>
<event>
 7    0  0.4705418E-002  0.4553138E+03  0.7546771E-02  0.1026149E+00
         21   -1    0    0  502  501  0.00000000000E+00  0.00000000000E+00  0.45789913500E+03  0.45789913500E+03  0.00000000000E+00 0.  1.
         21   -1    0    0  501  502 -0.00000000000E+00 -0.00000000000E+00 -0.11318574416E+03  0.11318574416E+03  0.00000000000E+00 0.  1.
      99926    2    1    2    0    0  0.00000000000E+00  0.00000000000E+00  0.34471339084E+03  0.57108487916E+03  0.45531375707E+03 0.  0.
      99925    2    3    3    0    0  0.22817321634E+02  0.85964880127E+02  0.30532484967E+03  0.41262492820E+03  0.26291724318E+03 0.  0.
         25    1    3    3    0    0 -0.22817321634E+02 -0.85964880127E+02  0.39388541163E+02  0.15845995096E+03  0.12509000000E+03 0.  0.
         25    1    4    4    0    0  0.92712080236E+01  0.61821914470E+02  0.10515443276E+03  0.17496533153E+03  0.12509000000E+03 0.  0.
         25    1    4    4    0    0  0.13546113611E+02  0.24142965657E+02  0.20017041691E+03  0.23765959668E+03  0.12509000000E+03 0.  0.
<mgrwt>
<rscale>  2 0.45531376E+03</rscale>
<asrwt>0</asrwt>
<pdfrwt beam="1">  1       21 0.67338107E-01 0.45531376E+03</pdfrwt>
<pdfrwt beam="2">  1       21 0.16644963E-01 0.45531376E+03</pdfrwt>
<totfact> 0.60344474E+04</totfact>
</mgrwt>
</event>
<event>
 7    0  0.4705418E-002  0.4592013E+03  0.7546771E-02  0.1025013E+00
         21   -1    0    0  502  501  0.00000000000E+00  0.00000000000E+00  0.21048087995E+03  0.21048087995E+03  0.00000000000E+00 0. -1.
         21   -1    0    0  501  502 -0.00000000000E+00 -0.00000000000E+00 -0.25045723806E+03  0.25045723806E+03  0.00000000000E+00 0. -1.
      99926    2    1    2    0    0  0.00000000000E+00 -0.35527136788E-14 -0.39976358112E+02  0.46093811802E+03  0.45920130600E+03 0.  0.
      99925    2    3    3    0    0  0.10748585600E+03 -0.23162154900E+02  0.14738754180E+02  0.28563567573E+03  0.26321248777E+03 0.  0.
         25    1    4    4    0    0  0.44269465692E+02 -0.44171061207E+02  0.30192765947E+02  0.14307333594E+03  0.12509000000E+03 0.  0.
         25    1    4    4    0    0  0.63216390303E+02  0.21008906307E+02 -0.15454011767E+02  0.14256233979E+03  0.12509000000E+03 0.  0.
         25    1    3    3    0    0 -0.10748585600E+03  0.23162154900E+02 -0.54715112292E+02  0.17530244229E+03  0.12509000000E+03 0.  0.
<mgrwt>
<rscale>  2 0.45920131E+03</rscale>
<asrwt>0</asrwt>
<pdfrwt beam="1">  1       21 0.30953071E-01 0.45920131E+03</pdfrwt>
<pdfrwt beam="2">  1       21 0.36831946E-01 0.45920131E+03</pdfrwt>
<totfact> 0.65876871E+04</totfact>
</mgrwt>
</event>
<event>
 7    0  0.4705418E-002  0.3941064E+03  0.7546771E-02  0.1045840E+00
         21   -1    0    0  502  501  0.00000000000E+00  0.00000000000E+00  0.72276860375E+02  0.72276860375E+02  0.00000000000E+00 0. -1.
         21   -1    0    0  501  502 -0.00000000000E+00 -0.00000000000E+00 -0.53723913714E+03  0.53723913714E+03  0.00000000000E+00 0. -1.
      99926    2    1    2    0    0 -0.26645352591E-14  0.35527136788E-14 -0.46496227677E+03  0.60951599752E+03  0.39410637195E+03 0.  0.
      99925    2    3    3    0    0  0.38517605719E+01 -0.11919821937E+02 -0.35850136502E+03  0.44477877633E+03  0.26296009762E+03 0.  0.
         25    1    4    4    0    0 -0.19090477521E+02  0.27180128946E+02 -0.19391981576E+03  0.23314289349E+03  0.12509000000E+03 0.  0.
         25    1    4    4    0    0  0.22942238092E+02 -0.39099950883E+02 -0.16458154926E+03  0.21163588284E+03  0.12509000000E+03 0.  0.
         25    1    3    3    0    0 -0.38517605719E+01  0.11919821937E+02 -0.10646091175E+03  0.16473722119E+03  0.12509000000E+03 0.  0.
<mgrwt>
<rscale>  2 0.39410637E+03</rscale>
<asrwt>0</asrwt>
<pdfrwt beam="1">  1       21 0.10628950E-01 0.39410637E+03</pdfrwt>
<pdfrwt beam="2">  1       21 0.79005755E-01 0.39410637E+03</pdfrwt>
<totfact> 0.96955228E+04</totfact>
</mgrwt>
</event>
<event>
 7    0  0.4705418E-002  0.4497652E+03  0.7546771E-02  0.1027792E+00
         21   -1    0    0  502  501  0.00000000000E+00  0.00000000000E+00  0.43714435872E+02  0.43714435872E+02  0.00000000000E+00 0. -1.
         21   -1    0    0  501  502 -0.00000000000E+00 -0.00000000000E+00 -0.11568762247E+04  0.11568762247E+04  0.00000000000E+00 0. -1.
      99926    2    1    2    0    0  0.71054273576E-14  0.88817841970E-15 -0.11131617888E+04  0.12005906605E+04  0.44976523447E+03 0.  0.
      99925    2    3    3    0    0  0.43465193177E+02 -0.78656406942E+01 -0.44142308816E+03  0.51587796067E+03  0.26329572011E+03 0.  0.
         25    1    4    4    0    0 -0.19298003942E+02  0.14619823238E+01 -0.20124946553E+03  0.23774651591E+03  0.12509000000E+03 0.  0.
         25    1    4    4    0    0  0.62763197120E+02 -0.93276230181E+01 -0.24017362262E+03  0.27813144477E+03  0.12509000000E+03 0.  0.
         25    1    3    3    0    0 -0.43465193177E+02  0.78656406942E+01 -0.67173870063E+03  0.68471269986E+03  0.12509000000E+03 0.  0.
<mgrwt>
<rscale>  2 0.44976523E+03</rscale>
<asrwt>0</asrwt>
<pdfrwt beam="1">  1       21 0.64285935E-02 0.44976523E+03</pdfrwt>
<pdfrwt beam="2">  1       21 0.17012886E+00 0.44976523E+03</pdfrwt>
<totfact> 0.33481861E+04</totfact>
</mgrwt>
</event>
<event>
 7    0  0.4705418E-002  0.4547732E+03  0.7546771E-02  0.1026308E+00
         21   -1    0    0  502  501  0.00000000000E+00  0.00000000000E+00  0.27304426668E+03  0.27304426668E+03  0.00000000000E+00 0. -1.
         21   -1    0    0  501  502 -0.00000000000E+00 -0.00000000000E+00 -0.18936366285E+03  0.18936366285E+03  0.00000000000E+00 0. -1.
      99926    2    1    2    0    0  0.00000000000E+00  0.00000000000E+00  0.83680603829E+02  0.46240792953E+03  0.45477318505E+03 0.  0.
      99925    2    3    3    0    0 -0.62028912721E+02  0.80491917617E+02  0.10313630619E+03  0.30007319120E+03  0.26283129115E+03 0.  0.
         25    1    4    4    0    0 -0.66009247945E+02  0.20200153589E+02  0.52229410357E+02  0.15212063116E+03  0.12509000000E+03 0.  0.
         25    1    4    4    0    0  0.39803352238E+01  0.60291764028E+02  0.50906895831E+02  0.14795256004E+03  0.12509000000E+03 0.  0.
         25    1    3    3    0    0  0.62028912721E+02 -0.80491917617E+02 -0.19455702359E+02  0.16233473833E+03  0.12509000000E+03 0.  0.
<mgrwt>
<rscale>  2 0.45477319E+03</rscale>
<asrwt>0</asrwt>
<pdfrwt beam="1">  1       21 0.40153569E-01 0.45477319E+03</pdfrwt>
<pdfrwt beam="2">  1       21 0.27847597E-01 0.45477319E+03</pdfrwt>
<totfact> 0.68125737E+04</totfact>
</mgrwt>
</event>
<event>
 7    0  0.4705418E-002  0.4546421E+03  0.7546771E-02  0.1026347E+00
         21   -1    0    0  502  501  0.00000000000E+00  0.00000000000E+00  0.22792934632E+02  0.22792934632E+02  0.00000000000E+00 0.  1.
         21   -1    0    0  501  502 -0.00000000000E+00 -0.00000000000E+00 -0.22671436777E+04  0.22671436777E+04  0.00000000000E+00 0.  1.
      99926    2    1    2    0    0  0.11102230246E-15  0.00000000000E+00 -0.22443507431E+04  0.22899366123E+04  0.45464209065E+03 0.  0.
      99925    2    3    3    0    0 -0.57732950128E+00  0.73185856496E+02 -0.18453703935E+04  0.18654494743E+04  0.26297024379E+03 0.  0.
         25    1    4    4    0    0  0.20602711576E+00  0.50466644113E+02 -0.68652473588E+03  0.69965037389E+03  0.12509000000E+03 0.  0.
         25    1    3    3    0    0  0.57732950128E+00 -0.73185856496E+02 -0.39898034959E+03  0.42448713804E+03  0.12509000000E+03 0.  0.
         25    1    4    4    0    0 -0.78335661704E+00  0.22719212383E+02 -0.11588456576E+04  0.11657991004E+04  0.12509000000E+03 0.  0.
<mgrwt>
<rscale>  2 0.45464209E+03</rscale>
<asrwt>0</asrwt>
<pdfrwt beam="1">  1       21 0.33519030E-02 0.45464209E+03</pdfrwt>
<pdfrwt beam="2">  1       21 0.33340340E+00 0.45464209E+03</pdfrwt>
<totfact> 0.95538275E+03</totfact>
</mgrwt>
</event>
<event>
 7    0  0.4705418E-002  0.4538902E+03  0.7546771E-02  0.1026568E+00
         21   -1    0    0  502  501  0.00000000000E+00  0.00000000000E+00  0.17932692867E+03  0.17932692867E+03  0.00000000000E+00 0. -1.
         21   -1    0    0  501  502 -0.00000000000E+00 -0.00000000000E+00 -0.28720777482E+03  0.28720777482E+03  0.00000000000E+00 0. -1.
      99926    2    1    2    0    0  0.00000000000E+00 -0.71054273576E-14 -0.10788084615E+03  0.46653470349E+03  0.45389024290E+03 0.  0.
      99925    2    3    3    0    0  0.56989075795E+02 -0.58785724546E+02 -0.14651798026E+03  0.31212015624E+03  0.26315006598E+03 0.  0.
         25    1    4    4    0    0  0.25370906456E+02 -0.67380630578E+02 -0.58708591916E+02  0.15581411726E+03  0.12509000000E+03 0.  0.
         25    1    4    4    0    0  0.31618169338E+02  0.85949060327E+01 -0.87809388345E+02  0.15630603899E+03  0.12509000000E+03 0.  0.
         25    1    3    3    0    0 -0.56989075795E+02  0.58785724546E+02  0.38637134114E+02  0.15441454725E+03  0.12509000000E+03 0.  0.
<mgrwt>
<rscale>  2 0.45389024E+03</rscale>
<asrwt>0</asrwt>
<pdfrwt beam="1">  1       21 0.26371607E-01 0.45389024E+03</pdfrwt>
<pdfrwt beam="2">  1       21 0.42236437E-01 0.45389024E+03</pdfrwt>
<totfact> 0.68293701E+04</totfact>
</mgrwt>
</event>
<event>
 7    0  0.4705418E-002  0.4219499E+03  0.7546771E-02  0.1036434E+00
         21   -1    0    0  502  501  0.00000000000E+00  0.00000000000E+00  0.39129778465E+03  0.39129778465E+03  0.00000000000E+00 0. -1.
         21   -1    0    0  501  502 -0.00000000000E+00 -0.00000000000E+00 -0.11375080810E+03  0.11375080810E+03  0.00000000000E+00 0. -1.
      99926    2    1    2    0    0  0.71054273576E-14  0.00000000000E+00  0.27754697656E+03  0.50504859275E+03  0.42194994590E+03 0.  0.
      99925    2    3    3    0    0  0.48492278664E+02 -0.27700573250E+01  0.25405820626E+03  0.36881935676E+03  0.26291247868E+03 0.  0.
         25    1    4    4    0    0  0.54789412771E+02  0.14108267022E+02  0.16265293752E+03  0.21284832424E+03  0.12509000000E+03 0.  0.
         25    1    4    4    0    0 -0.62971341070E+01 -0.16878324347E+02  0.91405268746E+02  0.15597103252E+03  0.12509000000E+03 0.  0.
         25    1    3    3    0    0 -0.48492278664E+02  0.27700573250E+01  0.23488770295E+02  0.13622923599E+03  0.12509000000E+03 0.  0.
<mgrwt>
<rscale>  2 0.42194995E+03</rscale>
<asrwt>0</asrwt>
<pdfrwt beam="1">  1       21 0.57543791E-01 0.42194995E+03</pdfrwt>
<pdfrwt beam="2">  1       21 0.16728060E-01 0.42194995E+03</pdfrwt>
<totfact> 0.85130004E+04</totfact>
</mgrwt>
</event>
<event>
 7    0  0.4705418E-002  0.4557349E+03  0.7546771E-02  0.1026026E+00
         21   -1    0    0  502  501  0.00000000000E+00  0.00000000000E+00  0.83158341695E+03  0.83158341695E+03  0.00000000000E+00 0.  1.
         21   -1    0    0  501  502 -0.00000000000E+00 -0.00000000000E+00 -0.62439419273E+02  0.62439419273E+02  0.00000000000E+00 0.  1.
      99926    2    1    2    0    0 -0.71054273576E-14  0.00000000000E+00  0.76914399768E+03  0.89402283622E+03  0.45573494767E+03 0.  0.
      99925    2    3    3    0    0 -0.42329070084E+02 -0.10533796749E+03  0.46745637682E+03  0.54826169577E+03  0.26303533080E+03 0.  0.
         25    1    3    3    0    0  0.42329070084E+02  0.10533796749E+03  0.30168762086E+03  0.34576114046E+03  0.12509000000E+03 0.  0.
         25    1    4    4    0    0  0.16280273630E+01 -0.23815467014E+02  0.16844343389E+03  0.21116468801E+03  0.12509000000E+03 0.  0.
         25    1    4    4    0    0 -0.43957097447E+02 -0.81522500478E+02  0.29901294293E+03  0.33709700776E+03  0.12509000000E+03 0.  0.
<mgrwt>
<rscale>  2 0.45573495E+03</rscale>
<asrwt>0</asrwt>
<pdfrwt beam="1">  1       21 0.12229167E+00 0.45573495E+03</pdfrwt>
<pdfrwt beam="2">  1       21 0.91822680E-02 0.45573495E+03</pdfrwt>
<totfact> 0.43243731E+04</totfact>
</mgrwt>
</event>
<event>
 7    0  0.4705418E-002  0.4040735E+03  0.7546771E-02  0.1042378E+00
         21   -1    0    0  502  501  0.00000000000E+00  0.00000000000E+00  0.58756268512E+02  0.58756268512E+02  0.00000000000E+00 0.  1.
         21   -1    0    0  501  502 -0.00000000000E+00 -0.00000000000E+00 -0.69471463029E+03  0.69471463029E+03  0.00000000000E+00 0.  1.
      99926    2    1    2    0    0  0.00000000000E+00 -0.53290705182E-14 -0.63595836178E+03  0.75347089880E+03  0.40407345548E+03 0.  0.
      99925    2    3    3    0    0 -0.50466497924E+02 -0.13234747540E+02 -0.43670061535E+03  0.51248711601E+03  0.26308475949E+03 0.  0.
         25    1    3    3    0    0  0.50466497924E+02  0.13234747540E+02 -0.19925774643E+03  0.24098378279E+03  0.12509000000E+03 0.  0.
         25    1    4    4    0    0 -0.44207860948E+01 -0.41318659237E+02 -0.22400687006E+03  0.25991029392E+03  0.12509000000E+03 0.  0.
         25    1    4    4    0    0 -0.46045711829E+02  0.28083911697E+02 -0.21269374529E+03  0.25257682210E+03  0.12509000000E+03 0.  0.
<mgrwt>
<rscale>  2 0.40407346E+03</rscale>
<asrwt>0</asrwt>
<pdfrwt beam="1">  1       21 0.86406278E-02 0.40407346E+03</pdfrwt>
<pdfrwt beam="2">  1       21 0.10216391E+00 0.40407346E+03</pdfrwt>
<totfact> 0.76352401E+04</totfact>
</mgrwt>
</event>
<event>
 7    0  0.4705418E-002  0.4543385E+03  0.7546771E-02  0.1026436E+00
         21   -1    0    0  502  501  0.00000000000E+00  0.00000000000E+00  0.25675130792E+02  0.25675130792E+02  0.00000000000E+00 0.  1.
         21   -1    0    0  501  502 -0.00000000000E+00 -0.00000000000E+00 -0.20099558309E+04  0.20099558309E+04  0.00000000000E+00 0.  1.
      99926    2    1    2    0    0  0.00000000000E+00  0.00000000000E+00 -0.19842807001E+04  0.20356309617E+04  0.45433854710E+03 0.  0.
      99925    2    3    3    0    0 -0.45320320854E+02  0.10069891982E+03 -0.11530292675E+04  0.11877980441E+04  0.26304656962E+03 0.  0.
         25    1    3    3    0    0  0.45320320854E+02 -0.10069891982E+03 -0.83125143254E+03  0.84783291758E+03  0.12509000000E+03 0.  0.
         25    1    4    4    0    0 -0.27959835502E+02  0.14555806555E+02 -0.43757272072E+03  0.45619186525E+03  0.12509000000E+03 0.  0.
         25    1    4    4    0    0 -0.17360485352E+02  0.86143113260E+02 -0.71545654683E+03  0.73160617884E+03  0.12509000000E+03 0.  0.
<mgrwt>
<rscale>  2 0.45433855E+03</rscale>
<asrwt>0</asrwt>
<pdfrwt beam="1">  1       21 0.37757539E-02 0.45433855E+03</pdfrwt>
<pdfrwt beam="2">  1       21 0.29558179E+00 0.45433855E+03</pdfrwt>
<totfact> 0.13204314E+04</totfact>
</mgrwt>
</event>
<event>
 7    0  0.4705418E-002  0.4455082E+03  0.7546771E-02  0.1029070E+00
         21   -1    0    0  502  501  0.00000000000E+00  0.00000000000E+00  0.52661750652E+03  0.52661750652E+03  0.00000000000E+00 0.  1.
         21   -1    0    0  501  502 -0.00000000000E+00 -0.00000000000E+00 -0.94222809969E+02  0.94222809969E+02  0.00000000000E+00 0.  1.
      99926    2    1    2    0    0  0.00000000000E+00  0.00000000000E+00  0.43239469655E+03  0.62084031649E+03  0.44550816488E+03 0.  0.
      99925    2    3    3    0    0 -0.66062648036E+02  0.79725800482E+02  0.26095008468E+03  0.38470213710E+03  0.26302150266E+03 0.  0.
         25    1    4    4    0    0 -0.69300304754E+02  0.41872715597E+02  0.16637691841E+03  0.22334870412E+03  0.12509000000E+03 0.  0.
         25    1    4    4    0    0  0.32376567176E+01  0.37853084886E+02  0.94573166273E+02  0.16135343298E+03  0.12509000000E+03 0.  0.
         25    1    3    3    0    0  0.66062648036E+02 -0.79725800482E+02  0.17144461187E+03  0.23613817939E+03  0.12509000000E+03 0.  0.
<mgrwt>
<rscale>  2 0.44550816E+03</rscale>
<asrwt>0</asrwt>
<pdfrwt beam="1">  1       21 0.77443749E-01 0.44550816E+03</pdfrwt>
<pdfrwt beam="2">  1       21 0.13856296E-01 0.44550816E+03</pdfrwt>
<totfact> 0.61925697E+04</totfact>
</mgrwt>
</event>
<event>
 7    0  0.4705418E-002  0.4499381E+03  0.7546771E-02  0.1027741E+00
         21   -1    0    0  502  501  0.00000000000E+00  0.00000000000E+00  0.26056986491E+03  0.26056986491E+03  0.00000000000E+00 0. -1.
         21   -1    0    0  501  502 -0.00000000000E+00 -0.00000000000E+00 -0.19423221578E+03  0.19423221578E+03  0.00000000000E+00 0. -1.
      99926    2    1    2    0    0  0.14210854715E-13  0.00000000000E+00  0.66337649132E+02  0.45480208068E+03  0.44993805007E+03 0.  0.
      99925    2    3    3    0    0  0.90796499882E+02 -0.12332483793E+02 -0.16600695758E+02  0.27895449981E+03  0.26295234419E+03 0.  0.
         25    1    4    4    0    0  0.81835966508E+02  0.12362393517E+02  0.53302283687E+00  0.14999248782E+03  0.12509000000E+03 0.  0.
         25    1    3    3    0    0 -0.90796499882E+02  0.12332483793E+02  0.82938344890E+02  0.17584758088E+03  0.12509000000E+03 0.  0.
         25    1    4    4    0    0  0.89605333736E+01 -0.24694877311E+02 -0.17133718595E+02  0.12896201199E+03  0.12509000000E+03 0.  0.
<mgrwt>
<rscale>  2 0.44993805E+03</rscale>
<asrwt>0</asrwt>
<pdfrwt beam="1">  1       21 0.38319098E-01 0.44993805E+03</pdfrwt>
<pdfrwt beam="2">  1       21 0.28563561E-01 0.44993805E+03</pdfrwt>
<totfact> 0.71400047E+04</totfact>
</mgrwt>
</event>
<event>
 7    0  0.4705418E-002  0.4529594E+03  0.7546771E-02  0.1026843E+00
         21   -1    0    0  502  501  0.00000000000E+00  0.00000000000E+00  0.26677706814E+03  0.26677706814E+03  0.00000000000E+00 0.  1.
         21   -1    0    0  501  502 -0.00000000000E+00 -0.00000000000E+00 -0.19226937400E+03  0.19226937400E+03  0.00000000000E+00 0.  1.
      99926    2    1    2    0    0  0.00000000000E+00  0.00000000000E+00  0.74507694137E+02  0.45904644214E+03  0.45295942374E+03 0.  0.
      99925    2    3    3    0    0  0.47448065208E+02 -0.18715627711E+02 -0.53191526950E+02  0.27315348159E+03  0.26302450904E+03 0.  0.
         25    1    4    4    0    0 -0.33918963742E+01  0.20890209665E+02 -0.32104933236E+02  0.13086688144E+03  0.12509000000E+03 0.  0.
         25    1    3    3    0    0 -0.47448065208E+02  0.18715627711E+02  0.12769922109E+03  0.18589296054E+03  0.12509000000E+03 0.  0.
         25    1    4    4    0    0  0.50839961582E+02 -0.39605837376E+02 -0.21086593714E+02  0.14228660015E+03  0.12509000000E+03 0.  0.
<mgrwt>
<rscale>  2 0.45295942E+03</rscale>
<asrwt>0</asrwt>
<pdfrwt beam="1">  1       21 0.39231922E-01 0.45295942E+03</pdfrwt>
<pdfrwt beam="2">  1       21 0.28274908E-01 0.45295942E+03</pdfrwt>
<totfact> 0.69372057E+04</totfact>
</mgrwt>
</event>
<event>
 7    0  0.4705418E-002  0.4493667E+03  0.7546771E-02  0.1027911E+00
         21   -1    0    0  502  501  0.00000000000E+00  0.00000000000E+00  0.24134822158E+03  0.24134822158E+03  0.00000000000E+00 0. -1.
         21   -1    0    0  501  502 -0.00000000000E+00 -0.00000000000E+00 -0.20916917968E+03  0.20916917968E+03  0.00000000000E+00 0. -1.
      99926    2    1    2    0    0  0.00000000000E+00 -0.88817841970E-15  0.32179041906E+02  0.45051740126E+03  0.44936670782E+03 0.  0.
      99925    2    3    3    0    0 -0.70797898327E+02  0.51169356713E+01 -0.60936699408E+02  0.27917979646E+03  0.26303906930E+03 0.  0.
         25    1    4    4    0    0 -0.38036735503E+02  0.42262426148E+02 -0.22303405970E+02  0.13920436749E+03  0.12509000000E+03 0.  0.
         25    1    4    4    0    0 -0.32761162823E+02 -0.37145490477E+02 -0.38633293438E+02  0.13997542897E+03  0.12509000000E+03 0.  0.
         25    1    3    3    0    0  0.70797898327E+02 -0.51169356713E+01  0.93115741314E+02  0.17133760480E+03  0.12509000000E+03 0.  0.
<mgrwt>
<rscale>  2 0.44936671E+03</rscale>
<asrwt>0</asrwt>
<pdfrwt beam="1">  1       21 0.35492386E-01 0.44936671E+03</pdfrwt>
<pdfrwt beam="2">  1       21 0.30760173E-01 0.44936671E+03</pdfrwt>
<totfact> 0.72060284E+04</totfact>
</mgrwt>
</event>
<event>
 7    0  0.4705418E-002  0.4564243E+03  0.7546771E-02  0.1025823E+00
         21   -1    0    0  502  501  0.00000000000E+00  0.00000000000E+00  0.12292644556E+04  0.12292644556E+04  0.00000000000E+00 0.  1.
         21   -1    0    0  501  502 -0.00000000000E+00 -0.00000000000E+00 -0.42367446971E+02  0.42367446971E+02  0.00000000000E+00 0.  1.
      99926    2    1    2    0    0  0.53290705182E-14 -0.71054273576E-14  0.11868970086E+04  0.12716319026E+04  0.45642434920E+03 0.  0.
      99925    2    3    3    0    0 -0.11962473099E+02  0.41777126187E+02  0.10410924938E+04  0.10746677087E+04  0.26296135526E+03 0.  0.
         25    1    4    4    0    0 -0.34319284426E+02  0.39011732785E+02  0.62900476928E+03  0.64342383890E+03  0.12509000000E+03 0.  0.
         25    1    4    4    0    0  0.22356811328E+02  0.27653934020E+01  0.41208772454E+03  0.43124386979E+03  0.12509000000E+03 0.  0.
         25    1    3    3    0    0  0.11962473099E+02 -0.41777126187E+02  0.14580451480E+03  0.19696419388E+03  0.12509000000E+03 0.  0.
<mgrwt>
<rscale>  2 0.45642435E+03</rscale>
<asrwt>0</asrwt>
<pdfrwt beam="1">  1       21 0.18077416E+00 0.45642435E+03</pdfrwt>
<pdfrwt beam="2">  1       21 0.62305077E-02 0.45642435E+03</pdfrwt>
<totfact> 0.29620132E+04</totfact>
</mgrwt>
</event>
<event>
 7    0  0.4705418E-002  0.4540904E+03  0.7546771E-02  0.1026509E+00
         21   -1    0    0  502  501  0.00000000000E+00  0.00000000000E+00  0.12976728405E+03  0.12976728405E+03  0.00000000000E+00 0.  1.
         21   -1    0    0  501  502 -0.00000000000E+00 -0.00000000000E+00 -0.39724584716E+03  0.39724584716E+03  0.00000000000E+00 0.  1.
      99926    2    1    2    0    0  0.00000000000E+00 -0.14210854715E-13 -0.26747856311E+03  0.52701313121E+03  0.45409036408E+03 0.  0.
      99925    2    3    3    0    0  0.33323604475E+02 -0.10738146389E+03 -0.16915601762E+03  0.33218994868E+03  0.26285958667E+03 0.  0.
         25    1    4    4    0    0  0.50847535435E+02 -0.77754869634E+02 -0.84221968954E+02  0.17712182182E+03  0.12509000000E+03 0.  0.
         25    1    3    3    0    0 -0.33323604475E+02  0.10738146389E+03 -0.98322545490E+02  0.19482318254E+03  0.12509000000E+03 0.  0.
         25    1    4    4    0    0 -0.17523930960E+02 -0.29626594254E+02 -0.84934048663E+02  0.15506812685E+03  0.12509000000E+03 0.  0.
<mgrwt>
<rscale>  2 0.45409036E+03</rscale>
<asrwt>0</asrwt>
<pdfrwt beam="1">  1       21 0.19083424E-01 0.45409036E+03</pdfrwt>
<pdfrwt beam="2">  1       21 0.58418506E-01 0.45409036E+03</pdfrwt>
<totfact> 0.63868456E+04</totfact>
</mgrwt>
</event>
<event>
 7    0  0.4705418E-002  0.4388828E+03  0.7546771E-02  0.1031090E+00
         21   -1    0    0  502  501  0.00000000000E+00  0.00000000000E+00  0.69180160354E+03  0.69180160354E+03  0.00000000000E+00 0. -1.
         21   -1    0    0  501  502 -0.00000000000E+00 -0.00000000000E+00 -0.69607410960E+02  0.69607410960E+02  0.00000000000E+00 0. -1.
      99926    2    1    2    0    0  0.17763568394E-14  0.00000000000E+00  0.62219419258E+03  0.76140901450E+03  0.43888275665E+03 0.  0.
      99925    2    3    3    0    0 -0.12130379401E+02 -0.63140724480E+02  0.26989849873E+03  0.38207583483E+03  0.26268392938E+03 0.  0.
         25    1    4    4    0    0  0.15614651123E+02 -0.65733064483E+02  0.13643994457E+03  0.19704826737E+03  0.12509000000E+03 0.  0.
         25    1    4    4    0    0 -0.27745030524E+02  0.25923400037E+01  0.13345855416E+03  0.18502756747E+03  0.12509000000E+03 0.  0.
         25    1    3    3    0    0  0.12130379401E+02  0.63140724480E+02  0.35229569385E+03  0.37933317967E+03  0.12509000000E+03 0.  0.
<mgrwt>
<rscale>  2 0.43888276E+03</rscale>
<asrwt>0</asrwt>
<pdfrwt beam="1">  1       21 0.10173553E+00 0.43888276E+03</pdfrwt>
<pdfrwt beam="2">  1       21 0.10236384E-01 0.43888276E+03</pdfrwt>
<totfact> 0.56505927E+04</totfact>
</mgrwt>
</event>
<event>
 7    0  0.4705418E-002  0.4584755E+03  0.7546771E-02  0.1025224E+00
         21   -1    0    0  502  501  0.00000000000E+00  0.00000000000E+00  0.51329995223E+02  0.51329995223E+02  0.00000000000E+00 0.  1.
         21   -1    0    0  501  502 -0.00000000000E+00 -0.00000000000E+00 -0.10237669616E+04  0.10237669616E+04  0.00000000000E+00 0.  1.
      99926    2    1    2    0    0  0.35527136788E-14  0.00000000000E+00 -0.97243696638E+03  0.10750969568E+04  0.45847553151E+03 0.  0.
      99925    2    3    3    0    0 -0.29271391603E+02 -0.11202687596E+02 -0.34626872835E+03  0.43578757554E+03  0.26272887963E+03 0.  0.
         25    1    3    3    0    0  0.29271391603E+02  0.11202687596E+02 -0.62616823803E+03  0.63930938128E+03  0.12509000000E+03 0.  0.
         25    1    4    4    0    0  0.22402172948E+00  0.30587645398E+01 -0.11072426058E+03  0.16708314160E+03  0.12509000000E+03 0.  0.
         25    1    4    4    0    0 -0.29495413332E+02 -0.14261452136E+02 -0.23554446777E+03  0.26870443394E+03  0.12509000000E+03 0.  0.
<mgrwt>
<rscale>  2 0.45847553E+03</rscale>
<asrwt>0</asrwt>
<pdfrwt beam="1">  1       21 0.75485289E-02 0.45847553E+03</pdfrwt>
<pdfrwt beam="2">  1       21 0.15055396E+00 0.45847553E+03</pdfrwt>
<totfact> 0.35399928E+04</totfact>
</mgrwt>
</event>
<event>
 7    0  0.4705418E-002  0.4718494E+03  0.7546771E-02  0.1021400E+00
         21   -1    0    0  502  501  0.00000000000E+00  0.00000000000E+00  0.39603569464E+03  0.39603569464E+03  0.00000000000E+00 0. -1.
         21   -1    0    0  501  502 -0.00000000000E+00 -0.00000000000E+00 -0.14054407309E+03  0.14054407309E+03  0.00000000000E+00 0. -1.
      99926    2    1    2    0    0  0.00000000000E+00  0.17763568394E-14  0.25549162155E+03  0.53657976773E+03  0.47184942350E+03 0.  0.
      99925    2    3    3    0    0  0.10104708096E+03 -0.15520759560E+02  0.70204923169E+02  0.29075447358E+03  0.26297913629E+03 0.  0.
         25    1    3    3    0    0 -0.10104708096E+03  0.15520759560E+02  0.18528669838E+03  0.24582529415E+03  0.12509000000E+03 0.  0.
         25    1    4    4    0    0  0.22152984858E+02 -0.63286419812E+01  0.96219556377E+00  0.12719764293E+03  0.12509000000E+03 0.  0.
         25    1    4    4    0    0  0.78894096104E+02 -0.91921175788E+01  0.69242727606E+02  0.16355683065E+03  0.12509000000E+03 0.  0.
<mgrwt>
<rscale>  2 0.47184942E+03</rscale>
<asrwt>0</asrwt>
<pdfrwt beam="1">  1       21 0.58240543E-01 0.47184942E+03</pdfrwt>
<pdfrwt beam="2">  1       21 0.20668246E-01 0.47184942E+03</pdfrwt>
<totfact> 0.55036841E+04</totfact>
</mgrwt>
</event>
<event>
 7    0  0.4705418E-002  0.4471272E+03  0.7546771E-02  0.1028582E+00
         21   -1    0    0  502  501  0.00000000000E+00  0.00000000000E+00  0.63821661567E+02  0.63821661567E+02  0.00000000000E+00 0. -1.
         21   -1    0    0  501  502 -0.00000000000E+00 -0.00000000000E+00 -0.78313033398E+03  0.78313033398E+03  0.00000000000E+00 0. -1.
      99926    2    1    2    0    0  0.00000000000E+00  0.00000000000E+00 -0.71930867241E+03  0.84695199555E+03  0.44712718163E+03 0.  0.
      99925    2    3    3    0    0 -0.19333012928E+02 -0.34955023200E+02 -0.64114422316E+03  0.69413573901E+03  0.26298838423E+03 0.  0.
         25    1    4    4    0    0 -0.43082752117E+02 -0.66782083123E+01 -0.37590552717E+03  0.39856391640E+03  0.12509000000E+03 0.  0.
         25    1    4    4    0    0  0.23749739189E+02 -0.28276814888E+02 -0.26523869599E+03  0.29557182261E+03  0.12509000000E+03 0.  0.
         25    1    3    3    0    0  0.19333012928E+02  0.34955023200E+02 -0.78164449255E+02  0.15281625654E+03  0.12509000000E+03 0.  0.
<mgrwt>
<rscale>  2 0.44712718E+03</rscale>
<asrwt>0</asrwt>
<pdfrwt beam="1">  1       21 0.93855393E-02 0.44712718E+03</pdfrwt>
<pdfrwt beam="2">  1       21 0.11516621E+00 0.44712718E+03</pdfrwt>
<totfact> 0.48502888E+04</totfact>
</mgrwt>
</event>
<event>
 7    0  0.4705418E-002  0.4643985E+03  0.7546771E-02  0.1023513E+00
         21   -1    0    0  502  501  0.00000000000E+00  0.00000000000E+00  0.36855850182E+03  0.36855850182E+03  0.00000000000E+00 0.  1.
         21   -1    0    0  501  502 -0.00000000000E+00 -0.00000000000E+00 -0.14629019488E+03  0.14629019488E+03  0.00000000000E+00 0.  1.
      99926    2    1    2    0    0  0.00000000000E+00 -0.71054273576E-14  0.22226830694E+03  0.51484869670E+03  0.46439851445E+03 0.  0.
      99925    2    3    3    0    0  0.39799333778E+02  0.61610562001E+02  0.24546115311E+03  0.36799753214E+03  0.26418016136E+03 0.  0.
         25    1    3    3    0    0 -0.39799333778E+02 -0.61610562001E+02 -0.23192846172E+02  0.14685116456E+03  0.12509000000E+03 0.  0.
         25    1    4    4    0    0  0.10902931536E+02  0.70474428264E+02  0.11039104958E+03  0.18143652025E+03  0.12509000000E+03 0.  0.
         25    1    4    4    0    0  0.28896402242E+02 -0.88638662629E+01  0.13507010353E+03  0.18656101189E+03  0.12509000000E+03 0.  0.
<mgrwt>
<rscale>  2 0.46439851E+03</rscale>
<asrwt>0</asrwt>
<pdfrwt beam="1">  1       21 0.54199780E-01 0.46439851E+03</pdfrwt>
<pdfrwt beam="2">  1       21 0.21513264E-01 0.46439851E+03</pdfrwt>
<totfact> 0.59663521E+04</totfact>
</mgrwt>
</event>
<event>
 7    0  0.4705418E-002  0.4293220E+03  0.7546771E-02  0.1034074E+00
         21   -1    0    0  502  501  0.00000000000E+00  0.00000000000E+00  0.17636145665E+02  0.17636145665E+02  0.00000000000E+00 0.  1.
         21   -1    0    0  501  502 -0.00000000000E+00 -0.00000000000E+00 -0.26127784227E+04  0.26127784227E+04  0.00000000000E+00 0.  1.
      99926    2    1    2    0    0 -0.35527136788E-14  0.00000000000E+00 -0.25951422770E+04  0.26304145683E+04  0.42932198105E+03 0.  0.
      99925    2    3    3    0    0  0.16498536394E+02  0.39163530281E+02 -0.12090887004E+04  0.12380791170E+04  0.26294187692E+03 0.  0.
         25    1    4    4    0    0 -0.25996875961E+02 -0.41327177730E+00 -0.53744364090E+03  0.55242120125E+03  0.12509000000E+03 0.  0.
         25    1    3    3    0    0 -0.16498536394E+02 -0.39163530281E+02 -0.13860535766E+04  0.13923354514E+04  0.12509000000E+03 0.  0.
         25    1    4    4    0    0  0.42495412355E+02  0.39576802058E+02 -0.67164505952E+03  0.68565791573E+03  0.12509000000E+03 0.  0.
<mgrwt>
<rscale>  2 0.42932198E+03</rscale>
<asrwt>0</asrwt>
<pdfrwt beam="1">  1       21 0.25935498E-02 0.42932198E+03</pdfrwt>
<pdfrwt beam="2">  1       21 0.38423227E+00 0.42932198E+03</pdfrwt>
<totfact> 0.72258364E+03</totfact>
</mgrwt>
</event>
<event>
 7    0  0.4705418E-002  0.4545795E+03  0.7546771E-02  0.1026365E+00
         21   -1    0    0  502  501  0.00000000000E+00  0.00000000000E+00  0.22599640977E+02  0.22599640977E+02  0.00000000000E+00 0.  1.
         21   -1    0    0  501  502 -0.00000000000E+00 -0.00000000000E+00 -0.22859044417E+04  0.22859044417E+04  0.00000000000E+00 0.  1.
      99926    2    1    2    0    0  0.00000000000E+00  0.14210854715E-13 -0.22633048007E+04  0.23085040826E+04  0.45457945264E+03 0.  0.
      99925    2    3    3    0    0 -0.30116876933E+02  0.80873007836E+02 -0.10552595183E+04  0.10909375004E+04  0.26291540322E+03 0.  0.
         25    1    4    4    0    0 -0.15369471856E+02  0.65540003829E+02 -0.68395242424E+03  0.69854859494E+03  0.12509000000E+03 0.  0.
         25    1    3    3    0    0  0.30116876933E+02 -0.80873007836E+02 -0.12080452824E+04  0.12175665822E+04  0.12509000000E+03 0.  0.
         25    1    4    4    0    0 -0.14747405077E+02  0.15333004007E+02 -0.37130709405E+03  0.39238890550E+03  0.12509000000E+03 0.  0.
<mgrwt>
<rscale>  2 0.45457945E+03</rscale>
<asrwt>0</asrwt>
<pdfrwt beam="1">  1       21 0.33234763E-02 0.45457945E+03</pdfrwt>
<pdfrwt beam="2">  1       21 0.33616245E+00 0.45457945E+03</pdfrwt>
<totfact> 0.93256286E+03</totfact>
</mgrwt>
</event>
<event>
 7    0  0.4705418E-002  0.4569562E+03  0.7546771E-02  0.1025668E+00
         21   -1    0    0  502  501  0.00000000000E+00  0.00000000000E+00  0.37162537038E+02  0.37162537038E+02  0.00000000000E+00 0. -1.
         21   -1    0    0  501  502 -0.00000000000E+00 -0.00000000000E+00 -0.14047006479E+04  0.14047006479E+04  0.00000000000E+00 0. -1.
      99926    2    1    2    0    0 -0.14210854715E-13  0.00000000000E+00 -0.13675381109E+04  0.14418631849E+04  0.45695618982E+03 0.  0.
      99925    2    3    3    0    0  0.97273877529E+02 -0.55471629195E+02 -0.77665023112E+03  0.82758694136E+03  0.26301189159E+03 0.  0.
         25    1    4    4    0    0  0.84669323652E+02 -0.41734481080E+02 -0.37285468688E+03  0.40444874448E+03  0.12509000000E+03 0.  0.
         25    1    4    4    0    0  0.12604553877E+02 -0.13737148115E+02 -0.40379554424E+03  0.42313819688E+03  0.12509000000E+03 0.  0.
         25    1    3    3    0    0 -0.97273877529E+02  0.55471629195E+02 -0.59088787974E+03  0.61427624357E+03  0.12509000000E+03 0.  0.
<mgrwt>
<rscale>  2 0.45695619E+03</rscale>
<asrwt>0</asrwt>
<pdfrwt beam="1">  1       21 0.54650789E-02 0.45695619E+03</pdfrwt>
<pdfrwt beam="2">  1       21 0.20657363E+00 0.45695619E+03</pdfrwt>
<totfact> 0.24857509E+04</totfact>
</mgrwt>
</event>
<event>
 7    0  0.4705418E-002  0.4538536E+03  0.7546771E-02  0.1026579E+00
         21   -1    0    0  502  501  0.00000000000E+00  0.00000000000E+00  0.75716859262E+02  0.75716859262E+02  0.00000000000E+00 0.  1.
         21   -1    0    0  501  502 -0.00000000000E+00 -0.00000000000E+00 -0.68010980379E+03  0.68010980379E+03  0.00000000000E+00 0.  1.
      99926    2    1    2    0    0  0.71054273576E-14  0.71054273576E-14 -0.60439294453E+03  0.75582666305E+03  0.45385362529E+03 0.  0.
      99925    2    3    3    0    0 -0.56051001647E+02 -0.58304664331E+02 -0.50992546060E+03  0.57943856173E+03  0.26302836878E+03 0.  0.
         25    1    3    3    0    0  0.56051001647E+02  0.58304664331E+02 -0.94467483924E+02  0.17638810132E+03  0.12509000000E+03 0.  0.
         25    1    4    4    0    0 -0.27888899663E+02 -0.43064075106E+02 -0.34092499175E+03  0.36675559081E+03  0.12509000000E+03 0.  0.
         25    1    4    4    0    0 -0.28162101984E+02 -0.15240589224E+02 -0.16900046885E+03  0.21268297092E+03  0.12509000000E+03 0.  0.
<mgrwt>
<rscale>  2 0.45385363E+03</rscale>
<asrwt>0</asrwt>
<pdfrwt beam="1">  1       21 0.11134833E-01 0.45385363E+03</pdfrwt>
<pdfrwt beam="2">  1       21 0.10001614E+00 0.45385363E+03</pdfrwt>
<totfact> 0.50427232E+04</totfact>
</mgrwt>
</event>
<event>
 7    0  0.4705418E-002  0.4576199E+03  0.7546771E-02  0.1025474E+00
         21   -1    0    0  502  501  0.00000000000E+00  0.00000000000E+00  0.42396831071E+02  0.42396831071E+02  0.00000000000E+00 0.  1.
         21   -1    0    0  501  502 -0.00000000000E+00 -0.00000000000E+00 -0.12348560969E+04  0.12348560969E+04  0.00000000000E+00 0.  1.
      99926    2    1    2    0    0  0.00000000000E+00 -0.35527136788E-14 -0.11924592659E+04  0.12772529280E+04  0.45761986556E+03 0.  0.
      99925    2    3    3    0    0  0.85376674470E+01 -0.26831793231E+02 -0.44027844106E+03  0.51422190754E+03  0.26417083040E+03 0.  0.
         25    1    4    4    0    0  0.38011162131E+02 -0.48294096457E+01 -0.17361059248E+03  0.21738518249E+03  0.12509000000E+03 0.  0.
         25    1    3    3    0    0 -0.85376674470E+01  0.26831793231E+02 -0.75218082481E+03  0.76303102047E+03  0.12509000000E+03 0.  0.
         25    1    4    4    0    0 -0.29473494684E+02 -0.22002383586E+02 -0.26666784857E+03  0.29683672505E+03  0.12509000000E+03 0.  0.
<mgrwt>
<rscale>  2 0.45761987E+03</rscale>
<asrwt>0</asrwt>
<pdfrwt beam="1">  1       21 0.62348283E-02 0.45761987E+03</pdfrwt>
<pdfrwt beam="2">  1       21 0.18159648E+00 0.45761987E+03</pdfrwt>
<totfact> 0.29183033E+04</totfact>
</mgrwt>
</event>
<event>
 7    0  0.4705418E-002  0.4581476E+03  0.7546771E-02  0.1025320E+00
         21   -1    0    0  502  501  0.00000000000E+00  0.00000000000E+00  0.10248087497E+03  0.10248087497E+03  0.00000000000E+00 0. -1.
         21   -1    0    0  501  502 -0.00000000000E+00 -0.00000000000E+00 -0.51204492748E+03  0.51204492748E+03  0.00000000000E+00 0. -1.
      99926    2    1    2    0    0  0.00000000000E+00  0.00000000000E+00 -0.40956405251E+03  0.61452580245E+03  0.45814762770E+03 0.  0.
      99925    2    3    3    0    0 -0.54350220734E+02 -0.32320980047E+02 -0.38753086676E+03  0.47264006807E+03  0.26307768626E+03 0.  0.
         25    1    3    3    0    0  0.54350220734E+02  0.32320980047E+02 -0.22033185752E+02  0.14188573438E+03  0.12509000000E+03 0.  0.
         25    1    4    4    0    0 -0.66702670382E+01 -0.50753519275E+02 -0.20452917615E+03  0.24515322592E+03  0.12509000000E+03 0.  0.
         25    1    4    4    0    0 -0.47679953696E+02  0.18432539228E+02 -0.18300169060E+03  0.22748684215E+03  0.12509000000E+03 0.  0.
<mgrwt>
<rscale>  2 0.45814763E+03</rscale>
<asrwt>0</asrwt>
<pdfrwt beam="1">  1       21 0.15070717E-01 0.45814763E+03</pdfrwt>
<pdfrwt beam="2">  1       21 0.75300725E-01 0.45814763E+03</pdfrwt>
<totfact> 0.56378272E+04</totfact>
</mgrwt>
</event>
<event>
 7    0  0.4705418E-002  0.4557754E+03  0.7546771E-02  0.1026014E+00
         21   -1    0    0  502  501  0.00000000000E+00  0.00000000000E+00  0.53353031228E+03  0.53353031228E+03  0.00000000000E+00 0. -1.
         21   -1    0    0  501  502 -0.00000000000E+00 -0.00000000000E+00 -0.97338071861E+02  0.97338071861E+02  0.00000000000E+00 0. -1.
      99926    2    1    2    0    0  0.00000000000E+00  0.35527136788E-14  0.43619224042E+03  0.63086838414E+03  0.45577543539E+03 0.  0.
      99925    2    3    3    0    0 -0.10026438033E+03 -0.29560601898E+02  0.33678271379E+03  0.43993243354E+03  0.26304215370E+03 0.  0.
         25    1    3    3    0    0  0.10026438033E+03  0.29560601898E+02  0.99409526627E+02  0.19093595060E+03  0.12509000000E+03 0.  0.
         25    1    4    4    0    0 -0.62876503845E+02 -0.36910577530E+02  0.22674900708E+03  0.26903246232E+03  0.12509000000E+03 0.  0.
         25    1    4    4    0    0 -0.37387876487E+02  0.73499756324E+01  0.11003370671E+03  0.17089997122E+03  0.12509000000E+03 0.  0.
<mgrwt>
<rscale>  2 0.45577544E+03</rscale>
<asrwt>0</asrwt>
<pdfrwt beam="1">  1       21 0.78460339E-01 0.45577544E+03</pdfrwt>
<pdfrwt beam="2">  1       21 0.14314423E-01 0.45577544E+03</pdfrwt>
<totfact> 0.56470887E+04</totfact>
</mgrwt>
</event>
<event>
 7    0  0.4705418E-002  0.4701225E+03  0.7546771E-02  0.1021886E+00
         21   -1    0    0  502  501  0.00000000000E+00  0.00000000000E+00  0.89188407294E+02  0.89188407294E+02  0.00000000000E+00 0. -1.
         21   -1    0    0  501  502 -0.00000000000E+00 -0.00000000000E+00 -0.61951773626E+03  0.61951773626E+03  0.00000000000E+00 0. -1.
      99926    2    1    2    0    0  0.00000000000E+00  0.00000000000E+00 -0.53032932897E+03  0.70870614356E+03  0.47012253802E+03 0.  0.
      99925    2    3    3    0    0  0.43277884822E+02 -0.64098854645E+02 -0.48096798617E+03  0.55357494507E+03  0.26293226810E+03 0.  0.
         25    1    3    3    0    0 -0.43277884822E+02  0.64098854645E+02 -0.49361342802E+02  0.15513119849E+03  0.12509000000E+03 0.  0.
         25    1    4    4    0    0  0.18799261303E+02 -0.55022232633E+02 -0.31685079390E+03  0.34557602927E+03  0.12509000000E+03 0.  0.
         25    1    4    4    0    0  0.24478623519E+02 -0.90766220125E+01 -0.16411719227E+03  0.20799891580E+03  0.12509000000E+03 0.  0.
<mgrwt>
<rscale>  2 0.47012254E+03</rscale>
<asrwt>0</asrwt>
<pdfrwt beam="1">  1       21 0.13115942E-01 0.47012254E+03</pdfrwt>
<pdfrwt beam="2">  1       21 0.91105550E-01 0.47012254E+03</pdfrwt>
<totfact> 0.46630533E+04</totfact>
</mgrwt>
</event>
<event>
 7    0  0.4705418E-002  0.4516784E+03  0.7546771E-02  0.1027223E+00
         21   -1    0    0  502  501  0.00000000000E+00  0.00000000000E+00  0.85735282067E+02  0.85735282067E+02  0.00000000000E+00 0. -1.
         21   -1    0    0  501  502 -0.00000000000E+00 -0.00000000000E+00 -0.59489329091E+03  0.59489329091E+03  0.00000000000E+00 0. -1.
      99926    2    1    2    0    0  0.00000000000E+00  0.00000000000E+00 -0.50915800884E+03  0.68062857297E+03  0.45167839929E+03 0.  0.
      99925    2    3    3    0    0 -0.13146997959E+02 -0.10838391988E+03 -0.30114381222E+03  0.41447573767E+03  0.26302589955E+03 0.  0.
         25    1    4    4    0    0  0.53359292843E+01 -0.42540263126E+02 -0.90935025894E+02  0.16048312423E+03  0.12509000000E+03 0.  0.
         25    1    3    3    0    0  0.13146997959E+02  0.10838391988E+03 -0.20801419662E+03  0.26615283530E+03  0.12509000000E+03 0.  0.
         25    1    4    4    0    0 -0.18482927243E+02 -0.65843656754E+02 -0.21020878633E+03  0.25399261344E+03  0.12509000000E+03 0.  0.
<mgrwt>
<rscale>  2 0.45167840E+03</rscale>
<asrwt>0</asrwt>
<pdfrwt beam="1">  1       21 0.12608129E-01 0.45167840E+03</pdfrwt>
<pdfrwt beam="2">  1       21 0.87484309E-01 0.45167840E+03</pdfrwt>
<totfact> 0.55402616E+04</totfact>
</mgrwt>
</event>
<event>
 7    0  0.4705418E-002  0.4617084E+03  0.7546771E-02  0.1024287E+00
         21   -1    0    0  502  501  0.00000000000E+00  0.00000000000E+00  0.12986308387E+03  0.12986308387E+03  0.00000000000E+00 0. -1.
         21   -1    0    0  501  502 -0.00000000000E+00 -0.00000000000E+00 -0.41038340234E+03  0.41038340234E+03  0.00000000000E+00 0. -1.
      99926    2    1    2    0    0  0.00000000000E+00 -0.26645352591E-14 -0.28052031847E+03  0.54024648621E+03  0.46170836769E+03 0.  0.
      99925    2    3    3    0    0  0.90942354796E+02 -0.69225964151E+01 -0.85325250544E+02  0.29111387719E+03  0.26296094173E+03 0.  0.
         25    1    3    3    0    0 -0.90942354796E+02  0.69225964151E+01 -0.19519506792E+03  0.24913260902E+03  0.12509000000E+03 0.  0.
         25    1    4    4    0    0  0.56761800194E+02 -0.38721805041E+02 -0.61864069217E+02  0.15555047832E+03  0.12509000000E+03 0.  0.
         25    1    4    4    0    0  0.34180554602E+02  0.31799208626E+02 -0.23461181327E+02  0.13556339886E+03  0.12509000000E+03 0.  0.
<mgrwt>
<rscale>  2 0.46170837E+03</rscale>
<asrwt>0</asrwt>
<pdfrwt beam="1">  1       21 0.19097513E-01 0.46170837E+03</pdfrwt>
<pdfrwt beam="2">  1       21 0.60350499E-01 0.46170837E+03</pdfrwt>
<totfact> 0.59302217E+04</totfact>
</mgrwt>
</event>
<event>
 7    0  0.4705418E-002  0.4461364E+03  0.7546771E-02  0.1028881E+00
         21   -1    0    0  502  501  0.00000000000E+00  0.00000000000E+00  0.15014375013E+04  0.15014375013E+04  0.00000000000E+00 0.  1.
         21   -1    0    0  501  502 -0.00000000000E+00 -0.00000000000E+00 -0.33141186649E+02  0.33141186649E+02  0.00000000000E+00 0.  1.
      99926    2    1    2    0    0  0.00000000000E+00  0.00000000000E+00  0.14682963147E+04  0.15345786880E+04  0.44613639382E+03 0.  0.
      99925    2    3    3    0    0  0.89147941071E+02  0.44569228657E+02  0.82044481198E+03  0.86727602113E+03  0.26287684525E+03 0.  0.
         25    1    4    4    0    0  0.83764558014E+02  0.95214161843E+01  0.45959818390E+03  0.48372012289E+03  0.12509000000E+03 0.  0.
         25    1    4    4    0    0  0.53833830570E+01  0.35047812473E+02  0.36084662808E+03  0.38355589823E+03  0.12509000000E+03 0.  0.
         25    1    3    3    0    0 -0.89147941071E+02 -0.44569228657E+02  0.64785150268E+03  0.66730266684E+03  0.12509000000E+03 0.  0.
<mgrwt>
<rscale>  2 0.44613639E+03</rscale>
<asrwt>0</asrwt>
<pdfrwt beam="1">  1       21 0.22079959E+00 0.44613639E+03</pdfrwt>
<pdfrwt beam="2">  1       21 0.48737049E-02 0.44613639E+03</pdfrwt>
<totfact> 0.24594295E+04</totfact>
</mgrwt>
</event>
<event>
 7    0  0.4705418E-002  0.4531093E+03  0.7546771E-02  0.1026799E+00
         21   -1    0    0  502  501  0.00000000000E+00  0.00000000000E+00  0.50728983482E+03  0.50728983482E+03  0.00000000000E+00 0.  1.
         21   -1    0    0  501  502 -0.00000000000E+00 -0.00000000000E+00 -0.10117886027E+03  0.10117886027E+03  0.00000000000E+00 0.  1.
      99926    2    1    2    0    0  0.00000000000E+00  0.00000000000E+00  0.40611097455E+03  0.60846869508E+03  0.45310929062E+03 0.  0.
      99925    2    3    3    0    0  0.84531684235E+02  0.72175870876E+02  0.26676253561E+03  0.39070630735E+03  0.26293384381E+03 0.  0.
         25    1    3    3    0    0 -0.84531684235E+02 -0.72175870876E+02  0.13934843894E+03  0.21776238773E+03  0.12509000000E+03 0.  0.
         25    1    4    4    0    0  0.39070603524E+02  0.45502447661E+02  0.81023725966E+02  0.16065284645E+03  0.12509000000E+03 0.  0.
         25    1    4    4    0    0  0.45461080711E+02  0.26673423214E+02  0.18573880964E+03  0.23005346090E+03  0.12509000000E+03 0.  0.
<mgrwt>
<rscale>  2 0.45310929E+03</rscale>
<asrwt>0</asrwt>
<pdfrwt beam="1">  1       21 0.74601445E-01 0.45310929E+03</pdfrwt>
<pdfrwt beam="2">  1       21 0.14879244E-01 0.45310929E+03</pdfrwt>
<totfact> 0.59036797E+04</totfact>
</mgrwt>
</event>
<event>
 7    0  0.4705418E-002  0.4559014E+03  0.7546771E-02  0.1025977E+00
         21   -1    0    0  502  501  0.00000000000E+00  0.00000000000E+00  0.11721513735E+03  0.11721513735E+03  0.00000000000E+00 0.  1.
         21   -1    0    0  501  502 -0.00000000000E+00 -0.00000000000E+00 -0.44330053115E+03  0.44330053115E+03  0.00000000000E+00 0.  1.
      99926    2    1    2    0    0  0.44408920985E-14  0.00000000000E+00 -0.32608539381E+03  0.56051566850E+03  0.45590144832E+03 0.  0.
      99925    2    3    3    0    0 -0.76716736059E+01 -0.65534476962E+02 -0.31934667424E+03  0.41892986170E+03  0.26299488289E+03 0.  0.
         25    1    3    3    0    0  0.76716736059E+01  0.65534476962E+02 -0.67387195640E+01  0.14158580680E+03  0.12509000000E+03 0.  0.
         25    1    4    4    0    0 -0.43031616199E+02 -0.43633405133E+02 -0.16701983237E+03  0.21748270400E+03  0.12509000000E+03 0.  0.
         25    1    4    4    0    0  0.35359942593E+02 -0.21901071828E+02 -0.15232684187E+03  0.20144715769E+03  0.12509000000E+03 0.  0.
<mgrwt>
<rscale>  2 0.45590145E+03</rscale>
<asrwt>0</asrwt>
<pdfrwt beam="1">  1       21 0.17237521E-01 0.45590145E+03</pdfrwt>
<pdfrwt beam="2">  1       21 0.65191253E-01 0.45590145E+03</pdfrwt>
<totfact> 0.60742660E+04</totfact>
</mgrwt>
</event>
<event>
 7    0  0.4705418E-002  0.4504472E+03  0.7546771E-02  0.1027589E+00
         21   -1    0    0  502  501  0.00000000000E+00  0.00000000000E+00  0.49691759464E+03  0.49691759464E+03  0.00000000000E+00 0.  1.
         21   -1    0    0  501  502 -0.00000000000E+00 -0.00000000000E+00 -0.10208064766E+03  0.10208064766E+03  0.00000000000E+00 0.  1.
      99926    2    1    2    0    0  0.14210854715E-13  0.00000000000E+00  0.39483694698E+03  0.59899824230E+03  0.45044719954E+03 0.  0.
      99925    2    3    3    0    0  0.80858200796E+02 -0.38414291208E+02  0.16719133700E+03  0.32425520190E+03  0.26301100050E+03 0.  0.
         25    1    4    4    0    0  0.40203725744E+02 -0.10484663819E+02  0.36561257926E+02  0.13678633492E+03  0.12509000000E+03 0.  0.
         25    1    3    3    0    0 -0.80858200796E+02  0.38414291208E+02  0.22764560998E+03  0.27474304040E+03  0.12509000000E+03 0.  0.
         25    1    4    4    0    0  0.40654475053E+02 -0.27929627389E+02  0.13063007907E+03  0.18746886698E+03  0.12509000000E+03 0.  0.
<mgrwt>
<rscale>  2 0.45044720E+03</rscale>
<asrwt>0</asrwt>
<pdfrwt beam="1">  1       21 0.73076116E-01 0.45044720E+03</pdfrwt>
<pdfrwt beam="2">  1       21 0.15011860E-01 0.45044720E+03</pdfrwt>
<totfact> 0.60901394E+04</totfact>
</mgrwt>
</event>
<event>
 7    0  0.4705418E-002  0.4556831E+03  0.7546771E-02  0.1026041E+00
         21   -1    0    0  502  501  0.00000000000E+00  0.00000000000E+00  0.83843332271E+03  0.83843332271E+03  0.00000000000E+00 0. -1.
         21   -1    0    0  501  502 -0.00000000000E+00 -0.00000000000E+00 -0.61915195499E+02  0.61915195499E+02  0.00000000000E+00 0. -1.
      99926    2    1    2    0    0 -0.14210854715E-13  0.71054273576E-14  0.77651812721E+03  0.90034851821E+03  0.45568306130E+03 0.  0.
      99925    2    3    3    0    0  0.77954967125E+02 -0.48646522765E+02  0.62098029284E+03  0.68061461755E+03  0.26301382559E+03 0.  0.
         25    1    3    3    0    0 -0.77954967125E+02  0.48646522765E+02  0.15553783437E+03  0.21973390065E+03  0.12509000000E+03 0.  0.
         25    1    4    4    0    0  0.79379552381E+02 -0.31061278470E+02  0.31103886617E+03  0.34591704312E+03  0.12509000000E+03 0.  0.
         25    1    4    4    0    0 -0.14245852557E+01 -0.17585244295E+02  0.30994142668E+03  0.33469757443E+03  0.12509000000E+03 0.  0.
<mgrwt>
<rscale>  2 0.45568306E+03</rscale>
<asrwt>0</asrwt>
<pdfrwt beam="1">  1       21 0.12329901E+00 0.45568306E+03</pdfrwt>
<pdfrwt beam="2">  1       21 0.91051763E-02 0.45568306E+03</pdfrwt>
<totfact> 0.42988262E+04</totfact>
</mgrwt>
</event>
<event>
 7    0  0.4705418E-002  0.4564081E+03  0.7546771E-02  0.1025828E+00
         21   -1    0    0  502  501  0.00000000000E+00  0.00000000000E+00  0.29673681732E+03  0.29673681732E+03  0.00000000000E+00 0.  1.
         21   -1    0    0  501  502 -0.00000000000E+00 -0.00000000000E+00 -0.17549924718E+03  0.17549924718E+03  0.00000000000E+00 0.  1.
      99926    2    1    2    0    0  0.00000000000E+00  0.00000000000E+00  0.12123757014E+03  0.47223606450E+03  0.45640809830E+03 0.  0.
      99925    2    3    3    0    0 -0.36772067363E+02  0.10772234306E+03  0.60682750582E+02  0.29259563919E+03  0.26262810916E+03 0.  0.
         25    1    4    4    0    0 -0.39915217181E+02  0.91511952038E+02  0.32640455778E+02  0.16334187884E+03  0.12509000000E+03 0.  0.
         25    1    4    4    0    0  0.31431498181E+01  0.16210391022E+02  0.28042294803E+02  0.12925376035E+03  0.12509000000E+03 0.  0.
         25    1    3    3    0    0  0.36772067363E+02 -0.10772234306E+03  0.60554819561E+02  0.17964042531E+03  0.12509000000E+03 0.  0.
<mgrwt>
<rscale>  2 0.45640810E+03</rscale>
<asrwt>0</asrwt>
<pdfrwt beam="1">  1       21 0.43637767E-01 0.45640810E+03</pdfrwt>
<pdfrwt beam="2">  1       21 0.25808713E-01 0.45640810E+03</pdfrwt>
<totfact> 0.66523524E+04</totfact>
</mgrwt>
</event>
<event>
 7    0  0.4705418E-002  0.4568424E+03  0.7546771E-02  0.1025701E+00
         21   -1    0    0  502  501  0.00000000000E+00  0.00000000000E+00  0.66686125017E+03  0.66686125017E+03  0.00000000000E+00 0.  1.
         21   -1    0    0  501  502 -0.00000000000E+00 -0.00000000000E+00 -0.78241533662E+02  0.78241533662E+02  0.00000000000E+00 0.  1.
      99926    2    1    2    0    0  0.35527136788E-14  0.00000000000E+00  0.58861971651E+03  0.74510278384E+03  0.45684241026E+03 0.  0.
      99925    2    3    3    0    0  0.17838853031E+02  0.11098919633E+02  0.55401372936E+03  0.61362467485E+03  0.26298786774E+03 0.  0.
         25    1    3    3    0    0 -0.17838853031E+02 -0.11098919633E+02  0.34605987151E+02  0.13147810898E+03  0.12509000000E+03 0.  0.
         25    1    4    4    0    0 -0.37111954111E+01 -0.17078914208E+02  0.34583347764E+03  0.36817626843E+03  0.12509000000E+03 0.  0.
         25    1    4    4    0    0  0.21550048442E+02  0.28177833841E+02  0.20818025172E+03  0.24544840642E+03  0.12509000000E+03 0.  0.
<mgrwt>
<rscale>  2 0.45684241E+03</rscale>
<asrwt>0</asrwt>
<pdfrwt beam="1">  1       21 0.98067828E-01 0.45684241E+03</pdfrwt>
<pdfrwt beam="2">  1       21 0.11506108E-01 0.45684241E+03</pdfrwt>
<totfact> 0.49796535E+04</totfact>
</mgrwt>
</event>
<event>
 7    0  0.4705418E-002  0.4565894E+03  0.7546771E-02  0.1025775E+00
         21   -1    0    0  502  501  0.00000000000E+00  0.00000000000E+00  0.73465209583E+02  0.73465209583E+02  0.00000000000E+00 0. -1.
         21   -1    0    0  501  502 -0.00000000000E+00 -0.00000000000E+00 -0.70943073068E+03  0.70943073068E+03  0.00000000000E+00 0. -1.
      99926    2    1    2    0    0  0.00000000000E+00  0.00000000000E+00 -0.63596552110E+03  0.78289594026E+03  0.45658943183E+03 0.  0.
      99925    2    3    3    0    0  0.89562991073E+02 -0.66810394998E+02 -0.44303491054E+03  0.52724992164E+03  0.26311098354E+03 0.  0.
         25    1    4    4    0    0  0.78038259195E+02 -0.54031461269E+02 -0.28014288311E+03  0.32114936052E+03  0.12509000000E+03 0.  0.
         25    1    3    3    0    0 -0.89562991073E+02  0.66810394998E+02 -0.19293061056E+03  0.25564601863E+03  0.12509000000E+03 0.  0.
         25    1    4    4    0    0  0.11524731878E+02 -0.12778933729E+02 -0.16289202743E+03  0.20610056112E+03  0.12509000000E+03 0.  0.
<mgrwt>
<rscale>  2 0.45658943E+03</rscale>
<asrwt>0</asrwt>
<pdfrwt beam="1">  1       21 0.10803707E-01 0.45658943E+03</pdfrwt>
<pdfrwt beam="2">  1       21 0.10432805E+00 0.45658943E+03</pdfrwt>
<totfact> 0.48001633E+04</totfact>
</mgrwt>
</event>
<event>
 7    0  0.4705418E-002  0.4499691E+03  0.7546771E-02  0.1027731E+00
         21   -1    0    0  502  501  0.00000000000E+00  0.00000000000E+00  0.38010849707E+03  0.38010849707E+03  0.00000000000E+00 0.  1.
         21   -1    0    0  501  502 -0.00000000000E+00 -0.00000000000E+00 -0.13316734393E+03  0.13316734393E+03  0.00000000000E+00 0.  1.
      99926    2    1    2    0    0  0.71054273576E-14 -0.71054273576E-14  0.24694115315E+03  0.51327584100E+03  0.44996906098E+03 0.  0.
      99925    2    3    3    0    0 -0.56560815012E+02  0.57571867843E+02  0.23857043863E+03  0.36417445696E+03  0.26304664064E+03 0.  0.
         25    1    4    4    0    0  0.90650238180E+01  0.15404918345E+02  0.12829597200E+03  0.18007456982E+03  0.12509000000E+03 0.  0.
         25    1    4    4    0    0 -0.65625838830E+02  0.42166949498E+02  0.11027446663E+03  0.18409988713E+03  0.12509000000E+03 0.  0.
         25    1    3    3    0    0  0.56560815012E+02 -0.57571867843E+02  0.83707145200E+01  0.14910138404E+03  0.12509000000E+03 0.  0.
<mgrwt>
<rscale>  2 0.44996906E+03</rscale>
<asrwt>0</asrwt>
<pdfrwt beam="1">  1       21 0.55898308E-01 0.44996906E+03</pdfrwt>
<pdfrwt beam="2">  1       21 0.19583433E-01 0.44996906E+03</pdfrwt>
<totfact> 0.66981901E+04</totfact>
</mgrwt>
</event>
<event>
 7    0  0.4705418E-002  0.4536768E+03  0.7546771E-02  0.1026631E+00
         21   -1    0    0  502  501  0.00000000000E+00  0.00000000000E+00  0.83583318749E+02  0.83583318749E+02  0.00000000000E+00 0. -1.
         21   -1    0    0  501  502 -0.00000000000E+00 -0.00000000000E+00 -0.61562128468E+03  0.61562128468E+03  0.00000000000E+00 0. -1.
      99926    2    1    2    0    0  0.00000000000E+00  0.00000000000E+00 -0.53203796594E+03  0.69920460343E+03  0.45367684563E+03 0.  0.
      99925    2    3    3    0    0  0.64930604311E+02 -0.89201784318E+02 -0.30590953911E+03  0.41821614242E+03  0.26296606998E+03 0.  0.
         25    1    3    3    0    0 -0.64930604311E+02  0.89201784318E+02 -0.22612842683E+03  0.28098846101E+03  0.12509000000E+03 0.  0.
         25    1    4    4    0    0  0.43810052969E+02 -0.21710748719E+02 -0.19461903276E+03  0.23646300633E+03  0.12509000000E+03 0.  0.
         25    1    4    4    0    0  0.21120551342E+02 -0.67491035600E+02 -0.11129050635E+03  0.18175313609E+03  0.12509000000E+03 0.  0.
<mgrwt>
<rscale>  2 0.45367685E+03</rscale>
<asrwt>0</asrwt>
<pdfrwt beam="1">  1       21 0.12291664E-01 0.45367685E+03</pdfrwt>
<pdfrwt beam="2">  1       21 0.90532544E-01 0.45367685E+03</pdfrwt>
<totfact> 0.53501106E+04</totfact>
</mgrwt>
</event>
<event>
 7    0  0.4705418E-002  0.4525359E+03  0.7546771E-02  0.1026968E+00
         21   -1    0    0  502  501  0.00000000000E+00  0.00000000000E+00  0.18069309336E+03  0.18069309336E+03  0.00000000000E+00 0. -1.
         21   -1    0    0  501  502 -0.00000000000E+00 -0.00000000000E+00 -0.28333784912E+03  0.28333784912E+03  0.00000000000E+00 0. -1.
      99926    2    1    2    0    0  0.00000000000E+00  0.00000000000E+00 -0.10264475577E+03  0.46403094248E+03  0.45253593194E+03 0.  0.
      99925    2    3    3    0    0  0.43532467760E+02  0.44102649615E+01  0.39532013072E+02  0.26966976353E+03  0.26314344969E+03 0.  0.
         25    1    4    4    0    0 -0.18183733231E+02 -0.17409310511E+01  0.89163038271E+01  0.12673076804E+03  0.12509000000E+03 0.  0.
         25    1    4    4    0    0  0.61716200991E+02  0.61511960127E+01  0.30615709245E+02  0.14293899548E+03  0.12509000000E+03 0.  0.
         25    1    3    3    0    0 -0.43532467760E+02 -0.44102649615E+01 -0.14217676884E+03  0.19436117895E+03  0.12509000000E+03 0.  0.
<mgrwt>
<rscale>  2 0.45253593E+03</rscale>
<asrwt>0</asrwt>
<pdfrwt beam="1">  1       21 0.26572514E-01 0.45253593E+03</pdfrwt>
<pdfrwt beam="2">  1       21 0.41667330E-01 0.45253593E+03</pdfrwt>
<totfact> 0.69225777E+04</totfact>
</mgrwt>
</event>
<event>
 7    0  0.4705418E-002  0.4587382E+03  0.7546771E-02  0.1025148E+00
         21   -1    0    0  502  501  0.00000000000E+00  0.00000000000E+00  0.79439776604E+03  0.79439776604E+03  0.00000000000E+00 0.  1.
         21   -1    0    0  501  502 -0.00000000000E+00 -0.00000000000E+00 -0.66226492928E+02  0.66226492928E+02  0.00000000000E+00 0.  1.
      99926    2    1    2    0    0  0.14210854715E-13 -0.71054273576E-14  0.72817127311E+03  0.86062425897E+03  0.45873817384E+03 0.  0.
      99925    2    3    3    0    0  0.99063628459E+02  0.52191401160E+02  0.51763393011E+03  0.59134554511E+03  0.26307246774E+03 0.  0.
         25    1    4    4    0    0  0.23047285854E+02  0.56926387472E+02  0.24440789870E+03  0.28134413096E+03  0.12509000000E+03 0.  0.
         25    1    3    3    0    0 -0.99063628459E+02 -0.52191401160E+02  0.21053734300E+03  0.26927871385E+03  0.12509000000E+03 0.  0.
         25    1    4    4    0    0  0.76016342604E+02 -0.47349863121E+01  0.27322603141E+03  0.31000141415E+03  0.12509000000E+03 0.  0.
<mgrwt>
<rscale>  2 0.45873817E+03</rscale>
<asrwt>0</asrwt>
<pdfrwt beam="1">  1       21 0.11682320E+00 0.45873817E+03</pdfrwt>
<pdfrwt beam="2">  1       21 0.97391906E-02 0.45873817E+03</pdfrwt>
<totfact> 0.43673086E+04</totfact>
</mgrwt>
</event>
<event>
 7    0  0.4705418E-002  0.4557973E+03  0.7546771E-02  0.1026007E+00
         21   -1    0    0  502  501  0.00000000000E+00  0.00000000000E+00  0.32179737271E+02  0.32179737271E+02  0.00000000000E+00 0.  1.
         21   -1    0    0  501  502 -0.00000000000E+00 -0.00000000000E+00 -0.16139909777E+04  0.16139909777E+04  0.00000000000E+00 0.  1.
      99926    2    1    2    0    0 -0.35527136788E-14  0.00000000000E+00 -0.15818112404E+04  0.16461707149E+04  0.45579734803E+03 0.  0.
      99925    2    3    3    0    0 -0.26296150922E+02  0.10948853309E+03 -0.93319628756E+03  0.97607513103E+03  0.26303635465E+03 0.  0.
         25    1    3    3    0    0  0.26296150922E+02 -0.10948853309E+03 -0.64861495282E+03  0.67009558390E+03  0.12509000000E+03 0.  0.
         25    1    4    4    0    0  0.21648641155E+02  0.73220650316E+02 -0.44307195084E+03  0.46667996424E+03  0.12509000000E+03 0.  0.
         25    1    4    4    0    0 -0.47944792076E+02  0.36267882776E+02 -0.49012433672E+03  0.50939516679E+03  0.12509000000E+03 0.  0.
<mgrwt>
<rscale>  2 0.45579735E+03</rscale>
<asrwt>0</asrwt>
<pdfrwt beam="1">  1       21 0.47323121E-02 0.45579735E+03</pdfrwt>
<pdfrwt beam="2">  1       21 0.23735172E+00 0.45579735E+03</pdfrwt>
<totfact> 0.20280392E+04</totfact>
</mgrwt>
</event>
<event>
 7    0  0.4705418E-002  0.4513664E+03  0.7546771E-02  0.1027315E+00
         21   -1    0    0  502  501  0.00000000000E+00  0.00000000000E+00  0.17253467951E+03  0.17253467951E+03  0.00000000000E+00 0.  1.
         21   -1    0    0  501  502 -0.00000000000E+00 -0.00000000000E+00 -0.29520388170E+03  0.29520388170E+03  0.00000000000E+00 0.  1.
      99926    2    1    2    0    0 -0.71054273576E-14  0.00000000000E+00 -0.12266920220E+03  0.46773856121E+03  0.45136640158E+03 0.  0.
      99925    2    3    3    0    0 -0.57850521593E+02  0.84473835170E+02 -0.11819475985E+03  0.30602881998E+03  0.26306106843E+03 0.  0.
         25    1    3    3    0    0  0.57850521593E+02 -0.84473835170E+02 -0.44744423442E+01  0.16170974124E+03  0.12509000000E+03 0.  0.
         25    1    4    4    0    0  0.90571150906E+01  0.53783300596E+02 -0.46688659028E+02  0.14422903223E+03  0.12509000000E+03 0.  0.
         25    1    4    4    0    0 -0.66907636683E+02  0.30690534575E+02 -0.71506100823E+02  0.16179978774E+03  0.12509000000E+03 0.  0.
<mgrwt>
<rscale>  2 0.45136640E+03</rscale>
<asrwt>0</asrwt>
<pdfrwt beam="1">  1       21 0.25372747E-01 0.45136640E+03</pdfrwt>
<pdfrwt beam="2">  1       21 0.43412335E-01 0.45136640E+03</pdfrwt>
<totfact> 0.69588704E+04</totfact>
</mgrwt>
</event>
<event>
 7    0  0.4705418E-002  0.4879331E+03  0.7546771E-02  0.1016977E+00
         21   -1    0    0  502  501  0.00000000000E+00  0.00000000000E+00  0.95046039835E+02  0.95046039835E+02  0.00000000000E+00 0. -1.
         21   -1    0    0  501  502 -0.00000000000E+00 -0.00000000000E+00 -0.62621948151E+03  0.62621948151E+03  0.00000000000E+00 0. -1.
      99926    2    1    2    0    0  0.00000000000E+00  0.00000000000E+00 -0.53117344167E+03  0.72126552134E+03  0.48793311749E+03 0.  0.
      99925    2    3    3    0    0 -0.90392782209E+02 -0.40183370898E+02 -0.17496857339E+03  0.33099001012E+03  0.26297305328E+03 0.  0.
         25    1    4    4    0    0 -0.51648795061E+02 -0.11676135975E+02 -0.41955130297E+02  0.14216775739E+03  0.12509000000E+03 0.  0.
         25    1    3    3    0    0  0.90392782209E+02  0.40183370898E+02 -0.35620486828E+03  0.39027551122E+03  0.12509000000E+03 0.  0.
         25    1    4    4    0    0 -0.38743987147E+02 -0.28507234924E+02 -0.13301344309E+03  0.18882225273E+03  0.12509000000E+03 0.  0.
<mgrwt>
<rscale>  2 0.48793312E+03</rscale>
<asrwt>0</asrwt>
<pdfrwt beam="1">  1       21 0.13977360E-01 0.48793312E+03</pdfrwt>
<pdfrwt beam="2">  1       21 0.92091095E-01 0.48793312E+03</pdfrwt>
<totfact> 0.40267326E+04</totfact>
</mgrwt>
</event>
<event>
 7    0  0.4705418E-002  0.4525425E+03  0.7546771E-02  0.1026967E+00
         21   -1    0    0  502  501  0.00000000000E+00  0.00000000000E+00  0.49458068969E+03  0.49458068969E+03  0.00000000000E+00 0.  1.
         21   -1    0    0  501  502 -0.00000000000E+00 -0.00000000000E+00 -0.10351938257E+03  0.10351938257E+03  0.00000000000E+00 0.  1.
      99926    2    1    2    0    0  0.00000000000E+00  0.00000000000E+00  0.39106130713E+03  0.59810007226E+03  0.45254253999E+03 0.  0.
      99925    2    3    3    0    0  0.37074506502E+02 -0.85102951285E+02  0.16632540803E+03  0.32465763994E+03  0.26290951003E+03 0.  0.
         25    1    4    4    0    0  0.26502452509E+02 -0.45905213452E+02  0.13043257960E+03  0.18833436896E+03  0.12509000000E+03 0.  0.
         25    1    4    4    0    0  0.10572053993E+02 -0.39197737832E+02  0.35892828428E+02  0.13632327098E+03  0.12509000000E+03 0.  0.
         25    1    3    3    0    0 -0.37074506502E+02  0.85102951285E+02  0.22473589910E+03  0.27344243232E+03  0.12509000000E+03 0.  0.
<mgrwt>
<rscale>  2 0.45254254E+03</rscale>
<asrwt>0</asrwt>
<pdfrwt beam="1">  1       21 0.72732453E-01 0.45254254E+03</pdfrwt>
<pdfrwt beam="2">  1       21 0.15223439E-01 0.45254254E+03</pdfrwt>
<totfact> 0.59951033E+04</totfact>
</mgrwt>
</event>
<event>
 7    0  0.4705418E-002  0.4687175E+03  0.7546771E-02  0.1022283E+00
         21   -1    0    0  502  501  0.00000000000E+00  0.00000000000E+00  0.34434852830E+03  0.34434852830E+03  0.00000000000E+00 0. -1.
         21   -1    0    0  501  502 -0.00000000000E+00 -0.00000000000E+00 -0.15950123744E+03  0.15950123744E+03  0.00000000000E+00 0. -1.
      99926    2    1    2    0    0 -0.14210854715E-13  0.71054273576E-14  0.18484729086E+03  0.50384976574E+03  0.46871746874E+03 0.  0.
      99925    2    3    3    0    0  0.10939865459E+03 -0.36046457084E+02  0.16880672541E+03  0.33305099369E+03  0.26298258718E+03 0.  0.
         25    1    4    4    0    0  0.50549339551E+02  0.14430059529E+02  0.52567986293E+02  0.14551413550E+03  0.12509000000E+03 0.  0.
         25    1    3    3    0    0 -0.10939865459E+03  0.36046457084E+02  0.16040565449E+02  0.17079877205E+03  0.12509000000E+03 0.  0.
         25    1    4    4    0    0  0.58849315035E+02 -0.50476516614E+02  0.11623873912E+03  0.18753685820E+03  0.12509000000E+03 0.  0.
<mgrwt>
<rscale>  2 0.46871747E+03</rscale>
<asrwt>0</asrwt>
<pdfrwt beam="1">  1       21 0.50639489E-01 0.46871747E+03</pdfrwt>
<pdfrwt beam="2">  1       21 0.23456064E-01 0.46871747E+03</pdfrwt>
<totfact> 0.58380058E+04</totfact>
</mgrwt>
</event>
<event>
 7    0  0.4705418E-002  0.4657293E+03  0.7546771E-02  0.1023133E+00
         21   -1    0    0  502  501  0.00000000000E+00  0.00000000000E+00  0.27775751304E+03  0.27775751304E+03  0.00000000000E+00 0.  1.
         21   -1    0    0  501  502 -0.00000000000E+00 -0.00000000000E+00 -0.19522767722E+03  0.19522767722E+03  0.00000000000E+00 0.  1.
      99926    2    1    2    0    0  0.00000000000E+00 -0.22204460493E-15  0.82529835818E+02  0.47298519025E+03  0.46572933814E+03 0.  0.
      99925    2    3    3    0    0 -0.95944704368E+02  0.81825839281E+00  0.12950630931E+03  0.30848487717E+03  0.26303037743E+03 0.  0.
         25    1    3    3    0    0  0.95944704368E+02 -0.81825839281E+00 -0.46976473487E+02  0.16450031308E+03  0.12509000000E+03 0.  0.
         25    1    4    4    0    0 -0.56001033852E+02  0.36415370740E+02  0.47118840697E+02  0.14943188504E+03  0.12509000000E+03 0.  0.
         25    1    4    4    0    0 -0.39943670516E+02 -0.35597112347E+02  0.82387468609E+02  0.15905299213E+03  0.12509000000E+03 0.  0.
<mgrwt>
<rscale>  2 0.46572934E+03</rscale>
<asrwt>0</asrwt>
<pdfrwt beam="1">  1       21 0.40846694E-01 0.46572934E+03</pdfrwt>
<pdfrwt beam="2">  1       21 0.28709952E-01 0.46572934E+03</pdfrwt>
<totfact> 0.61781518E+04</totfact>
</mgrwt>
</event>
<event>
 6    0  0.4705418E-002  0.4553298E+03  0.7546771E-02  0.1026144E+00
         21   -1    0    0  502  501  0.00000000000E+00  0.00000000000E+00  0.69348042834E+02  0.69348042834E+02  0.00000000000E+00 0.  1.
         21   -1    0    0  501  502 -0.00000000000E+00 -0.00000000000E+00 -0.74740841948E+03  0.74740841948E+03  0.00000000000E+00 0.  1.
      99926    2    1    2    0    0 -0.14210854715E-13  0.00000000000E+00 -0.67806037664E+03  0.81675646231E+03  0.45532981931E+03 0.  0.
         25    1    3    3    0    0  0.10526330373E+03 -0.37062129798E+02 -0.24417317425E+03  0.29617901968E+03  0.12509000000E+03 0.  0.
         25    1    3    3    0    0 -0.92990070110E+02  0.14965007998E+01 -0.25907359201E+03  0.30235083402E+03  0.12509000000E+03 0.  0.
         25    1    3    3    0    0 -0.12273233624E+02  0.35565628999E+02 -0.17481361039E+03  0.21822660861E+03  0.12509000000E+03 0.  0.
<mgrwt>
<rscale>  2 0.45532982E+03</rscale>
<asrwt>0</asrwt>
<pdfrwt beam="1">  1       21 0.10198242E-01 0.45532982E+03</pdfrwt>
<pdfrwt beam="2">  1       21 0.10991300E+00 0.45532982E+03</pdfrwt>
<totfact> 0.46843630E+04</totfact>
</mgrwt>
</event>
<event>
 7    0  0.4705418E-002  0.4583243E+03  0.7546771E-02  0.1025268E+00
         21   -1    0    0  502  501  0.00000000000E+00  0.00000000000E+00  0.24578571897E+03  0.24578571897E+03  0.00000000000E+00 0.  1.
         21   -1    0    0  501  502 -0.00000000000E+00 -0.00000000000E+00 -0.21366286483E+03  0.21366286483E+03  0.00000000000E+00 0.  1.
      99926    2    1    2    0    0 -0.71054273576E-14  0.00000000000E+00  0.32122854146E+02  0.45944858380E+03  0.45832425573E+03 0.  0.
      99925    2    3    3    0    0  0.49893858105E+02  0.67439774493E+02  0.10085144975E+03  0.29389300940E+03  0.26299156982E+03 0.  0.
         25    1    4    4    0    0 -0.43787736590E+01  0.43915229976E+02  0.77316270084E+02  0.15353512563E+03  0.12509000000E+03 0.  0.
         25    1    4    4    0    0  0.54272631764E+02  0.23524544517E+02  0.23535179670E+02  0.14035788377E+03  0.12509000000E+03 0.  0.
         25    1    3    3    0    0 -0.49893858105E+02 -0.67439774493E+02 -0.68728595608E+02  0.16555557440E+03  0.12509000000E+03 0.  0.
<mgrwt>
<rscale>  2 0.45832426E+03</rscale>
<asrwt>0</asrwt>
<pdfrwt beam="1">  1       21 0.36144959E-01 0.45832426E+03</pdfrwt>
<pdfrwt beam="2">  1       21 0.31421010E-01 0.45832426E+03</pdfrwt>
<totfact> 0.66441332E+04</totfact>
</mgrwt>
</event>
<event>
 7    0  0.4705418E-002  0.4529317E+03  0.7546771E-02  0.1026851E+00
         21   -1    0    0  502  501  0.00000000000E+00  0.00000000000E+00  0.14107718033E+03  0.14107718033E+03  0.00000000000E+00 0.  1.
         21   -1    0    0  501  502 -0.00000000000E+00 -0.00000000000E+00 -0.36353708570E+03  0.36353708570E+03  0.00000000000E+00 0.  1.
      99926    2    1    2    0    0  0.00000000000E+00  0.00000000000E+00 -0.22245990537E+03  0.50461426602E+03  0.45293172552E+03 0.  0.
      99925    2    3    3    0    0  0.18680515402E+02  0.95561905016E+02 -0.80521957097E+02  0.29183520548E+03  0.26306455907E+03 0.  0.
         25    1    4    4    0    0  0.29186162359E+02  0.10792870748E+02 -0.41495240678E+02  0.13541669480E+03  0.12509000000E+03 0.  0.
         25    1    4    4    0    0 -0.10505646957E+02  0.84769034269E+02 -0.39026716419E+02  0.15641851068E+03  0.12509000000E+03 0.  0.
         25    1    3    3    0    0 -0.18680515402E+02 -0.95561905016E+02 -0.14193794827E+03  0.21277906054E+03  0.12509000000E+03 0.  0.
<mgrwt>
<rscale>  2 0.45293173E+03</rscale>
<asrwt>0</asrwt>
<pdfrwt beam="1">  1       21 0.20746645E-01 0.45293173E+03</pdfrwt>
<pdfrwt beam="2">  1       21 0.53461335E-01 0.45293173E+03</pdfrwt>
<totfact> 0.66024936E+04</totfact>
</mgrwt>
</event>
<event>
 7    0  0.4705418E-002  0.4567495E+03  0.7546771E-02  0.1025728E+00
         21   -1    0    0  502  501  0.00000000000E+00  0.00000000000E+00  0.27398543164E+03  0.27398543164E+03  0.00000000000E+00 0.  1.
         21   -1    0    0  501  502 -0.00000000000E+00 -0.00000000000E+00 -0.19035694840E+03  0.19035694840E+03  0.00000000000E+00 0.  1.
      99926    2    1    2    0    0  0.14210854715E-13  0.00000000000E+00  0.83628483241E+02  0.46434238003E+03  0.45674951854E+03 0.  0.
      99925    2    3    3    0    0  0.11117575152E+03 -0.24722791479E+01  0.81481324497E+02  0.29695576683E+03  0.26301589556E+03 0.  0.
         25    1    3    3    0    0 -0.11117575152E+03  0.24722791479E+01  0.21471587431E+01  0.16738661321E+03  0.12509000000E+03 0.  0.
         25    1    4    4    0    0  0.46748088264E+02  0.38379831113E+02  0.43494110901E+02  0.14559409664E+03  0.12509000000E+03 0.  0.
         25    1    4    4    0    0  0.64427663258E+02 -0.40852110260E+02  0.37987213597E+02  0.15136167019E+03  0.12509000000E+03 0.  0.
<mgrwt>
<rscale>  2 0.45674952E+03</rscale>
<asrwt>0</asrwt>
<pdfrwt beam="1">  1       21 0.40291976E-01 0.45674952E+03</pdfrwt>
<pdfrwt beam="2">  1       21 0.27993669E-01 0.45674952E+03</pdfrwt>
<totfact> 0.66923395E+04</totfact>
</mgrwt>
</event>
<event>
 7    0  0.4705418E-002  0.4522515E+03  0.7546771E-02  0.1027053E+00
         21   -1    0    0  502  501  0.00000000000E+00  0.00000000000E+00  0.65770139970E+02  0.65770139970E+02  0.00000000000E+00 0.  1.
         21   -1    0    0  501  502 -0.00000000000E+00 -0.00000000000E+00 -0.77744774273E+03  0.77744774273E+03  0.00000000000E+00 0.  1.
      99926    2    1    2    0    0 -0.88817841970E-15  0.14210854715E-13 -0.71167760276E+03  0.84321788270E+03  0.45225146482E+03 0.  0.
      99925    2    3    3    0    0  0.17510103742E+01  0.88048108704E+02 -0.32443785888E+03  0.42685546506E+03  0.26304016479E+03 0.  0.
         25    1    4    4    0    0 -0.36270525105E+02  0.59687435990E+02 -0.15717679454E+03  0.21267391436E+03  0.12509000000E+03 0.  0.
         25    1    4    4    0    0  0.38021535479E+02  0.28360672714E+02 -0.16726106434E+03  0.21418155070E+03  0.12509000000E+03 0.  0.
         25    1    3    3    0    0 -0.17510103742E+01 -0.88048108704E+02 -0.38723974388E+03  0.41636241764E+03  0.12509000000E+03 0.  0.
<mgrwt>
<rscale>  2 0.45225146E+03</rscale>
<asrwt>0</asrwt>
<pdfrwt beam="1">  1       21 0.96720810E-02 0.45225146E+03</pdfrwt>
<pdfrwt beam="2">  1       21 0.11433053E+00 0.45225146E+03</pdfrwt>
<totfact> 0.46744107E+04</totfact>
</mgrwt>
</event>
<event>
 7    0  0.4705418E-002  0.4554663E+03  0.7546771E-02  0.1026104E+00
         21   -1    0    0  502  501  0.00000000000E+00  0.00000000000E+00  0.97692003393E+03  0.97692003393E+03  0.00000000000E+00 0. -1.
         21   -1    0    0  501  502 -0.00000000000E+00 -0.00000000000E+00 -0.53087641388E+02  0.53087641388E+02  0.00000000000E+00 0. -1.
      99926    2    1    2    0    0  0.00000000000E+00  0.00000000000E+00  0.92383239254E+03  0.10300076753E+04  0.45546626846E+03 0.  0.
      99925    2    3    3    0    0 -0.97979338818E+02 -0.56385781495E+02  0.60610498517E+03  0.67031680709E+03  0.26302483083E+03 0.  0.
         25    1    4    4    0    0 -0.76423904402E+02 -0.30934081831E+02  0.39761103500E+03  0.42489948674E+03  0.12509000000E+03 0.  0.
         25    1    3    3    0    0  0.97979338818E+02  0.56385781495E+02  0.31772740738E+03  0.35969086823E+03  0.12509000000E+03 0.  0.
         25    1    4    4    0    0 -0.21555434416E+02 -0.25451699665E+02  0.20849395017E+03  0.24541732034E+03  0.12509000000E+03 0.  0.
<mgrwt>
<rscale>  2 0.45546627E+03</rscale>
<asrwt>0</asrwt>
<pdfrwt beam="1">  1       21 0.14366470E+00 0.45546627E+03</pdfrwt>
<pdfrwt beam="2">  1       21 0.78070067E-02 0.45546627E+03</pdfrwt>
<totfact> 0.37881556E+04</totfact>
</mgrwt>
</event>
<event>
 7    0  0.4705418E-002  0.4644946E+03  0.7546771E-02  0.1023486E+00
         21   -1    0    0  502  501  0.00000000000E+00  0.00000000000E+00  0.13648266447E+03  0.13648266447E+03  0.00000000000E+00 0.  1.
         21   -1    0    0  501  502 -0.00000000000E+00 -0.00000000000E+00 -0.39520627344E+03  0.39520627344E+03  0.00000000000E+00 0.  1.
      99926    2    1    2    0    0 -0.35527136788E-14  0.14210854715E-13 -0.25872360897E+03  0.53168893790E+03  0.46449458646E+03 0.  0.
      99925    2    3    3    0    0 -0.28582621060E+02  0.11855457283E+03 -0.16248983212E+03  0.33223818991E+03  0.26288232411E+03 0.  0.
         25    1    4    4    0    0 -0.32587917796E+02  0.33595638688E+02 -0.45802393722E+02  0.14119492447E+03  0.12509000000E+03 0.  0.
         25    1    4    4    0    0  0.40052967361E+01  0.84958934143E+02 -0.11668743839E+03  0.19104326544E+03  0.12509000000E+03 0.  0.
         25    1    3    3    0    0  0.28582621060E+02 -0.11855457283E+03 -0.96233776858E+02  0.19945074799E+03  0.12509000000E+03 0.  0.
<mgrwt>
<rscale>  2 0.46449459E+03</rscale>
<asrwt>0</asrwt>
<pdfrwt beam="1">  1       21 0.20070980E-01 0.46449459E+03</pdfrwt>
<pdfrwt beam="2">  1       21 0.58118569E-01 0.46449459E+03</pdfrwt>
<totfact> 0.58559304E+04</totfact>
</mgrwt>
</event>
<event>
 7    0  0.4705418E-002  0.4434027E+03  0.7546771E-02  0.1029708E+00
         21   -1    0    0  502  501  0.00000000000E+00  0.00000000000E+00  0.15924510605E+03  0.15924510605E+03  0.00000000000E+00 0.  1.
         21   -1    0    0  501  502 -0.00000000000E+00 -0.00000000000E+00 -0.30865307083E+03  0.30865307083E+03  0.00000000000E+00 0.  1.
      99926    2    1    2    0    0  0.35527136788E-14  0.71054273576E-14 -0.14940796478E+03  0.46789817688E+03  0.44340271085E+03 0.  0.
      99925    2    3    3    0    0 -0.25737900015E+02 -0.49036534207E+02 -0.48784836828E+01  0.26889239759E+03  0.26308230783E+03 0.  0.
         25    1    4    4    0    0 -0.24493093149E+02 -0.36543245015E+01  0.30666423368E+02  0.13115335803E+03  0.12509000000E+03 0.  0.
         25    1    4    4    0    0 -0.12448068663E+01 -0.45382209705E+02 -0.35544907051E+02  0.13773903956E+03  0.12509000000E+03 0.  0.
         25    1    3    3    0    0  0.25737900015E+02  0.49036534207E+02 -0.14452948110E+03  0.19900577929E+03  0.12509000000E+03 0.  0.
<mgrwt>
<rscale>  2 0.44340271E+03</rscale>
<asrwt>0</asrwt>
<pdfrwt beam="1">  1       21 0.23418398E-01 0.44340271E+03</pdfrwt>
<pdfrwt beam="2">  1       21 0.45390157E-01 0.44340271E+03</pdfrwt>
<totfact> 0.74188325E+04</totfact>
</mgrwt>
</event>
<event>
 7    0  0.4705418E-002  0.4532661E+03  0.7546771E-02  0.1026753E+00
         21   -1    0    0  502  501  0.00000000000E+00  0.00000000000E+00  0.17562143993E+03  0.17562143993E+03  0.00000000000E+00 0.  1.
         21   -1    0    0  501  502 -0.00000000000E+00 -0.00000000000E+00 -0.29246169053E+03  0.29246169053E+03  0.00000000000E+00 0.  1.
      99926    2    1    2    0    0  0.00000000000E+00  0.00000000000E+00 -0.11684025060E+03  0.46808313046E+03  0.45326611705E+03 0.  0.
      99925    2    3    3    0    0  0.60623105557E+02 -0.29372711910E+02  0.17987004514E+02  0.27221630337E+03  0.26313545249E+03 0.  0.
         25    1    4    4    0    0  0.41907669580E+02 -0.53304545094E+02  0.18543124379E+02  0.14348861578E+03  0.12509000000E+03 0.  0.
         25    1    4    4    0    0  0.18715435977E+02  0.23931833184E+02 -0.55611986453E+00  0.12872768759E+03  0.12509000000E+03 0.  0.
         25    1    3    3    0    0 -0.60623105557E+02  0.29372711910E+02 -0.13482725511E+03  0.19586682709E+03  0.12509000000E+03 0.  0.
<mgrwt>
<rscale>  2 0.45326612E+03</rscale>
<asrwt>0</asrwt>
<pdfrwt beam="1">  1       21 0.25826683E-01 0.45326612E+03</pdfrwt>
<pdfrwt beam="2">  1       21 0.43009071E-01 0.45326612E+03</pdfrwt>
<totfact> 0.68516136E+04</totfact>
</mgrwt>
</event>
<event>
 7    0  0.4705418E-002  0.4411017E+03  0.7546771E-02  0.1030409E+00
         21   -1    0    0  502  501  0.00000000000E+00  0.00000000000E+00  0.65908939178E+02  0.65908939178E+02  0.00000000000E+00 0. -1.
         21   -1    0    0  501  502 -0.00000000000E+00 -0.00000000000E+00 -0.73802857102E+03  0.73802857102E+03  0.00000000000E+00 0. -1.
      99926    2    1    2    0    0  0.00000000000E+00  0.00000000000E+00 -0.67211963184E+03  0.80393751020E+03  0.44110171253E+03 0.  0.
      99925    2    3    3    0    0  0.93081897103E+02 -0.28395942549E+02 -0.46668197140E+03  0.54447130903E+03  0.26303302987E+03 0.  0.
         25    1    4    4    0    0  0.73691328810E+02 -0.16687460891E+01 -0.30164356573E+03  0.33476789796E+03  0.12509000000E+03 0.  0.
         25    1    3    3    0    0 -0.93081897103E+02  0.28395942549E+02 -0.20543766044E+03  0.25946620117E+03  0.12509000000E+03 0.  0.
         25    1    4    4    0    0  0.19390568293E+02 -0.26727196460E+02 -0.16503840567E+03  0.20970341107E+03  0.12509000000E+03 0.  0.
<mgrwt>
<rscale>  2 0.44110171E+03</rscale>
<asrwt>0</asrwt>
<pdfrwt beam="1">  1       21 0.96924905E-02 0.44110171E+03</pdfrwt>
<pdfrwt beam="2">  1       21 0.10853362E+00 0.44110171E+03</pdfrwt>
<totfact> 0.53137895E+04</totfact>
</mgrwt>
</event>
<event>
 7    0  0.4705418E-002  0.4457841E+03  0.7546771E-02  0.1028987E+00
         21   -1    0    0  502  501  0.00000000000E+00  0.00000000000E+00  0.73870419969E+03  0.73870419969E+03  0.00000000000E+00 0. -1.
         21   -1    0    0  501  502 -0.00000000000E+00 -0.00000000000E+00 -0.67254064648E+02  0.67254064648E+02  0.00000000000E+00 0. -1.
      99926    2    1    2    0    0  0.00000000000E+00  0.00000000000E+00  0.67145013505E+03  0.80595826434E+03  0.44578407330E+03 0.  0.
      99925    2    3    3    0    0 -0.64623975315E+02 -0.51771259392E+02  0.31119756500E+03  0.41571994766E+03  0.26291182730E+03 0.  0.
         25    1    3    3    0    0  0.64623975315E+02  0.51771259392E+02  0.36025257004E+03  0.39023831668E+03  0.12509000000E+03 0.  0.
         25    1    4    4    0    0 -0.11834399037E+02 -0.59680618600E+02  0.14436138779E+03  0.20047330900E+03  0.12509000000E+03 0.  0.
         25    1    4    4    0    0 -0.52789576278E+02  0.79093592085E+01  0.16683617721E+03  0.21524663866E+03  0.12509000000E+03 0.  0.
<mgrwt>
<rscale>  2 0.44578407E+03</rscale>
<asrwt>0</asrwt>
<pdfrwt beam="1">  1       21 0.10863297E+00 0.44578407E+03</pdfrwt>
<pdfrwt beam="2">  1       21 0.98903041E-02 0.44578407E+03</pdfrwt>
<totfact> 0.51072675E+04</totfact>
</mgrwt>
</event>
<event>
 7    0  0.4705418E-002  0.4546511E+03  0.7546771E-02  0.1026344E+00
         21   -1    0    0  502  501  0.00000000000E+00  0.00000000000E+00  0.16098277180E+03  0.16098277180E+03  0.00000000000E+00 0. -1.
         21   -1    0    0  501  502 -0.00000000000E+00 -0.00000000000E+00 -0.32100887212E+03  0.32100887212E+03  0.00000000000E+00 0. -1.
      99926    2    1    2    0    0  0.00000000000E+00  0.14210854715E-13 -0.16002610032E+03  0.48199164393E+03  0.45465106624E+03 0.  0.
      99925    2    3    3    0    0 -0.32195130607E+02 -0.97615242056E+02 -0.50979041268E+02  0.28678910525E+03  0.26283809908E+03 0.  0.
         25    1    3    3    0    0  0.32195130607E+02  0.97615242056E+02 -0.10904705905E+03  0.19520253867E+03  0.12509000000E+03 0.  0.
         25    1    4    4    0    0 -0.30216683486E+02 -0.16329367151E+02 -0.19122445209E+01  0.12973380813E+03  0.12509000000E+03 0.  0.
         25    1    4    4    0    0 -0.19784471205E+01 -0.81285874905E+02 -0.49066796747E+02  0.15705529713E+03  0.12509000000E+03 0.  0.
<mgrwt>
<rscale>  2 0.45465107E+03</rscale>
<asrwt>0</asrwt>
<pdfrwt beam="1">  1       21 0.23673937E-01 0.45465107E+03</pdfrwt>
<pdfrwt beam="2">  1       21 0.47207187E-01 0.45465107E+03</pdfrwt>
<totfact> 0.66740074E+04</totfact>
</mgrwt>
</event>
<event>
 7    0  0.4705418E-002  0.3974519E+03  0.7546771E-02  0.1044666E+00
         21   -1    0    0  502  501  0.00000000000E+00  0.00000000000E+00  0.66871806923E+02  0.66871806923E+02  0.00000000000E+00 0. -1.
         21   -1    0    0  501  502 -0.00000000000E+00 -0.00000000000E+00 -0.59056286515E+03  0.59056286515E+03  0.00000000000E+00 0. -1.
      99926    2    1    2    0    0  0.00000000000E+00  0.17763568394E-14 -0.52369105823E+03  0.65743467207E+03  0.39745191354E+03 0.  0.
      99925    2    3    3    0    0 -0.40060299846E+02  0.21763694971E+01 -0.34073699299E+03  0.43220309725E+03  0.26284644696E+03 0.  0.
         25    1    3    3    0    0  0.40060299846E+02 -0.21763694971E+01 -0.18295406524E+03  0.22523157482E+03  0.12509000000E+03 0.  0.
         25    1    4    4    0    0 -0.21467865766E+01  0.27032811164E+02 -0.20823839772E+03  0.24443019445E+03  0.12509000000E+03 0.  0.
         25    1    4    4    0    0 -0.37913513270E+02 -0.24856441667E+02 -0.13249859527E+03  0.18777290281E+03  0.12509000000E+03 0.  0.
<mgrwt>
<rscale>  2 0.39745191E+03</rscale>
<asrwt>0</asrwt>
<pdfrwt beam="1">  1       21 0.98340890E-02 0.39745191E+03</pdfrwt>
<pdfrwt beam="2">  1       21 0.86847482E-01 0.39745191E+03</pdfrwt>
<totfact> 0.89448905E+04</totfact>
</mgrwt>
</event>
<event>
 7    0  0.4705418E-002  0.4525275E+03  0.7546771E-02  0.1026971E+00
         21   -1    0    0  502  501  0.00000000000E+00  0.00000000000E+00  0.56058068688E+03  0.56058068688E+03  0.00000000000E+00 0. -1.
         21   -1    0    0  501  502 -0.00000000000E+00 -0.00000000000E+00 -0.91325432808E+02  0.91325432808E+02  0.00000000000E+00 0. -1.
      99926    2    1    2    0    0  0.00000000000E+00  0.00000000000E+00  0.46925525407E+03  0.65190611968E+03  0.45252745266E+03 0.  0.
      99925    2    3    3    0    0  0.80098174759E+02  0.23565278714E+02  0.40091994449E+03  0.48671452609E+03  0.26302697210E+03 0.  0.
         25    1    4    4    0    0  0.37023634431E+02 -0.20376960947E+02  0.15134815629E+03  0.20084756049E+03  0.12509000000E+03 0.  0.
         25    1    4    4    0    0  0.43074540328E+02  0.43942239661E+02  0.24957178820E+03  0.28586696559E+03  0.12509000000E+03 0.  0.
         25    1    3    3    0    0 -0.80098174759E+02 -0.23565278714E+02  0.68335309578E+02  0.16519159360E+03  0.12509000000E+03 0.  0.
<mgrwt>
<rscale>  2 0.45252745E+03</rscale>
<asrwt>0</asrwt>
<pdfrwt beam="1">  1       21 0.82438335E-01 0.45252745E+03</pdfrwt>
<pdfrwt beam="2">  1       21 0.13430211E-01 0.45252745E+03</pdfrwt>
<totfact> 0.56689430E+04</totfact>
</mgrwt>
</event>
<event>
 7    0  0.4705418E-002  0.4526408E+03  0.7546771E-02  0.1026937E+00
         21   -1    0    0  502  501  0.00000000000E+00  0.00000000000E+00  0.67090837002E+03  0.67090837002E+03  0.00000000000E+00 0.  1.
         21   -1    0    0  501  502 -0.00000000000E+00 -0.00000000000E+00 -0.76345629043E+02  0.76345629043E+02  0.00000000000E+00 0.  1.
      99926    2    1    2    0    0 -0.35527136788E-14 -0.14210854715E-13  0.59456274098E+03  0.74725399906E+03  0.45264079153E+03 0.  0.
      99925    2    3    3    0    0  0.12869367833E+02  0.10750007667E+03  0.33479974677E+03  0.43928288293E+03  0.26297660293E+03 0.  0.
         25    1    3    3    0    0 -0.12869367833E+02 -0.10750007667E+03  0.25976299421E+03  0.30797111614E+03  0.12509000000E+03 0.  0.
         25    1    4    4    0    0  0.23938962416E+02  0.82131211417E+02  0.22071932784E+03  0.26773707175E+03  0.12509000000E+03 0.  0.
         25    1    4    4    0    0 -0.11069594583E+02  0.25368865249E+02  0.11408041893E+03  0.17154581117E+03  0.12509000000E+03 0.  0.
<mgrwt>
<rscale>  2 0.45264079E+03</rscale>
<asrwt>0</asrwt>
<pdfrwt beam="1">  1       21 0.98662992E-01 0.45264079E+03</pdfrwt>
<pdfrwt beam="2">  1       21 0.11227299E-01 0.45264079E+03</pdfrwt>
<totfact> 0.51357047E+04</totfact>
</mgrwt>
</event>
<event>
 7    0  0.4705418E-002  0.4521827E+03  0.7546771E-02  0.1027073E+00
         21   -1    0    0  502  501  0.00000000000E+00  0.00000000000E+00  0.46185935059E+02  0.46185935059E+02  0.00000000000E+00 0.  1.
         21   -1    0    0  501  502 -0.00000000000E+00 -0.00000000000E+00 -0.11067719101E+04  0.11067719101E+04  0.00000000000E+00 0.  1.
      99926    2    1    2    0    0 -0.14210854715E-13  0.35527136788E-14 -0.10605859751E+04  0.11529578452E+04  0.45218268682E+03 0.  0.
      99925    2    3    3    0    0 -0.10350834001E+03 -0.24743017564E+02 -0.59315711926E+03  0.65751517776E+03  0.26299172511E+03 0.  0.
         25    1    4    4    0    0 -0.42828242421E+02  0.19974469675E+02 -0.33845350453E+03  0.36391141864E+03  0.12509000000E+03 0.  0.
         25    1    3    3    0    0  0.10350834001E+03  0.24743017564E+02 -0.46742885579E+03  0.49544266741E+03  0.12509000000E+03 0.  0.
         25    1    4    4    0    0 -0.60680097591E+02 -0.44717487240E+02 -0.25470361473E+03  0.29360375911E+03  0.12509000000E+03 0.  0.
<mgrwt>
<rscale>  2 0.45218269E+03</rscale>
<asrwt>0</asrwt>
<pdfrwt beam="1">  1       21 0.67920500E-02 0.45218269E+03</pdfrwt>
<pdfrwt beam="2">  1       21 0.16276056E+00 0.45218269E+03</pdfrwt>
<totfact> 0.34433619E+04</totfact>
</mgrwt>
</event>
<event>
 7    0  0.4705418E-002  0.4565145E+03  0.7546771E-02  0.1025797E+00
         21   -1    0    0  502  501  0.00000000000E+00  0.00000000000E+00  0.24766050984E+04  0.24766050984E+04  0.00000000000E+00 0.  1.
         21   -1    0    0  501  502 -0.00000000000E+00 -0.00000000000E+00 -0.21037414855E+02  0.21037414855E+02  0.00000000000E+00 0.  1.
      99926    2    1    2    0    0  0.00000000000E+00  0.00000000000E+00  0.24555676835E+04  0.24976425133E+04  0.45651448559E+03 0.  0.
      99925    2    3    3    0    0  0.90253332959E+02 -0.62035558313E+02  0.17271139813E+04  0.17504568743E+04  0.26302564490E+03 0.  0.
         25    1    4    4    0    0  0.41041319821E+02 -0.13726120506E+01  0.99172364993E+03  0.10004246998E+04  0.12509000000E+03 0.  0.
         25    1    4    4    0    0  0.49212013138E+02 -0.60662946262E+02  0.73539033136E+03  0.75003217454E+03  0.12509000000E+03 0.  0.
         25    1    3    3    0    0 -0.90253332959E+02  0.62035558313E+02  0.72845370225E+03  0.74718563893E+03  0.12509000000E+03 0.  0.
<mgrwt>
<rscale>  2 0.45651449E+03</rscale>
<asrwt>0</asrwt>
<pdfrwt beam="1">  1       21 0.36420643E+00 0.45651449E+03</pdfrwt>
<pdfrwt beam="2">  1       21 0.30937392E-02 0.45651449E+03</pdfrwt>
<totfact> 0.70723058E+03</totfact>
</mgrwt>
</event>
<event>
 7    0  0.4705418E-002  0.4488613E+03  0.7546771E-02  0.1028062E+00
         21   -1    0    0  502  501  0.00000000000E+00  0.00000000000E+00  0.92037876802E+02  0.92037876802E+02  0.00000000000E+00 0. -1.
         21   -1    0    0  501  502 -0.00000000000E+00 -0.00000000000E+00 -0.54726512292E+03  0.54726512292E+03  0.00000000000E+00 0. -1.
      99926    2    1    2    0    0  0.00000000000E+00  0.00000000000E+00 -0.45522724612E+03  0.63930299972E+03  0.44886131471E+03 0.  0.
      99925    2    3    3    0    0  0.72902687393E+02  0.46258294608E+02 -0.19751528039E+03  0.34010808495E+03  0.26307145761E+03 0.  0.
         25    1    3    3    0    0 -0.72902687393E+02 -0.46258294608E+02 -0.25771196573E+03  0.29919491478E+03  0.12509000000E+03 0.  0.
         25    1    4    4    0    0  0.16401694229E+01  0.15578172018E+02 -0.11862193522E+03  0.17310124556E+03  0.12509000000E+03 0.  0.
         25    1    4    4    0    0  0.71262517971E+02  0.30680122589E+02 -0.78893345172E+02  0.16700683939E+03  0.12509000000E+03 0.  0.
<mgrwt>
<rscale>  2 0.44886131E+03</rscale>
<asrwt>0</asrwt>
<pdfrwt beam="1">  1       21 0.13534982E-01 0.44886131E+03</pdfrwt>
<pdfrwt beam="2">  1       21 0.80480165E-01 0.44886131E+03</pdfrwt>
<totfact> 0.59134984E+04</totfact>
</mgrwt>
</event>
<event>
 7    0  0.4705418E-002  0.4036332E+03  0.7546771E-02  0.1042529E+00
         21   -1    0    0  502  501  0.00000000000E+00  0.00000000000E+00  0.16136944937E+03  0.16136944937E+03  0.00000000000E+00 0. -1.
         21   -1    0    0  501  502 -0.00000000000E+00 -0.00000000000E+00 -0.25240182109E+03  0.25240182109E+03  0.00000000000E+00 0. -1.
      99926    2    1    2    0    0  0.00000000000E+00  0.00000000000E+00 -0.91032371719E+02  0.41377127046E+03  0.40363321414E+03 0.  0.
      99925    2    3    3    0    0 -0.36993613967E+02 -0.17550072890E+02 -0.27387376677E+02  0.26757029226E+03  0.26299669269E+03 0.  0.
         25    1    4    4    0    0 -0.29704575444E+02  0.30045534795E+02 -0.10013700029E+02  0.13241177535E+03  0.12509000000E+03 0.  0.
         25    1    4    4    0    0 -0.72890385234E+01 -0.47595607685E+02 -0.17373676648E+02  0.13515851691E+03  0.12509000000E+03 0.  0.
         25    1    3    3    0    0  0.36993613967E+02  0.17550072890E+02 -0.63644995042E+02  0.14620097820E+03  0.12509000000E+03 0.  0.
<mgrwt>
<rscale>  2 0.40363321E+03</rscale>
<asrwt>0</asrwt>
<pdfrwt beam="1">  1       21 0.23730802E-01 0.40363321E+03</pdfrwt>
<pdfrwt beam="2">  1       21 0.37117915E-01 0.40363321E+03</pdfrwt>
<totfact> 0.11043786E+05</totfact>
</mgrwt>
</event>
<event>
 7    0  0.4705418E-002  0.4332268E+03  0.7546771E-02  0.1032845E+00
         21   -1    0    0  502  501  0.00000000000E+00  0.00000000000E+00  0.22857845607E+04  0.22857845607E+04  0.00000000000E+00 0.  1.
         21   -1    0    0  501  502 -0.00000000000E+00 -0.00000000000E+00 -0.20527468491E+02  0.20527468491E+02  0.00000000000E+00 0.  1.
      99926    2    1    2    0    0 -0.17763568394E-14  0.00000000000E+00  0.22652570922E+04  0.23063120291E+04  0.43322682533E+03 0.  0.
      99925    2    3    3    0    0 -0.12528852219E+02 -0.58233488831E+02  0.18231022429E+04  0.18429584598E+04  0.26314631915E+03 0.  0.
         25    1    4    4    0    0  0.40261000071E+01 -0.10541460181E+02  0.64135805300E+03  0.65354035232E+03  0.12509000000E+03 0.  0.
         25    1    3    3    0    0  0.12528852219E+02  0.58233488831E+02  0.44215484930E+03  0.46335356934E+03  0.12509000000E+03 0.  0.
         25    1    4    4    0    0 -0.16554952226E+02 -0.47692028649E+02  0.11817441899E+04  0.11894181075E+04  0.12509000000E+03 0.  0.
<mgrwt>
<rscale>  2 0.43322683E+03</rscale>
<asrwt>0</asrwt>
<pdfrwt beam="1">  1       21 0.33614461E+00 0.43322683E+03</pdfrwt>
<pdfrwt beam="2">  1       21 0.30187469E-02 0.43322683E+03</pdfrwt>
<totfact> 0.11082042E+04</totfact>
</mgrwt>
</event>
<event>
 7    0  0.4705418E-002  0.4563646E+03  0.7546771E-02  0.1025841E+00
         21   -1    0    0  502  501  0.00000000000E+00  0.00000000000E+00  0.23154246671E+03  0.23154246671E+03  0.00000000000E+00 0.  1.
         21   -1    0    0  501  502 -0.00000000000E+00 -0.00000000000E+00 -0.22487093929E+03  0.22487093929E+03  0.00000000000E+00 0.  1.
      99926    2    1    2    0    0  0.00000000000E+00  0.00000000000E+00  0.66715274132E+01  0.45641340600E+03  0.45636464357E+03 0.  0.
      99925    2    3    3    0    0 -0.18324946106E+02  0.61325792108E+02 -0.90665456911E+02  0.28547876046E+03  0.26302327116E+03 0.  0.
         25    1    4    4    0    0  0.59064016323E+01  0.63880487696E+02 -0.67511154610E+02  0.15595148728E+03  0.12509000000E+03 0.  0.
         25    1    3    3    0    0  0.18324946106E+02 -0.61325792108E+02  0.97336984324E+02  0.17093464554E+03  0.12509000000E+03 0.  0.
         25    1    4    4    0    0 -0.24231347738E+02 -0.25546955877E+01 -0.23154302302E+02  0.12952727318E+03  0.12509000000E+03 0.  0.
<mgrwt>
<rscale>  2 0.45636464E+03</rscale>
<asrwt>0</asrwt>
<pdfrwt beam="1">  1       21 0.34050363E-01 0.45636464E+03</pdfrwt>
<pdfrwt beam="2">  1       21 0.33069256E-01 0.45636464E+03</pdfrwt>
<totfact> 0.67702193E+04</totfact>
</mgrwt>
</event>
<event>
 7    0  0.4705418E-002  0.4497176E+03  0.7546771E-02  0.1027806E+00
         21   -1    0    0  502  501  0.00000000000E+00  0.00000000000E+00  0.13087187118E+04  0.13087187118E+04  0.00000000000E+00 0.  1.
         21   -1    0    0  501  502 -0.00000000000E+00 -0.00000000000E+00 -0.38634342537E+02  0.38634342537E+02  0.00000000000E+00 0.  1.
      99926    2    1    2    0    0 -0.14210854715E-13 -0.17763568394E-14  0.12700843693E+04  0.13473530544E+04  0.44971763140E+03 0.  0.
      99925    2    3    3    0    0 -0.93723391724E+02  0.71680638794E+01  0.96294169294E+03  0.10026508829E+04  0.26309054265E+03 0.  0.
         25    1    3    3    0    0  0.93723391724E+02 -0.71680638794E+01  0.30714267637E+03  0.34470217151E+03  0.12509000000E+03 0.  0.
         25    1    4    4    0    0 -0.21889819295E+02  0.35828203111E+02  0.48091928792E+03  0.49869198301E+03  0.12509000000E+03 0.  0.
         25    1    4    4    0    0 -0.71833572428E+02 -0.28660139232E+02  0.48202240503E+03  0.50395889987E+03  0.12509000000E+03 0.  0.
<mgrwt>
<rscale>  2 0.44971763E+03</rscale>
<asrwt>0</asrwt>
<pdfrwt beam="1">  1       21 0.19245860E+00 0.44971763E+03</pdfrwt>
<pdfrwt beam="2">  1       21 0.56815218E-02 0.44971763E+03</pdfrwt>
<totfact> 0.28939529E+04</totfact>
</mgrwt>
</event>
<event>
 7    0  0.4705418E-002  0.4530029E+03  0.7546771E-02  0.1026830E+00
         21   -1    0    0  502  501  0.00000000000E+00  0.00000000000E+00  0.42673901810E+02  0.42673901810E+02  0.00000000000E+00 0. -1.
         21   -1    0    0  501  502 -0.00000000000E+00 -0.00000000000E+00 -0.12022079566E+04  0.12022079566E+04  0.00000000000E+00 0. -1.
      99926    2    1    2    0    0  0.00000000000E+00  0.00000000000E+00 -0.11595340548E+04  0.12448818584E+04  0.45300288871E+03 0.  0.
      99925    2    3    3    0    0 -0.77639753856E+02  0.55150624320E+02 -0.88924003538E+03  0.93219049657E+03  0.26298623276E+03 0.  0.
         25    1    4    4    0    0 -0.64327160768E+02  0.54005801813E+02 -0.55399251156E+03  0.57411655717E+03  0.12509000000E+03 0.  0.
         25    1    4    4    0    0 -0.13312593088E+02  0.11448225068E+01 -0.33524752382E+03  0.35807393940E+03  0.12509000000E+03 0.  0.
         25    1    3    3    0    0  0.77639753856E+02 -0.55150624320E+02 -0.27029401939E+03  0.31269136183E+03  0.12509000000E+03 0.  0.
<mgrwt>
<rscale>  2 0.45300289E+03</rscale>
<asrwt>0</asrwt>
<pdfrwt beam="1">  1       21 0.62755744E-02 0.45300289E+03</pdfrwt>
<pdfrwt beam="2">  1       21 0.17679527E+00 0.45300289E+03</pdfrwt>
<totfact> 0.31241275E+04</totfact>
</mgrwt>
</event>
<event>
 7    0  0.4705418E-002  0.4509100E+03  0.7546771E-02  0.1027451E+00
         21   -1    0    0  502  501  0.00000000000E+00  0.00000000000E+00  0.72085776765E+03  0.72085776765E+03  0.00000000000E+00 0. -1.
         21   -1    0    0  501  502 -0.00000000000E+00 -0.00000000000E+00 -0.70513155375E+02  0.70513155375E+02  0.00000000000E+00 0. -1.
      99926    2    1    2    0    0 -0.14210854715E-13 -0.17763568394E-14  0.65034461228E+03  0.79137092303E+03  0.45090999445E+03 0.  0.
      99925    2    3    3    0    0 -0.10894898353E+03 -0.81658752351E+01  0.41646206787E+03  0.50451710101E+03  0.26298343807E+03 0.  0.
         25    1    3    3    0    0  0.10894898353E+03  0.81658752351E+01  0.23388254440E+03  0.28685382202E+03  0.12509000000E+03 0.  0.
         25    1    4    4    0    0 -0.54298673209E+02  0.30074798581E+02  0.24538837496E+03  0.28233986981E+03  0.12509000000E+03 0.  0.
         25    1    4    4    0    0 -0.54650310324E+02 -0.38240673816E+02  0.17107369291E+03  0.22217723119E+03  0.12509000000E+03 0.  0.
<mgrwt>
<rscale>  2 0.45090999E+03</rscale>
<asrwt>0</asrwt>
<pdfrwt beam="1">  1       21 0.10600849E+00 0.45090999E+03</pdfrwt>
<pdfrwt beam="2">  1       21 0.10369582E-01 0.45090999E+03</pdfrwt>
<totfact> 0.49763311E+04</totfact>
</mgrwt>
</event>
<event>
 7    0  0.4705418E-002  0.4400041E+03  0.7546771E-02  0.1030746E+00
         21   -1    0    0  502  501  0.00000000000E+00  0.00000000000E+00  0.81281543021E+02  0.81281543021E+02  0.00000000000E+00 0.  1.
         21   -1    0    0  501  502 -0.00000000000E+00 -0.00000000000E+00 -0.59547216129E+03  0.59547216129E+03  0.00000000000E+00 0.  1.
      99926    2    1    2    0    0 -0.11102230246E-15  0.00000000000E+00 -0.51419061827E+03  0.67675370431E+03  0.44000407314E+03 0.  0.
      99925    2    3    3    0    0  0.88033938855E+00  0.73015879536E+02 -0.22666540761E+03  0.35480596239E+03  0.26301705321E+03 0.  0.
         25    1    3    3    0    0 -0.88033938855E+00 -0.73015879536E+02 -0.28752521066E+03  0.32194774192E+03  0.12509000000E+03 0.  0.
         25    1    4    4    0    0  0.21601565455E+02  0.53302235369E+02 -0.15692757419E+03  0.20876189204E+03  0.12509000000E+03 0.  0.
         25    1    4    4    0    0 -0.20721226067E+02  0.19713644167E+02 -0.69737833420E+02  0.14604407036E+03  0.12509000000E+03 0.  0.
<mgrwt>
<rscale>  2 0.44000407E+03</rscale>
<asrwt>0</asrwt>
<pdfrwt beam="1">  1       21 0.11953168E-01 0.44000407E+03</pdfrwt>
<pdfrwt beam="2">  1       21 0.87569437E-01 0.44000407E+03</pdfrwt>
<totfact> 0.61083818E+04</totfact>
</mgrwt>
</event>
<event>
 7    0  0.4705418E-002  0.4541331E+03  0.7546771E-02  0.1026497E+00
         21   -1    0    0  502  501  0.00000000000E+00  0.00000000000E+00  0.42402563738E+03  0.42402563738E+03  0.00000000000E+00 0.  1.
         21   -1    0    0  501  502 -0.00000000000E+00 -0.00000000000E+00 -0.12159456203E+03  0.12159456203E+03  0.00000000000E+00 0.  1.
      99926    2    1    2    0    0  0.14210854715E-13  0.00000000000E+00  0.30243107535E+03  0.54562019942E+03  0.45413307155E+03 0.  0.
      99925    2    3    3    0    0 -0.65935573552E+02 -0.37236932382E+01  0.81327833798E+02  0.28314064350E+03  0.26304570268E+03 0.  0.
         25    1    3    3    0    0  0.65935573552E+02  0.37236932382E+01  0.22110324155E+03  0.26247955592E+03  0.12509000000E+03 0.  0.
         25    1    4    4    0    0 -0.22476837579E+02  0.16030008551E+02  0.32350825411E+01  0.12814110683E+03  0.12509000000E+03 0.  0.
         25    1    4    4    0    0 -0.43458735974E+02 -0.19753701789E+02  0.78092751257E+02  0.15499953666E+03  0.12509000000E+03 0.  0.
<mgrwt>
<rscale>  2 0.45413307E+03</rscale>
<asrwt>0</asrwt>
<pdfrwt beam="1">  1       21 0.62356711E-01 0.45413307E+03</pdfrwt>
<pdfrwt beam="2">  1       21 0.17881553E-01 0.45413307E+03</pdfrwt>
<totfact> 0.62585082E+04</totfact>
</mgrwt>
</event>
<event>
 7    0  0.4705418E-002  0.4659551E+03  0.7546771E-02  0.1023068E+00
         21   -1    0    0  502  501  0.00000000000E+00  0.00000000000E+00  0.44767873414E+03  0.44767873414E+03  0.00000000000E+00 0.  1.
         21   -1    0    0  501  502 -0.00000000000E+00 -0.00000000000E+00 -0.12124440930E+03  0.12124440930E+03  0.00000000000E+00 0.  1.
      99926    2    1    2    0    0  0.00000000000E+00  0.00000000000E+00  0.32643432484E+03  0.56892314344E+03  0.46595512092E+03 0.  0.
      99925    2    3    3    0    0  0.90151323088E+01  0.85802009102E+02  0.31081415463E+03  0.41616596621E+03  0.26295515842E+03 0.  0.
         25    1    4    4    0    0 -0.12224511528E+02  0.81378803394E+02  0.16395305771E+03  0.22203617173E+03  0.12509000000E+03 0.  0.
         25    1    4    4    0    0  0.21239643837E+02  0.44232057084E+01  0.14686109691E+03  0.19412979448E+03  0.12509000000E+03 0.  0.
         25    1    3    3    0    0 -0.90151323088E+01 -0.85802009102E+02  0.15620170208E+02  0.15275717723E+03  0.12509000000E+03 0.  0.
<mgrwt>
<rscale>  2 0.46595512E+03</rscale>
<asrwt>0</asrwt>
<pdfrwt beam="1">  1       21 0.65835107E-01 0.46595512E+03</pdfrwt>
<pdfrwt beam="2">  1       21 0.17830060E-01 0.46595512E+03</pdfrwt>
<totfact> 0.55652548E+04</totfact>
</mgrwt>
</event>
<event>
 7    0  0.4705418E-002  0.4909244E+03  0.7546771E-02  0.1016175E+00
         21   -1    0    0  502  501  0.00000000000E+00  0.00000000000E+00  0.44340377649E+03  0.44340377649E+03  0.00000000000E+00 0.  1.
         21   -1    0    0  501  502 -0.00000000000E+00 -0.00000000000E+00 -0.13588448660E+03  0.13588448660E+03  0.00000000000E+00 0.  1.
      99926    2    1    2    0    0  0.14210854715E-13 -0.71054273576E-14  0.30751928989E+03  0.57928826310E+03  0.49092441181E+03 0.  0.
      99925    2    3    3    0    0 -0.94754146010E+02  0.51588600021E+02  0.30135523192E+03  0.41398479807E+03  0.26254276868E+03 0.  0.
         25    1    4    4    0    0 -0.40730172404E+02  0.22117264341E+02  0.90464620456E+02  0.16118150012E+03  0.12509000000E+03 0.  0.
         25    1    3    3    0    0  0.94754146010E+02 -0.51588600021E+02  0.61640579622E+01  0.16530346502E+03  0.12509000000E+03 0.  0.
         25    1    4    4    0    0 -0.54023973606E+02  0.29471335680E+02  0.21089061147E+03  0.25280329795E+03  0.12509000000E+03 0.  0.
<mgrwt>
<rscale>  2 0.49092441E+03</rscale>
<asrwt>0</asrwt>
<pdfrwt beam="1">  1       21 0.65206437E-01 0.49092441E+03</pdfrwt>
<pdfrwt beam="2">  1       21 0.19983013E-01 0.49092441E+03</pdfrwt>
<totfact> 0.45573140E+04</totfact>
</mgrwt>
</event>
<event>
 7    0  0.4705418E-002  0.4559198E+03  0.7546771E-02  0.1025971E+00
         21   -1    0    0  502  501  0.00000000000E+00  0.00000000000E+00  0.96290316789E+02  0.96290316789E+02  0.00000000000E+00 0. -1.
         21   -1    0    0  501  502 -0.00000000000E+00 -0.00000000000E+00 -0.53967760123E+03  0.53967760123E+03  0.00000000000E+00 0. -1.
      99926    2    1    2    0    0  0.00000000000E+00  0.00000000000E+00 -0.44338728444E+03  0.63596791802E+03  0.45591984904E+03 0.  0.
      99925    2    3    3    0    0 -0.76850836732E+02  0.72931422666E+02 -0.33760239719E+03  0.44087052186E+03  0.26299504736E+03 0.  0.
         25    1    3    3    0    0  0.76850836732E+02 -0.72931422666E+02 -0.10578488725E+03  0.19509739616E+03  0.12509000000E+03 0.  0.
         25    1    4    4    0    0 -0.48531858590E+02  0.61968064998E+02 -0.22850172728E+03  0.27213219186E+03  0.12509000000E+03 0.  0.
         25    1    4    4    0    0 -0.28318978142E+02  0.10963357668E+02 -0.10910066991E+03  0.16873832999E+03  0.12509000000E+03 0.  0.
<mgrwt>
<rscale>  2 0.45591985E+03</rscale>
<asrwt>0</asrwt>
<pdfrwt beam="1">  1       21 0.14160341E-01 0.45591985E+03</pdfrwt>
<pdfrwt beam="2">  1       21 0.79364351E-01 0.45591985E+03</pdfrwt>
<totfact> 0.56108744E+04</totfact>
</mgrwt>
</event>
<event>
 7    0  0.4705418E-002  0.4560344E+03  0.7546771E-02  0.1025938E+00
         21   -1    0    0  502  501  0.00000000000E+00  0.00000000000E+00  0.36483498853E+03  0.36483498853E+03  0.00000000000E+00 0. -1.
         21   -1    0    0  501  502 -0.00000000000E+00 -0.00000000000E+00 -0.14250783978E+03  0.14250783978E+03  0.00000000000E+00 0. -1.
      99926    2    1    2    0    0  0.00000000000E+00  0.00000000000E+00  0.22232714874E+03  0.50734282831E+03  0.45603441139E+03 0.  0.
      99925    2    3    3    0    0 -0.23035281218E+02 -0.11135519608E+03  0.15125116861E+03  0.32395824083E+03  0.26294756496E+03 0.  0.
         25    1    4    4    0    0 -0.25346985281E+02 -0.56687481323E+02  0.33391849391E+02  0.14359130861E+03  0.12509000000E+03 0.  0.
         25    1    4    4    0    0  0.23117040631E+01 -0.54667714756E+02  0.11785931922E+03  0.18036693222E+03  0.12509000000E+03 0.  0.
         25    1    3    3    0    0  0.23035281218E+02  0.11135519608E+03  0.71075980130E+02  0.18338458748E+03  0.12509000000E+03 0.  0.
<mgrwt>
<rscale>  2 0.45603441E+03</rscale>
<asrwt>0</asrwt>
<pdfrwt beam="1">  1       21 0.53652204E-01 0.45603441E+03</pdfrwt>
<pdfrwt beam="2">  1       21 0.20957035E-01 0.45603441E+03</pdfrwt>
<totfact> 0.64228877E+04</totfact>
</mgrwt>
</event>
<event>
 7    0  0.4705418E-002  0.4584068E+03  0.7546771E-02  0.1025244E+00
         21   -1    0    0  502  501  0.00000000000E+00  0.00000000000E+00  0.10140823352E+03  0.10140823352E+03  0.00000000000E+00 0.  1.
         21   -1    0    0  501  502 -0.00000000000E+00 -0.00000000000E+00 -0.51804659466E+03  0.51804659466E+03  0.00000000000E+00 0.  1.
      99926    2    1    2    0    0 -0.14210854715E-13  0.00000000000E+00 -0.41663836114E+03  0.61945482818E+03  0.45840676280E+03 0.  0.
      99925    2    3    3    0    0  0.71713627285E+02 -0.53589933870E+02 -0.36176679984E+03  0.45613574880E+03  0.26300167017E+03 0.  0.
         25    1    4    4    0    0  0.72504509083E+02 -0.33270306239E+02 -0.16304859731E+03  0.22044539074E+03  0.12509000000E+03 0.  0.
         25    1    4    4    0    0 -0.79088179827E+00 -0.20319627632E+02 -0.19871820254E+03  0.23569035806E+03  0.12509000000E+03 0.  0.
         25    1    3    3    0    0 -0.71713627285E+02  0.53589933870E+02 -0.54871561294E+02  0.16331907938E+03  0.12509000000E+03 0.  0.
<mgrwt>
<rscale>  2 0.45840676E+03</rscale>
<asrwt>0</asrwt>
<pdfrwt beam="1">  1       21 0.14912976E-01 0.45840676E+03</pdfrwt>
<pdfrwt beam="2">  1       21 0.76183322E-01 0.45840676E+03</pdfrwt>
<totfact> 0.55975322E+04</totfact>
</mgrwt>
</event>
<event>
 7    0  0.4705418E-002  0.4510612E+03  0.7546771E-02  0.1027406E+00
         21   -1    0    0  502  501  0.00000000000E+00  0.00000000000E+00  0.29812032797E+03  0.29812032797E+03  0.00000000000E+00 0. -1.
         21   -1    0    0  501  502 -0.00000000000E+00 -0.00000000000E+00 -0.17061581107E+03  0.17061581107E+03  0.00000000000E+00 0. -1.
      99926    2    1    2    0    0  0.00000000000E+00 -0.17763568394E-14  0.12750451689E+03  0.46873613904E+03  0.45106115574E+03 0.  0.
      99925    2    3    3    0    0  0.74985129448E+02  0.13281144407E+02  0.16217844182E+03  0.31824046600E+03  0.26301328630E+03 0.  0.
         25    1    4    4    0    0 -0.33428609358E+01 -0.21118165177E+01  0.67136549497E+02  0.14202274067E+03  0.12509000000E+03 0.  0.
         25    1    4    4    0    0  0.78327990384E+02  0.15392960925E+02  0.95041892324E+02  0.17621772533E+03  0.12509000000E+03 0.  0.
         25    1    3    3    0    0 -0.74985129448E+02 -0.13281144407E+02 -0.34673924929E+02  0.15049567304E+03  0.12509000000E+03 0.  0.
<mgrwt>
<rscale>  2 0.45106116E+03</rscale>
<asrwt>0</asrwt>
<pdfrwt beam="1">  1       21 0.43841225E-01 0.45106116E+03</pdfrwt>
<pdfrwt beam="2">  1       21 0.25090560E-01 0.45106116E+03</pdfrwt>
<totfact> 0.69682016E+04</totfact>
</mgrwt>
</event>
<event>
 7    0  0.4705418E-002  0.4450696E+03  0.7546771E-02  0.1029203E+00
         21   -1    0    0  502  501  0.00000000000E+00  0.00000000000E+00  0.48176931425E+03  0.48176931425E+03  0.00000000000E+00 0.  1.
         21   -1    0    0  501  502 -0.00000000000E+00 -0.00000000000E+00 -0.10279138306E+03  0.10279138306E+03  0.00000000000E+00 0.  1.
      99926    2    1    2    0    0  0.71054273576E-14  0.00000000000E+00  0.37897793119E+03  0.58456069731E+03  0.44506958615E+03 0.  0.
      99925    2    3    3    0    0  0.38164063627E+02 -0.97790058207E+02  0.24766781038E+03  0.37501536292E+03  0.26130018541E+03 0.  0.
         25    1    4    4    0    0  0.10793563185E+02 -0.16712271256E+02  0.14185061492E+03  0.19017072874E+03  0.12509000000E+03 0.  0.
         25    1    3    3    0    0 -0.38164063627E+02  0.97790058207E+02  0.13131012081E+03  0.20954533439E+03  0.12509000000E+03 0.  0.
         25    1    4    4    0    0  0.27370500442E+02 -0.81077786951E+02  0.10581719545E+03  0.18484463418E+03  0.12509000000E+03 0.  0.
<mgrwt>
<rscale>  2 0.44506959E+03</rscale>
<asrwt>0</asrwt>
<pdfrwt beam="1">  1       21 0.70848428E-01 0.44506959E+03</pdfrwt>
<pdfrwt beam="2">  1       21 0.15116380E-01 0.44506959E+03</pdfrwt>
<totfact> 0.64559042E+04</totfact>
</mgrwt>
</event>
<event>
 7    0  0.4705418E-002  0.4456334E+03  0.7546771E-02  0.1029032E+00
         21   -1    0    0  502  501  0.00000000000E+00  0.00000000000E+00  0.23103224175E+03  0.23103224175E+03  0.00000000000E+00 0.  1.
         21   -1    0    0  501  502 -0.00000000000E+00 -0.00000000000E+00 -0.21489327944E+03  0.21489327944E+03  0.00000000000E+00 0.  1.
      99926    2    1    2    0    0  0.00000000000E+00  0.00000000000E+00  0.16138962307E+02  0.44592552119E+03  0.44563337437E+03 0.  0.
      99925    2    3    3    0    0  0.42253583650E+02 -0.45242568629E+02 -0.73753364710E+02  0.27991228707E+03  0.26282898299E+03 0.  0.
         25    1    3    3    0    0 -0.42253583650E+02  0.45242568629E+02  0.89892327018E+02  0.16601323412E+03  0.12509000000E+03 0.  0.
         25    1    4    4    0    0 -0.10364827333E+02 -0.28522083066E+02 -0.10171888327E+02  0.12911976719E+03  0.12509000000E+03 0.  0.
         25    1    4    4    0    0  0.52618410983E+02 -0.16720485562E+02 -0.63581476383E+02  0.15079251988E+03  0.12509000000E+03 0.  0.
<mgrwt>
<rscale>  2 0.44563337E+03</rscale>
<asrwt>0</asrwt>
<pdfrwt beam="1">  1       21 0.33975330E-01 0.44563337E+03</pdfrwt>
<pdfrwt beam="2">  1       21 0.31601953E-01 0.44563337E+03</pdfrwt>
<totfact> 0.74639990E+04</totfact>
</mgrwt>
</event>
<event>
 7    0  0.4705418E-002  0.4573424E+03  0.7546771E-02  0.1025555E+00
         21   -1    0    0  502  501  0.00000000000E+00  0.00000000000E+00  0.22230468095E+03  0.22230468095E+03  0.00000000000E+00 0.  1.
         21   -1    0    0  501  502 -0.00000000000E+00 -0.00000000000E+00 -0.23522009619E+03  0.23522009619E+03  0.00000000000E+00 0.  1.
      99926    2    1    2    0    0  0.00000000000E+00  0.00000000000E+00 -0.12915415243E+02  0.45752477714E+03  0.45734244691E+03 0.  0.
      99925    2    3    3    0    0  0.26426279009E+02 -0.42908571774E+02 -0.11201628572E+03  0.29016891563E+03  0.26288943983E+03 0.  0.
         25    1    4    4    0    0  0.34784931125E+02 -0.50741121175E+02 -0.79251766095E+02  0.16035274660E+03  0.12509000000E+03 0.  0.
         25    1    4    4    0    0 -0.83586521161E+01  0.78325494009E+01 -0.32764519626E+02  0.12981616903E+03  0.12509000000E+03 0.  0.
         25    1    3    3    0    0 -0.26426279009E+02  0.42908571774E+02  0.99100870478E+02  0.16735586151E+03  0.12509000000E+03 0.  0.
<mgrwt>
<rscale>  2 0.45734245E+03</rscale>
<asrwt>0</asrwt>
<pdfrwt beam="1">  1       21 0.32691865E-01 0.45734245E+03</pdfrwt>
<pdfrwt beam="2">  1       21 0.34591191E-01 0.45734245E+03</pdfrwt>
<totfact> 0.67098353E+04</totfact>
</mgrwt>
</event>
<event>
 7    0  0.4705418E-002  0.4413876E+03  0.7546771E-02  0.1030322E+00
         21   -1    0    0  502  501  0.00000000000E+00  0.00000000000E+00  0.12164991099E+03  0.12164991099E+03  0.00000000000E+00 0.  1.
         21   -1    0    0  501  502 -0.00000000000E+00 -0.00000000000E+00 -0.40037644357E+03  0.40037644357E+03  0.00000000000E+00 0.  1.
      99926    2    1    2    0    0  0.00000000000E+00  0.00000000000E+00 -0.27872653258E+03  0.52202635455E+03  0.44138762430E+03 0.  0.
      99925    2    3    3    0    0  0.65447952183E+02 -0.66841991211E+02 -0.21909466057E+03  0.35482960072E+03  0.26296442539E+03 0.  0.
         25    1    3    3    0    0 -0.65447952183E+02  0.66841991211E+02 -0.59631872007E+02  0.16719675384E+03  0.12509000000E+03 0.  0.
         25    1    4    4    0    0 -0.21912423899E+01 -0.11508215197E+02 -0.84998328260E+02  0.15168870910E+03  0.12509000000E+03 0.  0.
         25    1    4    4    0    0  0.67639194573E+02 -0.55333776014E+02 -0.13409633231E+03  0.20314089162E+03  0.12509000000E+03 0.  0.
<mgrwt>
<rscale>  2 0.44138762E+03</rscale>
<asrwt>0</asrwt>
<pdfrwt beam="1">  1       21 0.17889693E-01 0.44138762E+03</pdfrwt>
<pdfrwt beam="2">  1       21 0.58878888E-01 0.44138762E+03</pdfrwt>
<totfact> 0.71113656E+04</totfact>
</mgrwt>
</event>
<event>
 7    0  0.4705418E-002  0.4548413E+03  0.7546771E-02  0.1026288E+00
         21   -1    0    0  502  501  0.00000000000E+00  0.00000000000E+00  0.39769532541E+02  0.39769532541E+02  0.00000000000E+00 0.  1.
         21   -1    0    0  501  502 -0.00000000000E+00 -0.00000000000E+00 -0.13004971385E+04  0.13004971385E+04  0.00000000000E+00 0.  1.
      99926    2    1    2    0    0  0.00000000000E+00 -0.14210854715E-13 -0.12607276060E+04  0.13402666711E+04  0.45484134936E+03 0.  0.
      99925    2    3    3    0    0 -0.31772779764E+02 -0.95709566528E+02 -0.64261341718E+03  0.70160988596E+03  0.26293458784E+03 0.  0.
         25    1    4    4    0    0  0.13850573426E+02 -0.70147241321E+02 -0.28979557093E+03  0.32363784525E+03  0.12509000000E+03 0.  0.
         25    1    3    3    0    0  0.31772779764E+02  0.95709566528E+02 -0.61811418882E+03  0.63865678512E+03  0.12509000000E+03 0.  0.
         25    1    4    4    0    0 -0.45623353191E+02 -0.25562325207E+02 -0.35281784625E+03  0.37797204071E+03  0.12509000000E+03 0.  0.
<mgrwt>
<rscale>  2 0.45484135E+03</rscale>
<asrwt>0</asrwt>
<pdfrwt beam="1">  1       21 0.58484616E-02 0.45484135E+03</pdfrwt>
<pdfrwt beam="2">  1       21 0.19124955E+00 0.45484135E+03</pdfrwt>
<totfact> 0.28001906E+04</totfact>
</mgrwt>
</event>
<event>
 7    0  0.4705418E-002  0.4594340E+03  0.7546771E-02  0.1024945E+00
         21   -1    0    0  502  501  0.00000000000E+00  0.00000000000E+00  0.15151284855E+03  0.15151284855E+03  0.00000000000E+00 0. -1.
         21   -1    0    0  501  502 -0.00000000000E+00 -0.00000000000E+00 -0.34828669548E+03  0.34828669548E+03  0.00000000000E+00 0. -1.
      99926    2    1    2    0    0  0.00000000000E+00  0.00000000000E+00 -0.19677384694E+03  0.49979954403E+03  0.45943404028E+03 0.  0.
      99925    2    3    3    0    0  0.66361195853E+02  0.80616487319E+02 -0.66310751333E+02  0.29106297857E+03  0.26347241869E+03 0.  0.
         25    1    3    3    0    0 -0.66361195853E+02 -0.80616487319E+02 -0.13046309560E+03  0.20873656545E+03  0.12509000000E+03 0.  0.
         25    1    4    4    0    0  0.62674595263E+02  0.11644444882E+02 -0.28633112820E+02  0.14328664012E+03  0.12509000000E+03 0.  0.
         25    1    4    4    0    0  0.36866005900E+01  0.68972042437E+02 -0.37677638513E+02  0.14777633845E+03  0.12509000000E+03 0.  0.
<mgrwt>
<rscale>  2 0.45943404E+03</rscale>
<asrwt>0</asrwt>
<pdfrwt beam="1">  1       21 0.22281302E-01 0.45943404E+03</pdfrwt>
<pdfrwt beam="2">  1       21 0.51218631E-01 0.45943404E+03</pdfrwt>
<totfact> 0.63036536E+04</totfact>
</mgrwt>
</event>
<event>
 7    0  0.4705418E-002  0.4489059E+03  0.7546771E-02  0.1028049E+00
         21   -1    0    0  502  501  0.00000000000E+00  0.00000000000E+00  0.73819382628E+03  0.73819382628E+03  0.00000000000E+00 0.  1.
         21   -1    0    0  501  502 -0.00000000000E+00 -0.00000000000E+00 -0.68246463899E+02  0.68246463899E+02  0.00000000000E+00 0.  1.
      99926    2    1    2    0    0 -0.15543122345E-14  0.00000000000E+00  0.66994736238E+03  0.80644029018E+03  0.44890586236E+03 0.  0.
      99925    2    3    3    0    0  0.18699052177E+01 -0.31251039568E+02  0.23913651144E+03  0.35674525862E+03  0.26287028060E+03 0.  0.
         25    1    4    4    0    0  0.21552055025E+02 -0.50223128794E+02  0.11685370166E+03  0.17969181794E+03  0.12509000000E+03 0.  0.
         25    1    4    4    0    0 -0.19682149807E+02  0.18972089225E+02  0.12228280978E+03  0.17705344069E+03  0.12509000000E+03 0.  0.
         25    1    3    3    0    0 -0.18699052177E+01  0.31251039568E+02  0.43081085094E+03  0.44969503156E+03  0.12509000000E+03 0.  0.
<mgrwt>
<rscale>  2 0.44890586E+03</rscale>
<asrwt>0</asrwt>
<pdfrwt beam="1">  1       21 0.10855791E+00 0.44890586E+03</pdfrwt>
<pdfrwt beam="2">  1       21 0.10036245E-01 0.44890586E+03</pdfrwt>
<totfact> 0.49793825E+04</totfact>
</mgrwt>
</event>
<event>
 7    0  0.4705418E-002  0.4527151E+03  0.7546771E-02  0.1026915E+00
         21   -1    0    0  502  501  0.00000000000E+00  0.00000000000E+00  0.36302774250E+03  0.36302774250E+03  0.00000000000E+00 0. -1.
         21   -1    0    0  501  502 -0.00000000000E+00 -0.00000000000E+00 -0.14114000933E+03  0.14114000933E+03  0.00000000000E+00 0. -1.
      99926    2    1    2    0    0  0.00000000000E+00 -0.71054273576E-14  0.22188773317E+03  0.50416775183E+03  0.45271509347E+03 0.  0.
      99925    2    3    3    0    0 -0.55324642450E+02  0.33130377078E+02  0.24040345907E+03  0.36222136001E+03  0.26315784724E+03 0.  0.
         25    1    4    4    0    0 -0.59587745814E+01 -0.58245480626E+00  0.73354691593E+02  0.14513533383E+03  0.12509000000E+03 0.  0.
         25    1    3    3    0    0  0.55324642450E+02 -0.33130377078E+02 -0.18515725900E+02  0.14194639183E+03  0.12509000000E+03 0.  0.
         25    1    4    4    0    0 -0.49365867869E+02  0.33712831884E+02  0.16704876748E+03  0.21708602617E+03  0.12509000000E+03 0.  0.
<mgrwt>
<rscale>  2 0.45271509E+03</rscale>
<asrwt>0</asrwt>
<pdfrwt beam="1">  1       21 0.53386432E-01 0.45271509E+03</pdfrwt>
<pdfrwt beam="2">  1       21 0.20755884E-01 0.45271509E+03</pdfrwt>
<totfact> 0.66170785E+04</totfact>
</mgrwt>
</event>
<event>
 7    0  0.4705418E-002  0.4571158E+03  0.7546771E-02  0.1025621E+00
         21   -1    0    0  502  501  0.00000000000E+00  0.00000000000E+00  0.85951076431E+02  0.85951076431E+02  0.00000000000E+00 0. -1.
         21   -1    0    0  501  502 -0.00000000000E+00 -0.00000000000E+00 -0.60777272640E+03  0.60777272640E+03  0.00000000000E+00 0. -1.
      99926    2    1    2    0    0 -0.14210854715E-13  0.00000000000E+00 -0.52182164997E+03  0.69372380284E+03  0.45711582803E+03 0.  0.
      99925    2    3    3    0    0 -0.71852758198E+02 -0.87697979685E+02 -0.35697169780E+03  0.45776454929E+03  0.26318403268E+03 0.  0.
         25    1    4    4    0    0  0.54731590786E+01 -0.38185229005E+02 -0.17673151667E+03  0.21993090794E+03  0.12509000000E+03 0.  0.
         25    1    3    3    0    0  0.71852758198E+02  0.87697979685E+02 -0.16484995217E+03  0.23595925354E+03  0.12509000000E+03 0.  0.
         25    1    4    4    0    0 -0.77325917277E+02 -0.49512750680E+02 -0.18024018114E+03  0.23783364135E+03  0.12509000000E+03 0.  0.
<mgrwt>
<rscale>  2 0.45711583E+03</rscale>
<asrwt>0</asrwt>
<pdfrwt beam="1">  1       21 0.12639864E-01 0.45711583E+03</pdfrwt>
<pdfrwt beam="2">  1       21 0.89378342E-01 0.45711583E+03</pdfrwt>
<totfact> 0.52367486E+04</totfact>
</mgrwt>
</event>
<event>
 7    0  0.4705418E-002  0.4596176E+03  0.7546771E-02  0.1024892E+00
         21   -1    0    0  502  501  0.00000000000E+00  0.00000000000E+00  0.80166896222E+03  0.80166896222E+03  0.00000000000E+00 0. -1.
         21   -1    0    0  501  502 -0.00000000000E+00 -0.00000000000E+00 -0.65877664100E+02  0.65877664100E+02  0.00000000000E+00 0. -1.
      99926    2    1    2    0    0  0.00000000000E+00  0.35527136788E-14  0.73579129812E+03  0.86754662632E+03  0.45961757413E+03 0.  0.
      99925    2    3    3    0    0 -0.41988910163E+02 -0.28897205300E+02  0.66084780902E+03  0.71307283660E+03  0.26297324306E+03 0.  0.
         25    1    3    3    0    0  0.41988910163E+02  0.28897205300E+02  0.74943489097E+02  0.15447378972E+03  0.12509000000E+03 0.  0.
         25    1    4    4    0    0  0.15908084650E+02 -0.31602959362E+02  0.31860507263E+03  0.34410538299E+03  0.12509000000E+03 0.  0.
         25    1    4    4    0    0 -0.57896994813E+02  0.27057540622E+01  0.34224273639E+03  0.36896745361E+03  0.12509000000E+03 0.  0.
<mgrwt>
<rscale>  2 0.45961757E+03</rscale>
<asrwt>0</asrwt>
<pdfrwt beam="1">  1       21 0.11789249E+00 0.45961757E+03</pdfrwt>
<pdfrwt beam="2">  1       21 0.96878923E-02 0.45961757E+03</pdfrwt>
<totfact> 0.43082697E+04</totfact>
</mgrwt>
</event>
<event>
 7    0  0.4705418E-002  0.4500727E+03  0.7546771E-02  0.1027700E+00
         21   -1    0    0  502  501  0.00000000000E+00  0.00000000000E+00  0.63390153992E+03  0.63390153992E+03  0.00000000000E+00 0.  1.
         21   -1    0    0  501  502 -0.00000000000E+00 -0.00000000000E+00 -0.79888372861E+02  0.79888372861E+02  0.00000000000E+00 0.  1.
      99926    2    1    2    0    0  0.00000000000E+00 -0.48849813084E-14  0.55401316706E+03  0.71378991279E+03  0.45007271670E+03 0.  0.
      99925    2    3    3    0    0 -0.39527590104E+02  0.26040084412E+01  0.18968408712E+03  0.32655303717E+03  0.26284524333E+03 0.  0.
         25    1    4    4    0    0 -0.15789989339E+02  0.41389080565E+02  0.96289056125E+02  0.16395569579E+03  0.12509000000E+03 0.  0.
         25    1    3    3    0    0  0.39527590104E+02 -0.26040084412E+01  0.36432907995E+03  0.38723687561E+03  0.12509000000E+03 0.  0.
         25    1    4    4    0    0 -0.23737600766E+02 -0.38785072123E+02  0.93395030990E+02  0.16259734138E+03  0.12509000000E+03 0.  0.
<mgrwt>
<rscale>  2 0.45007272E+03</rscale>
<asrwt>0</asrwt>
<pdfrwt beam="1">  1       21 0.93220812E-01 0.45007272E+03</pdfrwt>
<pdfrwt beam="2">  1       21 0.11748290E-01 0.45007272E+03</pdfrwt>
<totfact> 0.54232447E+04</totfact>
</mgrwt>
</event>
<event>
 7    0  0.4705418E-002  0.4551984E+03  0.7546771E-02  0.1026183E+00
         21   -1    0    0  502  501  0.00000000000E+00  0.00000000000E+00  0.35572333253E+03  0.35572333253E+03  0.00000000000E+00 0.  1.
         21   -1    0    0  501  502 -0.00000000000E+00 -0.00000000000E+00 -0.14562271850E+03  0.14562271850E+03  0.00000000000E+00 0.  1.
      99926    2    1    2    0    0  0.00000000000E+00  0.00000000000E+00  0.21010061403E+03  0.50134605104E+03  0.45519841265E+03 0.  0.
      99925    2    3    3    0    0 -0.86331575848E+02 -0.70677683801E+02  0.15435927185E+03  0.32470211170E+03  0.26297566534E+03 0.  0.
         25    1    3    3    0    0  0.86331575848E+02  0.70677683801E+02  0.55741342173E+02  0.17664393933E+03  0.12509000000E+03 0.  0.
         25    1    4    4    0    0 -0.11276783428E+02 -0.79204907588E+01  0.54737276517E+02  0.13723548214E+03  0.12509000000E+03 0.  0.
         25    1    4    4    0    0 -0.75054792420E+02 -0.62757193042E+02  0.99621995337E+02  0.18746662956E+03  0.12509000000E+03 0.  0.
<mgrwt>
<rscale>  2 0.45519841E+03</rscale>
<asrwt>0</asrwt>
<pdfrwt beam="1">  1       21 0.52312255E-01 0.45519841E+03</pdfrwt>
<pdfrwt beam="2">  1       21 0.21415106E-01 0.45519841E+03</pdfrwt>
<totfact> 0.65073651E+04</totfact>
</mgrwt>
</event>
<event>
 7    0  0.4705418E-002  0.4051374E+03  0.7546771E-02  0.1042015E+00
         21   -1    0    0  502  501  0.00000000000E+00  0.00000000000E+00  0.30746635525E+02  0.30746635525E+02  0.00000000000E+00 0.  1.
         21   -1    0    0  501  502 -0.00000000000E+00 -0.00000000000E+00 -0.13345877044E+04  0.13345877044E+04  0.00000000000E+00 0.  1.
      99926    2    1    2    0    0  0.00000000000E+00  0.00000000000E+00 -0.13038410688E+04  0.13653343399E+04  0.40513741729E+03 0.  0.
      99925    2    3    3    0    0 -0.40190043820E+02 -0.28674137337E+02 -0.76702454097E+03  0.81192948044E+03  0.26165891725E+03 0.  0.
         25    1    4    4    0    0  0.50895078629E+01  0.19278770677E+01 -0.29277374033E+03  0.31842360296E+03  0.12509000000E+03 0.  0.
         25    1    4    4    0    0 -0.45279551682E+02 -0.30602014405E+02 -0.47425080065E+03  0.49350587747E+03  0.12509000000E+03 0.  0.
         25    1    3    3    0    0  0.40190043820E+02  0.28674137337E+02 -0.53681652787E+03  0.55340485945E+03  0.12509000000E+03 0.  0.
<mgrwt>
<rscale>  2 0.40513742E+03</rscale>
<asrwt>0</asrwt>
<pdfrwt beam="1">  1       21 0.45215646E-02 0.40513742E+03</pdfrwt>
<pdfrwt beam="2">  1       21 0.19626287E+00 0.40513742E+03</pdfrwt>
<totfact> 0.41010553E+04</totfact>
</mgrwt>
</event>
<event>
 7    0  0.4705418E-002  0.4520502E+03  0.7546771E-02  0.1027112E+00
         21   -1    0    0  502  501  0.00000000000E+00  0.00000000000E+00  0.23330627772E+02  0.23330627772E+02  0.00000000000E+00 0. -1.
         21   -1    0    0  501  502 -0.00000000000E+00 -0.00000000000E+00 -0.21897115243E+04  0.21897115243E+04  0.00000000000E+00 0. -1.
      99926    2    1    2    0    0  0.00000000000E+00  0.00000000000E+00 -0.21663808965E+04  0.22130421520E+04  0.45205019411E+03 0.  0.
      99925    2    3    3    0    0  0.98147319378E+02  0.46695404715E+02 -0.14593048361E+04  0.14868070521E+04  0.26308030777E+03 0.  0.
         25    1    4    4    0    0  0.30903001522E+02  0.54800861348E+02 -0.62809005193E+03  0.64350815950E+03  0.12509000000E+03 0.  0.
         25    1    4    4    0    0  0.67244317857E+02 -0.81054566332E+01 -0.83121478419E+03  0.84329889261E+03  0.12509000000E+03 0.  0.
         25    1    3    3    0    0 -0.98147319378E+02 -0.46695404715E+02 -0.70707606036E+03  0.72623509992E+03  0.12509000000E+03 0.  0.
<mgrwt>
<rscale>  2 0.45205019E+03</rscale>
<asrwt>0</asrwt>
<pdfrwt beam="1">  1       21 0.34309758E-02 0.45205019E+03</pdfrwt>
<pdfrwt beam="2">  1       21 0.32201629E+00 0.45205019E+03</pdfrwt>
<totfact> 0.10777944E+04</totfact>
</mgrwt>
</event>
<event>
 7    0  0.4705418E-002  0.4579776E+03  0.7546771E-02  0.1025369E+00
         21   -1    0    0  502  501  0.00000000000E+00  0.00000000000E+00  0.21933348934E+03  0.21933348934E+03  0.00000000000E+00 0. -1.
         21   -1    0    0  501  502 -0.00000000000E+00 -0.00000000000E+00 -0.23906913703E+03  0.23906913703E+03  0.00000000000E+00 0. -1.
      99926    2    1    2    0    0 -0.71054273576E-14  0.00000000000E+00 -0.19735647688E+02  0.45840262637E+03  0.45797758906E+03 0.  0.
      99925    2    3    3    0    0  0.41608057082E+02 -0.79276751129E+02  0.61344570413E+02  0.28451316853E+03  0.26299915031E+03 0.  0.
         25    1    4    4    0    0  0.22932519541E+02 -0.16065893091E+01  0.46220779689E+02  0.13532313238E+03  0.12509000000E+03 0.  0.
         25    1    4    4    0    0  0.18675537542E+02 -0.77670161820E+02  0.15123790724E+02  0.14919003615E+03  0.12509000000E+03 0.  0.
         25    1    3    3    0    0 -0.41608057082E+02  0.79276751129E+02 -0.81080218101E+02  0.17388945785E+03  0.12509000000E+03 0.  0.
<mgrwt>
<rscale>  2 0.45797759E+03</rscale>
<asrwt>0</asrwt>
<pdfrwt beam="1">  1       21 0.32254925E-01 0.45797759E+03</pdfrwt>
<pdfrwt beam="2">  1       21 0.35157226E-01 0.45797759E+03</pdfrwt>
<totfact> 0.66698503E+04</totfact>
</mgrwt>
</event>
<event>
 7    0  0.4705418E-002  0.4564946E+03  0.7546771E-02  0.1025803E+00
         21   -1    0    0  502  501  0.00000000000E+00  0.00000000000E+00  0.15685743244E+04  0.15685743244E+04  0.00000000000E+00 0.  1.
         21   -1    0    0  501  502 -0.00000000000E+00 -0.00000000000E+00 -0.33212851284E+02  0.33212851284E+02  0.00000000000E+00 0.  1.
      99926    2    1    2    0    0  0.35527136788E-14  0.00000000000E+00  0.15353614732E+04  0.16017871757E+04  0.45649458164E+03 0.  0.
      99925    2    3    3    0    0  0.31221251459E+02 -0.79380617619E+02  0.69606174812E+03  0.74894042188E+03  0.26293297499E+03 0.  0.
         25    1    4    4    0    0  0.41749675615E+02 -0.67219088119E+02  0.42328590368E+03  0.44841934122E+03  0.12509000000E+03 0.  0.
         25    1    3    3    0    0 -0.31221251459E+02  0.79380617619E+02  0.83929972504E+03  0.85284675385E+03  0.12509000000E+03 0.  0.
         25    1    4    4    0    0 -0.10528424155E+02 -0.12161529500E+02  0.27277584444E+03  0.30052108067E+03  0.12509000000E+03 0.  0.
<mgrwt>
<rscale>  2 0.45649458E+03</rscale>
<asrwt>0</asrwt>
<pdfrwt beam="1">  1       21 0.23067265E+00 0.45649458E+03</pdfrwt>
<pdfrwt beam="2">  1       21 0.48842439E-02 0.45649458E+03</pdfrwt>
<totfact> 0.21143003E+04</totfact>
</mgrwt>
</event>
<event>
 7    0  0.4705418E-002  0.4521487E+03  0.7546771E-02  0.1027083E+00
         21   -1    0    0  502  501  0.00000000000E+00  0.00000000000E+00  0.22908309662E+03  0.22908309662E+03  0.00000000000E+00 0.  1.
         21   -1    0    0  501  502 -0.00000000000E+00 -0.00000000000E+00 -0.22310508844E+03  0.22310508844E+03  0.00000000000E+00 0.  1.
      99926    2    1    2    0    0  0.00000000000E+00  0.00000000000E+00  0.59780081795E+01  0.45218818507E+03  0.45214866817E+03 0.  0.
      99925    2    3    3    0    0 -0.96454257037E+02 -0.38553727116E+02  0.42333899771E+02  0.28557764360E+03  0.26262638458E+03 0.  0.
         25    1    4    4    0    0 -0.46503438251E+02 -0.29846389686E+02 -0.17627778655E+02  0.13788264367E+03  0.12509000000E+03 0.  0.
         25    1    3    3    0    0  0.96454257037E+02  0.38553727116E+02 -0.36355891592E+02  0.16661054147E+03  0.12509000000E+03 0.  0.
         25    1    4    4    0    0 -0.49950818786E+02 -0.87073374303E+01  0.59961678426E+02  0.14769499992E+03  0.12509000000E+03 0.  0.
<mgrwt>
<rscale>  2 0.45214867E+03</rscale>
<asrwt>0</asrwt>
<pdfrwt beam="1">  1       21 0.33688691E-01 0.45214867E+03</pdfrwt>
<pdfrwt beam="2">  1       21 0.32809572E-01 0.45214867E+03</pdfrwt>
<totfact> 0.70338963E+04</totfact>
</mgrwt>
</event>
<event>
 7    0  0.4705418E-002  0.4497826E+03  0.7546771E-02  0.1027787E+00
         21   -1    0    0  502  501  0.00000000000E+00  0.00000000000E+00  0.11129081556E+03  0.11129081556E+03  0.00000000000E+00 0. -1.
         21   -1    0    0  501  502 -0.00000000000E+00 -0.00000000000E+00 -0.45444982401E+03  0.45444982401E+03  0.00000000000E+00 0. -1.
      99926    2    1    2    0    0  0.00000000000E+00 -0.14210854715E-13 -0.34315900845E+03  0.56574063956E+03  0.44978257656E+03 0.  0.
      99925    2    3    3    0    0 -0.26402556041E+02 -0.77087935300E+02 -0.30642103038E+03  0.41199789382E+03  0.26307560116E+03 0.  0.
         25    1    3    3    0    0  0.26402556041E+02  0.77087935300E+02 -0.36737978072E+02  0.15374274574E+03  0.12509000000E+03 0.  0.
         25    1    4    4    0    0 -0.38403689828E+00 -0.61121127069E+01 -0.17666060233E+03  0.21655018338E+03  0.12509000000E+03 0.  0.
         25    1    4    4    0    0 -0.26018519142E+02 -0.70975822593E+02 -0.12976042805E+03  0.19544771044E+03  0.12509000000E+03 0.  0.
<mgrwt>
<rscale>  2 0.44978258E+03</rscale>
<asrwt>0</asrwt>
<pdfrwt beam="1">  1       21 0.16366296E-01 0.44978258E+03</pdfrwt>
<pdfrwt beam="2">  1       21 0.66830858E-01 0.44978258E+03</pdfrwt>
<totfact> 0.63414608E+04</totfact>
</mgrwt>
</event>
<event>
 7    0  0.4705418E-002  0.4505267E+03  0.7546771E-02  0.1027565E+00
         21   -1    0    0  502  501  0.00000000000E+00  0.00000000000E+00  0.62914898492E+03  0.62914898492E+03  0.00000000000E+00 0. -1.
         21   -1    0    0  501  502 -0.00000000000E+00 -0.00000000000E+00 -0.80654297986E+02  0.80654297986E+02  0.00000000000E+00 0. -1.
      99926    2    1    2    0    0  0.71054273576E-14 -0.55511151231E-15  0.54849468693E+03  0.70980328291E+03  0.45052666828E+03 0.  0.
      99925    2    3    3    0    0  0.51728790456E+02 -0.51283990521E+00  0.49754191004E+03  0.56516641229E+03  0.26303800215E+03 0.  0.
         25    1    3    3    0    0 -0.51728790456E+02  0.51283990521E+00  0.50952776897E+02  0.14463687061E+03  0.12509000000E+03 0.  0.
         25    1    4    4    0    0 -0.11299492945E+01 -0.10748844093E+02  0.17811567754E+03  0.21792089647E+03  0.12509000000E+03 0.  0.
         25    1    4    4    0    0  0.52858739750E+02  0.10236004187E+02  0.31942623250E+03  0.34724551582E+03  0.12509000000E+03 0.  0.
<mgrwt>
<rscale>  2 0.45052667E+03</rscale>
<asrwt>0</asrwt>
<pdfrwt beam="1">  1       21 0.92521907E-01 0.45052667E+03</pdfrwt>
<pdfrwt beam="2">  1       21 0.11860926E-01 0.45052667E+03</pdfrwt>
<totfact> 0.54258478E+04</totfact>
</mgrwt>
</event>
<event>
 7    0  0.4705418E-002  0.4541184E+03  0.7546771E-02  0.1026501E+00
         21   -1    0    0  502  501  0.00000000000E+00  0.00000000000E+00  0.29483498162E+02  0.29483498162E+02  0.00000000000E+00 0. -1.
         21   -1    0    0  501  502 -0.00000000000E+00 -0.00000000000E+00 -0.17486353196E+04  0.17486353196E+04  0.00000000000E+00 0. -1.
      99926    2    1    2    0    0  0.00000000000E+00  0.00000000000E+00 -0.17191518215E+04  0.17781188178E+04  0.45411842611E+03 0.  0.
      99925    2    3    3    0    0  0.84421393620E+02  0.70903607410E+02 -0.11709055603E+04  0.12050780127E+04  0.26275253083E+03 0.  0.
         25    1    3    3    0    0 -0.84421393620E+02 -0.70903607410E+02 -0.54824626121E+03  0.57304080507E+03  0.12509000000E+03 0.  0.
         25    1    4    4    0    0  0.37457441238E+01  0.21880397610E+02 -0.47013818706E+03  0.48700123760E+03  0.12509000000E+03 0.  0.
         25    1    4    4    0    0  0.80675649496E+02  0.49023209800E+02 -0.70076737322E+03  0.71807677513E+03  0.12509000000E+03 0.  0.
<mgrwt>
<rscale>  2 0.45411843E+03</rscale>
<asrwt>0</asrwt>
<pdfrwt beam="1">  1       21 0.43358084E-02 0.45411843E+03</pdfrwt>
<pdfrwt beam="2">  1       21 0.25715226E+00 0.45411843E+03</pdfrwt>
<totfact> 0.17805244E+04</totfact>
</mgrwt>
</event>
<event>
 7    0  0.4705418E-002  0.4543511E+03  0.7546771E-02  0.1026432E+00
         21   -1    0    0  502  501  0.00000000000E+00  0.00000000000E+00  0.35357010580E+03  0.35357010580E+03  0.00000000000E+00 0.  1.
         21   -1    0    0  501  502 -0.00000000000E+00 -0.00000000000E+00 -0.14596463099E+03  0.14596463099E+03  0.00000000000E+00 0.  1.
      99926    2    1    2    0    0  0.00000000000E+00  0.00000000000E+00  0.20760547481E+03  0.49953473679E+03  0.45435109782E+03 0.  0.
      99925    2    3    3    0    0 -0.98030422234E+02  0.46882146618E+02  0.16311948563E+03  0.32797014054E+03  0.26296111336E+03 0.  0.
         25    1    3    3    0    0  0.98030422234E+02 -0.46882146618E+02  0.44485989182E+02  0.17156459626E+03  0.12509000000E+03 0.  0.
         25    1    4    4    0    0 -0.84962069552E+02  0.41384603773E+02  0.10897164601E+03  0.19092817086E+03  0.12509000000E+03 0.  0.
         25    1    4    4    0    0 -0.13068352683E+02  0.54975428445E+01  0.54147839616E+02  0.13704196968E+03  0.12509000000E+03 0.  0.
<mgrwt>
<rscale>  2 0.45435110E+03</rscale>
<asrwt>0</asrwt>
<pdfrwt beam="1">  1       21 0.51995604E-01 0.45435110E+03</pdfrwt>
<pdfrwt beam="2">  1       21 0.21465387E-01 0.45435110E+03</pdfrwt>
<totfact> 0.65640826E+04</totfact>
</mgrwt>
</event>
<event>
 7    0  0.4705418E-002  0.4546579E+03  0.7546771E-02  0.1026342E+00
         21   -1    0    0  502  501  0.00000000000E+00  0.00000000000E+00  0.64288721802E+03  0.64288721802E+03  0.00000000000E+00 0.  1.
         21   -1    0    0  501  502 -0.00000000000E+00 -0.00000000000E+00 -0.80384935562E+02  0.80384935562E+02  0.00000000000E+00 0.  1.
      99926    2    1    2    0    0  0.71054273576E-14  0.00000000000E+00  0.56250228246E+03  0.72327215358E+03  0.45465788278E+03 0.  0.
      99925    2    3    3    0    0  0.32205937285E+02 -0.10690649696E+03  0.32942536038E+03  0.43615095758E+03  0.26313564610E+03 0.  0.
         25    1    4    4    0    0  0.31249395020E+02 -0.69341652845E+02  0.22724141316E+03  0.27031640251E+03  0.12509000000E+03 0.  0.
         25    1    4    4    0    0  0.95654226495E+00 -0.37564844115E+02  0.10218394721E+03  0.16583455507E+03  0.12509000000E+03 0.  0.
         25    1    3    3    0    0 -0.32205937285E+02  0.10690649696E+03  0.23307692208E+03  0.28712119600E+03  0.12509000000E+03 0.  0.
<mgrwt>
<rscale>  2 0.45465788E+03</rscale>
<asrwt>0</asrwt>
<pdfrwt beam="1">  1       21 0.94542235E-01 0.45465788E+03</pdfrwt>
<pdfrwt beam="2">  1       21 0.11821314E-01 0.45465788E+03</pdfrwt>
<totfact> 0.51796852E+04</totfact>
</mgrwt>
</event>
<event>
 7    0  0.4705418E-002  0.4151382E+03  0.7546771E-02  0.1038660E+00
         21   -1    0    0  502  501  0.00000000000E+00  0.00000000000E+00  0.44753851952E+02  0.44753851952E+02  0.00000000000E+00 0. -1.
         21   -1    0    0  501  502 -0.00000000000E+00 -0.00000000000E+00 -0.96270904551E+03  0.96270904551E+03  0.00000000000E+00 0. -1.
      99926    2    1    2    0    0  0.00000000000E+00  0.00000000000E+00 -0.91795519356E+03  0.10074628975E+04  0.41513823286E+03 0.  0.
      99925    2    3    3    0    0 -0.35664244693E+02  0.55816685398E+02 -0.65200695547E+03  0.70619322730E+03  0.26307482507E+03 0.  0.
         25    1    3    3    0    0  0.35664244693E+02 -0.55816685398E+02 -0.26594823809E+03  0.30126967017E+03  0.12509000000E+03 0.  0.
         25    1    4    4    0    0 -0.10329074988E+02 -0.95758153684E+01 -0.34778311235E+03  0.36986347125E+03  0.12509000000E+03 0.  0.
         25    1    4    4    0    0 -0.25335169705E+02  0.65392500767E+02 -0.30422384311E+03  0.33632975604E+03  0.12509000000E+03 0.  0.
<mgrwt>
<rscale>  2 0.41513823E+03</rscale>
<asrwt>0</asrwt>
<pdfrwt beam="1">  1       21 0.65814490E-02 0.41513823E+03</pdfrwt>
<pdfrwt beam="2">  1       21 0.14157486E+00 0.41513823E+03</pdfrwt>
<totfact> 0.53763003E+04</totfact>
</mgrwt>
</event>
<event>
 7    0  0.4705418E-002  0.4549087E+03  0.7546771E-02  0.1026268E+00
         21   -1    0    0  502  501  0.00000000000E+00  0.00000000000E+00  0.13583803557E+03  0.13583803557E+03  0.00000000000E+00 0. -1.
         21   -1    0    0  501  502 -0.00000000000E+00 -0.00000000000E+00 -0.38086158098E+03  0.38086158098E+03  0.00000000000E+00 0. -1.
      99926    2    1    2    0    0  0.00000000000E+00 -0.14210854715E-13 -0.24502354541E+03  0.51669961655E+03  0.45490873363E+03 0.  0.
      99925    2    3    3    0    0  0.68949392520E+02  0.86105470143E+02 -0.13473676358E+03  0.31675249088E+03  0.26459398009E+03 0.  0.
         25    1    4    4    0    0  0.58828223175E+02  0.57243972141E+02 -0.34444486736E+02  0.15353033236E+03  0.12509000000E+03 0.  0.
         25    1    4    4    0    0  0.10121169345E+02  0.28861498002E+02 -0.10029227685E+03  0.16322215852E+03  0.12509000000E+03 0.  0.
         25    1    3    3    0    0 -0.68949392520E+02 -0.86105470143E+02 -0.11028678183E+03  0.19994712567E+03  0.12509000000E+03 0.  0.
<mgrwt>
<rscale>  2 0.45490873E+03</rscale>
<asrwt>0</asrwt>
<pdfrwt beam="1">  1       21 0.19976182E-01 0.45490873E+03</pdfrwt>
<pdfrwt beam="2">  1       21 0.56009055E-01 0.45490873E+03</pdfrwt>
<totfact> 0.64159139E+04</totfact>
</mgrwt>
</event>
<event>
 7    0  0.4705418E-002  0.4513720E+03  0.7546771E-02  0.1027314E+00
         21   -1    0    0  502  501  0.00000000000E+00  0.00000000000E+00  0.42904008539E+03  0.42904008539E+03  0.00000000000E+00 0. -1.
         21   -1    0    0  501  502 -0.00000000000E+00 -0.00000000000E+00 -0.11871656815E+03  0.11871656815E+03  0.00000000000E+00 0. -1.
      99926    2    1    2    0    0  0.00000000000E+00  0.71054273576E-14  0.31032351724E+03  0.54775665354E+03  0.45137198201E+03 0.  0.
      99925    2    3    3    0    0 -0.65884623444E+02  0.36846353022E+02  0.99144650452E+02  0.29096401499E+03  0.26292957036E+03 0.  0.
         25    1    4    4    0    0 -0.59477979446E+02  0.48883004065E+02  0.42035865044E+02  0.15277990763E+03  0.12509000000E+03 0.  0.
         25    1    4    4    0    0 -0.64066439976E+01 -0.12036651042E+02  0.57108785408E+02  0.13818410736E+03  0.12509000000E+03 0.  0.
         25    1    3    3    0    0  0.65884623444E+02 -0.36846353022E+02  0.21117886679E+03  0.25679263856E+03  0.12509000000E+03 0.  0.
<mgrwt>
<rscale>  2 0.45137198E+03</rscale>
<asrwt>0</asrwt>
<pdfrwt beam="1">  1       21 0.63094130E-01 0.45137198E+03</pdfrwt>
<pdfrwt beam="2">  1       21 0.17458319E-01 0.45137198E+03</pdfrwt>
<totfact> 0.63827593E+04</totfact>
</mgrwt>
</event>
<event>
 7    0  0.4705418E-002  0.4672073E+03  0.7546771E-02  0.1022711E+00
         21   -1    0    0  502  501  0.00000000000E+00  0.00000000000E+00  0.34441618579E+03  0.34441618579E+03  0.00000000000E+00 0. -1.
         21   -1    0    0  501  502 -0.00000000000E+00 -0.00000000000E+00 -0.15844393722E+03  0.15844393722E+03  0.00000000000E+00 0. -1.
      99926    2    1    2    0    0  0.00000000000E+00  0.00000000000E+00  0.18597224857E+03  0.50286012302E+03  0.46720726245E+03 0.  0.
      99925    2    3    3    0    0  0.10379039167E+03 -0.42632157145E+02  0.17361102323E+03  0.33436604532E+03  0.26281156492E+03 0.  0.
         25    1    4    4    0    0  0.24076830906E+02 -0.47263247954E+02  0.10004360038E+03  0.16872977944E+03  0.12509000000E+03 0.  0.
         25    1    4    4    0    0  0.79713560760E+02  0.46310908092E+01  0.73567422842E+02  0.16563626588E+03  0.12509000000E+03 0.  0.
         25    1    3    3    0    0 -0.10379039167E+03  0.42632157145E+02  0.12361225341E+02  0.16849407769E+03  0.12509000000E+03 0.  0.
<mgrwt>
<rscale>  2 0.46720726E+03</rscale>
<asrwt>0</asrwt>
<pdfrwt beam="1">  1       21 0.50649439E-01 0.46720726E+03</pdfrwt>
<pdfrwt beam="2">  1       21 0.23300579E-01 0.46720726E+03</pdfrwt>
<totfact> 0.59129109E+04</totfact>
</mgrwt>
</event>
<event>
 7    0  0.4705418E-002  0.4525859E+03  0.7546771E-02  0.1026954E+00
         21   -1    0    0  502  501  0.00000000000E+00  0.00000000000E+00  0.21699214910E+02  0.21699214910E+02  0.00000000000E+00 0. -1.
         21   -1    0    0  501  502 -0.00000000000E+00 -0.00000000000E+00 -0.23599237218E+04  0.23599237218E+04  0.00000000000E+00 0. -1.
      99926    2    1    2    0    0  0.00000000000E+00  0.00000000000E+00 -0.23382245069E+04  0.23816229367E+04  0.45258586814E+03 0.  0.
      99925    2    3    3    0    0 -0.11955222495E+02  0.86637438612E+01 -0.20528844859E+04  0.20697184266E+04  0.26302407640E+03 0.  0.
         25    1    4    4    0    0 -0.11762970706E+02 -0.33286668974E+02 -0.90767407728E+03  0.91693299018E+03  0.12509000000E+03 0.  0.
         25    1    3    3    0    0  0.11955222495E+02 -0.86637438612E+01 -0.28534002090E+03  0.31190451012E+03  0.12509000000E+03 0.  0.
         25    1    4    4    0    0 -0.19225178900E+00  0.41950412835E+02 -0.11452104087E+04  0.11527854364E+04  0.12509000000E+03 0.  0.
<mgrwt>
<rscale>  2 0.45258587E+03</rscale>
<asrwt>0</asrwt>
<pdfrwt beam="1">  1       21 0.31910639E-02 0.45258587E+03</pdfrwt>
<pdfrwt beam="2">  1       21 0.34704729E+00 0.45258587E+03</pdfrwt>
<totfact> 0.85798654E+03</totfact>
</mgrwt>
</event>
<event>
 7    0  0.4705418E-002  0.4571577E+03  0.7546771E-02  0.1025609E+00
         21   -1    0    0  502  501  0.00000000000E+00  0.00000000000E+00  0.13125189708E+03  0.13125189708E+03  0.00000000000E+00 0. -1.
         21   -1    0    0  501  502 -0.00000000000E+00 -0.00000000000E+00 -0.39807647112E+03  0.39807647112E+03  0.00000000000E+00 0. -1.
      99926    2    1    2    0    0  0.14210854715E-13  0.00000000000E+00 -0.26682457404E+03  0.52932836820E+03  0.45715770590E+03 0.  0.
      99925    2    3    3    0    0  0.73840548163E+02  0.26323454665E+02 -0.69879205557E+02  0.28319763650E+03  0.26300655340E+03 0.  0.
         25    1    4    4    0    0  0.54794955438E+00 -0.83112510874E+01 -0.33343458428E+02  0.12972536939E+03  0.12509000000E+03 0.  0.
         25    1    4    4    0    0  0.73292598609E+02  0.34634705753E+02 -0.36535747129E+02  0.15347226711E+03  0.12509000000E+03 0.  0.
         25    1    3    3    0    0 -0.73840548163E+02 -0.26323454665E+02 -0.19694536848E+03  0.24613073170E+03  0.12509000000E+03 0.  0.
<mgrwt>
<rscale>  2 0.45715771E+03</rscale>
<asrwt>0</asrwt>
<pdfrwt beam="1">  1       21 0.19301749E-01 0.45715771E+03</pdfrwt>
<pdfrwt beam="2">  1       21 0.58540658E-01 0.45715771E+03</pdfrwt>
<totfact> 0.62181708E+04</totfact>
</mgrwt>
</event>
<event>
 7    0  0.4705418E-002  0.4464546E+03  0.7546771E-02  0.1028785E+00
         21   -1    0    0  502  501  0.00000000000E+00  0.00000000000E+00  0.74211964984E+02  0.74211964984E+02  0.00000000000E+00 0.  1.
         21   -1    0    0  501  502 -0.00000000000E+00 -0.00000000000E+00 -0.67146076140E+03  0.67146076140E+03  0.00000000000E+00 0.  1.
      99926    2    1    2    0    0  0.14210854715E-13  0.17763568394E-14 -0.59724879641E+03  0.74567272638E+03  0.44645457782E+03 0.  0.
      99925    2    3    3    0    0 -0.64970145308E+02 -0.10262956921E+02 -0.51542811740E+03  0.58236755292E+03  0.26298169978E+03 0.  0.
         25    1    4    4    0    0 -0.72346681589E+02 -0.10070452666E+02 -0.30014473266E+03  0.33327139841E+03  0.12509000000E+03 0.  0.
         25    1    3    3    0    0  0.64970145308E+02  0.10262956921E+02 -0.81820679011E+02  0.16330517346E+03  0.12509000000E+03 0.  0.
         25    1    4    4    0    0  0.73765362809E+01 -0.19250425449E+00 -0.21528338474E+03  0.24909615451E+03  0.12509000000E+03 0.  0.
<mgrwt>
<rscale>  2 0.44645458E+03</rscale>
<asrwt>0</asrwt>
<pdfrwt beam="1">  1       21 0.10913525E-01 0.44645458E+03</pdfrwt>
<pdfrwt beam="2">  1       21 0.98744226E-01 0.44645458E+03</pdfrwt>
<totfact> 0.54031179E+04</totfact>
</mgrwt>
</event>
<event>
 7    0  0.4705418E-002  0.4486589E+03  0.7546771E-02  0.1028123E+00
         21   -1    0    0  502  501  0.00000000000E+00  0.00000000000E+00  0.13176751133E+04  0.13176751133E+04  0.00000000000E+00 0. -1.
         21   -1    0    0  501  502 -0.00000000000E+00 -0.00000000000E+00 -0.38191284861E+02  0.38191284861E+02  0.00000000000E+00 0. -1.
      99926    2    1    2    0    0  0.00000000000E+00  0.00000000000E+00  0.12794838284E+04  0.13558663981E+04  0.44865891546E+03 0.  0.
      99925    2    3    3    0    0  0.60098859773E+02  0.64231548237E+02  0.99392066601E+03  0.10319352441E+04  0.26320048053E+03 0.  0.
         25    1    4    4    0    0 -0.51348669302E+01  0.80752144131E+01  0.42969886263E+03  0.44763846639E+03  0.12509000000E+03 0.  0.
         25    1    4    4    0    0  0.65233726703E+02  0.56156333824E+02  0.56422180339E+03  0.58429677771E+03  0.12509000000E+03 0.  0.
         25    1    3    3    0    0 -0.60098859773E+02 -0.64231548237E+02  0.28556316239E+03  0.32393115403E+03  0.12509000000E+03 0.  0.
<mgrwt>
<rscale>  2 0.44865892E+03</rscale>
<asrwt>0</asrwt>
<pdfrwt beam="1">  1       21 0.19377572E+00 0.44865892E+03</pdfrwt>
<pdfrwt beam="2">  1       21 0.56163663E-02 0.44865892E+03</pdfrwt>
<totfact> 0.28932190E+04</totfact>
</mgrwt>
</event>
<event>
 7    0  0.4705418E-002  0.4539141E+03  0.7546771E-02  0.1026561E+00
         21   -1    0    0  502  501  0.00000000000E+00  0.00000000000E+00  0.12592931208E+03  0.12592931208E+03  0.00000000000E+00 0.  1.
         21   -1    0    0  501  502 -0.00000000000E+00 -0.00000000000E+00 -0.40903507894E+03  0.40903507894E+03  0.00000000000E+00 0.  1.
      99926    2    1    2    0    0  0.00000000000E+00 -0.71054273576E-14 -0.28310576686E+03  0.53496439101E+03  0.45391411569E+03 0.  0.
      99925    2    3    3    0    0  0.10259095820E+03  0.25668849484E+02 -0.13419532480E+03  0.31359225547E+03  0.26295992652E+03 0.  0.
         25    1    4    4    0    0  0.48982747201E+02  0.40771778225E+02 -0.35518724740E+02  0.14481275956E+03  0.12509000000E+03 0.  0.
         25    1    3    3    0    0 -0.10259095820E+03 -0.25668849484E+02 -0.14891044207E+03  0.22137213554E+03  0.12509000000E+03 0.  0.
         25    1    4    4    0    0  0.53608210997E+02 -0.15102928742E+02 -0.98676600056E+02  0.16877949592E+03  0.12509000000E+03 0.  0.
<mgrwt>
<rscale>  2 0.45391412E+03</rscale>
<asrwt>0</asrwt>
<pdfrwt beam="1">  1       21 0.18519016E-01 0.45391412E+03</pdfrwt>
<pdfrwt beam="2">  1       21 0.60152218E-01 0.45391412E+03</pdfrwt>
<totfact> 0.63414417E+04</totfact>
</mgrwt>
</event>
<event>
 7    0  0.4705418E-002  0.4610295E+03  0.7546771E-02  0.1024483E+00
         21   -1    0    0  502  501  0.00000000000E+00  0.00000000000E+00  0.74439925340E+03  0.74439925340E+03  0.00000000000E+00 0.  1.
         21   -1    0    0  501  502 -0.00000000000E+00 -0.00000000000E+00 -0.71382460799E+02  0.71382460799E+02  0.00000000000E+00 0.  1.
      99926    2    1    2    0    0  0.00000000000E+00  0.14210854715E-13  0.67301679260E+03  0.81578171420E+03  0.46102950242E+03 0.  0.
      99925    2    3    3    0    0  0.84769913251E+02 -0.67275742729E+02  0.50782820296E+03  0.58201528804E+03  0.26294552294E+03 0.  0.
         25    1    4    4    0    0  0.34683204502E+02  0.47526228209E+01  0.26489681387E+03  0.29503108683E+03  0.12509000000E+03 0.  0.
         25    1    3    3    0    0 -0.84769913251E+02  0.67275742729E+02  0.16518858964E+03  0.23376642616E+03  0.12509000000E+03 0.  0.
         25    1    4    4    0    0  0.50086708749E+02 -0.72028365550E+02  0.24293138909E+03  0.28698420121E+03  0.12509000000E+03 0.  0.
<mgrwt>
<rscale>  2 0.46102950E+03</rscale>
<asrwt>0</asrwt>
<pdfrwt beam="1">  1       21 0.10947047E+00 0.46102950E+03</pdfrwt>
<pdfrwt beam="2">  1       21 0.10497421E-01 0.46102950E+03</pdfrwt>
<totfact> 0.44850944E+04</totfact>
</mgrwt>
</event>
<event>
 7    0  0.4705418E-002  0.4558050E+03  0.7546771E-02  0.1026005E+00
         21   -1    0    0  502  501  0.00000000000E+00  0.00000000000E+00  0.33468210994E+02  0.33468210994E+02  0.00000000000E+00 0.  1.
         21   -1    0    0  501  502 -0.00000000000E+00 -0.00000000000E+00 -0.15519070368E+04  0.15519070368E+04  0.00000000000E+00 0.  1.
      99926    2    1    2    0    0 -0.35527136788E-14  0.00000000000E+00 -0.15184388258E+04  0.15853752478E+04  0.45580501161E+03 0.  0.
      99925    2    3    3    0    0  0.19812353927E+02 -0.48722054415E+02 -0.13062969769E+04  0.13335458609E+04  0.26299506325E+03 0.  0.
         25    1    3    3    0    0 -0.19812353927E+02  0.48722054415E+02 -0.21214184897E+03  0.25182938697E+03  0.12509000000E+03 0.  0.
         25    1    4    4    0    0  0.21560127613E+02 -0.63121827544E+02 -0.73273556744E+03  0.74632306953E+03  0.12509000000E+03 0.  0.
         25    1    4    4    0    0 -0.17477736856E+01  0.14399773129E+02 -0.57356140941E+03  0.58722279132E+03  0.12509000000E+03 0.  0.
<mgrwt>
<rscale>  2 0.45580501E+03</rscale>
<asrwt>0</asrwt>
<pdfrwt beam="1">  1       21 0.49217978E-02 0.45580501E+03</pdfrwt>
<pdfrwt beam="2">  1       21 0.22822153E+00 0.45580501E+03</pdfrwt>
<totfact> 0.21626549E+04</totfact>
</mgrwt>
</event>
<event>
 7    0  0.4705418E-002  0.4524143E+03  0.7546771E-02  0.1027005E+00
         21   -1    0    0  502  501  0.00000000000E+00  0.00000000000E+00  0.51636972705E+02  0.51636972705E+02  0.00000000000E+00 0.  1.
         21   -1    0    0  501  502 -0.00000000000E+00 -0.00000000000E+00 -0.99095050866E+03  0.99095050866E+03  0.00000000000E+00 0.  1.
      99926    2    1    2    0    0  0.00000000000E+00  0.88817841970E-15 -0.93931353596E+03  0.10425874814E+04  0.45241434269E+03 0.  0.
      99925    2    3    3    0    0  0.83175490165E+02 -0.66775838154E+01 -0.76019666387E+03  0.80872189122E+03  0.26300071727E+03 0.  0.
         25    1    4    4    0    0  0.56896243761E+02 -0.38448543490E+02 -0.35291750478E+03  0.38067538183E+03  0.12509000000E+03 0.  0.
         25    1    4    4    0    0  0.26279246404E+02  0.31770959674E+02 -0.40727915910E+03  0.42804650940E+03  0.12509000000E+03 0.  0.
         25    1    3    3    0    0 -0.83175490165E+02  0.66775838154E+01 -0.17911687208E+03  0.23386559015E+03  0.12509000000E+03 0.  0.
<mgrwt>
<rscale>  2 0.45241434E+03</rscale>
<asrwt>0</asrwt>
<pdfrwt beam="1">  1       21 0.75936728E-02 0.45241434E+03</pdfrwt>
<pdfrwt beam="2">  1       21 0.14572801E+00 0.45241434E+03</pdfrwt>
<totfact> 0.38318120E+04</totfact>
</mgrwt>
</event>
<event>
 7    0  0.4705418E-002  0.4518558E+03  0.7546771E-02  0.1027170E+00
         21   -1    0    0  502  501  0.00000000000E+00  0.00000000000E+00  0.27255942664E+02  0.27255942664E+02  0.00000000000E+00 0. -1.
         21   -1    0    0  501  502 -0.00000000000E+00 -0.00000000000E+00 -0.18727440708E+04  0.18727440708E+04  0.00000000000E+00 0. -1.
      99926    2    1    2    0    0  0.14210854715E-13  0.71054273576E-14 -0.18454881281E+04  0.19000000135E+04  0.45185575140E+03 0.  0.
      99925    2    3    3    0    0 -0.75200249929E+02 -0.38087746105E+02 -0.14629911250E+04  0.14888343297E+04  0.26301877404E+03 0.  0.
         25    1    4    4    0    0 -0.84368275926E+01 -0.16217632051E+02 -0.84527869164E+03  0.85467992038E+03  0.12509000000E+03 0.  0.
         25    1    4    4    0    0 -0.66763422337E+02 -0.21870114054E+02 -0.61771243331E+03  0.63415440928E+03  0.12509000000E+03 0.  0.
         25    1    3    3    0    0  0.75200249929E+02  0.38087746105E+02 -0.38249700320E+03  0.41116568381E+03  0.12509000000E+03 0.  0.
<mgrwt>
<rscale>  2 0.45185575E+03</rscale>
<asrwt>0</asrwt>
<pdfrwt beam="1">  1       21 0.40082257E-02 0.45185575E+03</pdfrwt>
<pdfrwt beam="2">  1       21 0.27540362E+00 0.45185575E+03</pdfrwt>
<totfact> 0.15793752E+04</totfact>
</mgrwt>
</event>
<event>
 7    0  0.4705418E-002  0.4439206E+03  0.7546771E-02  0.1029551E+00
         21   -1    0    0  502  501  0.00000000000E+00  0.00000000000E+00  0.27410263185E+03  0.27410263185E+03  0.00000000000E+00 0.  1.
         21   -1    0    0  501  502 -0.00000000000E+00 -0.00000000000E+00 -0.17973696783E+03  0.17973696783E+03  0.00000000000E+00 0.  1.
      99926    2    1    2    0    0  0.00000000000E+00 -0.14210854715E-13  0.94365664018E+02  0.45383959968E+03  0.44392060516E+03 0.  0.
      99925    2    3    3    0    0  0.70786322321E+02  0.72138393993E+02  0.76943785664E+02  0.29208150479E+03  0.26301446343E+03 0.  0.
         25    1    4    4    0    0  0.72994271283E+02  0.19917160751E+02  0.40280215803E+02  0.15164056455E+03  0.12509000000E+03 0.  0.
         25    1    3    3    0    0 -0.70786322321E+02 -0.72138393993E+02  0.17421878354E+02  0.16175809489E+03  0.12509000000E+03 0.  0.
         25    1    4    4    0    0 -0.22079489617E+01  0.52221233242E+02  0.36663569861E+02  0.14044094024E+03  0.12509000000E+03 0.  0.
<mgrwt>
<rscale>  2 0.44392061E+03</rscale>
<asrwt>0</asrwt>
<pdfrwt beam="1">  1       21 0.40309211E-01 0.44392061E+03</pdfrwt>
<pdfrwt beam="2">  1       21 0.26431907E-01 0.44392061E+03</pdfrwt>
<totfact> 0.75037804E+04</totfact>
</mgrwt>
</event>
<event>
 7    0  0.4705418E-002  0.4713534E+03  0.7546771E-02  0.1021539E+00
         21   -1    0    0  502  501  0.00000000000E+00  0.00000000000E+00  0.42062348036E+03  0.42062348036E+03  0.00000000000E+00 0. -1.
         21   -1    0    0  501  502 -0.00000000000E+00 -0.00000000000E+00 -0.13205043801E+03  0.13205043801E+03  0.00000000000E+00 0. -1.
      99926    2    1    2    0    0  0.00000000000E+00  0.00000000000E+00  0.28857304234E+03  0.55267391837E+03  0.47135343351E+03 0.  0.
      99925    2    3    3    0    0 -0.96041362790E+02  0.82445773014E+02  0.15869019077E+03  0.33235979697E+03  0.26317144439E+03 0.  0.
         25    1    3    3    0    0  0.96041362790E+02 -0.82445773014E+02  0.12988285157E+03  0.22031412140E+03  0.12509000000E+03 0.  0.
         25    1    4    4    0    0 -0.41778325348E+02  0.52385611940E+02  0.35790934457E+02  0.14634951280E+03  0.12509000000E+03 0.  0.
         25    1    4    4    0    0 -0.54263037443E+02  0.30060161075E+02  0.12289925631E+03  0.18601028417E+03  0.12509000000E+03 0.  0.
<mgrwt>
<rscale>  2 0.47135343E+03</rscale>
<asrwt>0</asrwt>
<pdfrwt beam="1">  1       21 0.61856394E-01 0.47135343E+03</pdfrwt>
<pdfrwt beam="2">  1       21 0.19419182E-01 0.47135343E+03</pdfrwt>
<totfact> 0.54311106E+04</totfact>
</mgrwt>
</event>
<event>
 7    0  0.4705418E-002  0.4555517E+03  0.7546771E-02  0.1026079E+00
         21   -1    0    0  502  501  0.00000000000E+00  0.00000000000E+00  0.29592179226E+03  0.29592179226E+03  0.00000000000E+00 0.  1.
         21   -1    0    0  501  502 -0.00000000000E+00 -0.00000000000E+00 -0.17532279262E+03  0.17532279262E+03  0.00000000000E+00 0.  1.
      99926    2    1    2    0    0 -0.14210854715E-13  0.88817841970E-15  0.12059899965E+03  0.47124458488E+03  0.45555168758E+03 0.  0.
      99925    2    3    3    0    0  0.11244427284E+03 -0.44670901227E+01  0.78436519978E+02  0.29778319960E+03  0.26430829898E+03 0.  0.
         25    1    3    3    0    0 -0.11244427284E+03  0.44670901227E+01  0.42162479671E+02  0.17346138527E+03  0.12509000000E+03 0.  0.
         25    1    4    4    0    0  0.88582908686E+02  0.28069815563E+02  0.41866850500E+02  0.16135422997E+03  0.12509000000E+03 0.  0.
         25    1    4    4    0    0  0.23861364156E+02 -0.32536905686E+02  0.36569669478E+02  0.13642896964E+03  0.12509000000E+03 0.  0.
<mgrwt>
<rscale>  2 0.45555169E+03</rscale>
<asrwt>0</asrwt>
<pdfrwt beam="1">  1       21 0.43517911E-01 0.45555169E+03</pdfrwt>
<pdfrwt beam="2">  1       21 0.25782764E-01 0.45555169E+03</pdfrwt>
<totfact> 0.67049322E+04</totfact>
</mgrwt>
</event>
<event>
 7    0  0.4705418E-002  0.4508466E+03  0.7546771E-02  0.1027470E+00
         21   -1    0    0  502  501  0.00000000000E+00  0.00000000000E+00  0.34568981897E+03  0.34568981897E+03  0.00000000000E+00 0. -1.
         21   -1    0    0  501  502 -0.00000000000E+00 -0.00000000000E+00 -0.14699788254E+03  0.14699788254E+03  0.00000000000E+00 0. -1.
      99926    2    1    2    0    0  0.00000000000E+00  0.00000000000E+00  0.19869193643E+03  0.49268770152E+03  0.45084663204E+03 0.  0.
      99925    2    3    3    0    0 -0.10378857049E+03  0.29855274352E+02  0.14333723818E+03  0.31840329174E+03  0.26300510940E+03 0.  0.
         25    1    3    3    0    0  0.10378857049E+03 -0.29855274352E+02  0.55354698253E+02  0.17428440977E+03  0.12509000000E+03 0.  0.
         25    1    4    4    0    0 -0.86992083676E+02  0.40309001236E+02  0.76130479704E+02  0.17503084369E+03  0.12509000000E+03 0.  0.
         25    1    4    4    0    0 -0.16796486818E+02 -0.10453726884E+02  0.67206758475E+02  0.14337244805E+03  0.12509000000E+03 0.  0.
<mgrwt>
<rscale>  2 0.45084663E+03</rscale>
<asrwt>0</asrwt>
<pdfrwt beam="1">  1       21 0.50836738E-01 0.45084663E+03</pdfrwt>
<pdfrwt beam="2">  1       21 0.21617336E-01 0.45084663E+03</pdfrwt>
<totfact> 0.68002116E+04</totfact>
</mgrwt>
</event>
<event>
 7    0  0.4705418E-002  0.4603615E+03  0.7546771E-02  0.1024676E+00
         21   -1    0    0  502  501  0.00000000000E+00  0.00000000000E+00  0.18260344763E+03  0.18260344763E+03  0.00000000000E+00 0. -1.
         21   -1    0    0  501  502 -0.00000000000E+00 -0.00000000000E+00 -0.29015429477E+03  0.29015429477E+03  0.00000000000E+00 0. -1.
      99926    2    1    2    0    0  0.00000000000E+00  0.00000000000E+00 -0.10755084714E+03  0.47275774239E+03  0.46036148652E+03 0.  0.
      99925    2    3    3    0    0 -0.10715862422E+03 -0.43338500613E+02 -0.42298734114E+02  0.29036656187E+03  0.26298737795E+03 0.  0.
         25    1    4    4    0    0 -0.94959304644E+02 -0.29978821807E+02 -0.11635724369E+02  0.16030875671E+03  0.12509000000E+03 0.  0.
         25    1    4    4    0    0 -0.12199319575E+02 -0.13359678807E+02 -0.30663009745E+02  0.13005780516E+03  0.12509000000E+03 0.  0.
         25    1    3    3    0    0  0.10715862422E+03  0.43338500613E+02 -0.65252113027E+02  0.18239118053E+03  0.12509000000E+03 0.  0.
<mgrwt>
<rscale>  2 0.46036149E+03</rscale>
<asrwt>0</asrwt>
<pdfrwt beam="1">  1       21 0.26853448E-01 0.46036149E+03</pdfrwt>
<pdfrwt beam="2">  1       21 0.42669749E-01 0.46036149E+03</pdfrwt>
<totfact> 0.64446380E+04</totfact>
</mgrwt>
</event>
<event>
 7    0  0.4705418E-002  0.4594377E+03  0.7546771E-02  0.1024944E+00
         21   -1    0    0  502  501  0.00000000000E+00  0.00000000000E+00  0.95819442780E+03  0.95819442780E+03  0.00000000000E+00 0. -1.
         21   -1    0    0  501  502 -0.00000000000E+00 -0.00000000000E+00 -0.55073102371E+02  0.55073102371E+02  0.00000000000E+00 0. -1.
      99926    2    1    2    0    0  0.00000000000E+00  0.00000000000E+00  0.90312132543E+03  0.10132675302E+04  0.45943765546E+03 0.  0.
      99925    2    3    3    0    0  0.17611596464E+02 -0.11577676902E+03  0.58295107503E+03  0.65012716349E+03  0.26290481976E+03 0.  0.
         25    1    3    3    0    0 -0.17611596464E+02  0.11577676902E+03  0.32017025040E+03  0.36314036669E+03  0.12509000000E+03 0.  0.
         25    1    4    4    0    0  0.21474408304E+02 -0.16347098579E+02  0.25923895135E+03  0.28910330307E+03  0.12509000000E+03 0.  0.
         25    1    4    4    0    0 -0.38628118397E+01 -0.99429670442E+02  0.32371212367E+03  0.36102386042E+03  0.12509000000E+03 0.  0.
<mgrwt>
<rscale>  2 0.45943766E+03</rscale>
<asrwt>0</asrwt>
<pdfrwt beam="1">  1       21 0.14091093E+00 0.45943766E+03</pdfrwt>
<pdfrwt beam="2">  1       21 0.80989862E-02 0.45943766E+03</pdfrwt>
<totfact> 0.37343771E+04</totfact>
</mgrwt>
</event>
<event>
 7    0  0.4705418E-002  0.4453946E+03  0.7546771E-02  0.1029104E+00
         21   -1    0    0  502  501  0.00000000000E+00  0.00000000000E+00  0.54077877481E+03  0.54077877481E+03  0.00000000000E+00 0.  1.
         21   -1    0    0  501  502 -0.00000000000E+00 -0.00000000000E+00 -0.91708622899E+02  0.91708622899E+02  0.00000000000E+00 0.  1.
      99926    2    1    2    0    0  0.00000000000E+00 -0.14210854715E-13  0.44907015191E+03  0.63248739771E+03  0.44539455197E+03 0.  0.
      99925    2    3    3    0    0 -0.25088771164E+02  0.70357253633E+02  0.38770861115E+03  0.47439775111E+03  0.26297465566E+03 0.  0.
         25    1    4    4    0    0  0.47582203658E+01 -0.27609193960E+01  0.18749261425E+03  0.22545787153E+03  0.12509000000E+03 0.  0.
         25    1    3    3    0    0  0.25088771164E+02 -0.70357253633E+02  0.61361540760E+02  0.15808964660E+03  0.12509000000E+03 0.  0.
         25    1    4    4    0    0 -0.29846991530E+02  0.73118173029E+02  0.20021599690E+03  0.24893987958E+03  0.12509000000E+03 0.  0.
<mgrwt>
<rscale>  2 0.44539455E+03</rscale>
<asrwt>0</asrwt>
<pdfrwt beam="1">  1       21 0.79526289E-01 0.44539455E+03</pdfrwt>
<pdfrwt beam="2">  1       21 0.13486562E-01 0.44539455E+03</pdfrwt>
<totfact> 0.61233884E+04</totfact>
</mgrwt>
</event>
<event>
 7    0  0.4705418E-002  0.4558061E+03  0.7546771E-02  0.1026005E+00
         21   -1    0    0  502  501  0.00000000000E+00  0.00000000000E+00  0.52192692517E+02  0.52192692517E+02  0.00000000000E+00 0. -1.
         21   -1    0    0  501  502 -0.00000000000E+00 -0.00000000000E+00 -0.99515481605E+03  0.99515481605E+03  0.00000000000E+00 0. -1.
      99926    2    1    2    0    0  0.00000000000E+00  0.00000000000E+00 -0.94296212353E+03  0.10473475086E+04  0.45580614002E+03 0.  0.
      99925    2    3    3    0    0  0.33980899550E+02  0.96795496696E+02 -0.70646766928E+03  0.76081443071E+03  0.26309306437E+03 0.  0.
         25    1    3    3    0    0 -0.33980899550E+02 -0.96795496696E+02 -0.23649445425E+03  0.28653307786E+03  0.12509000000E+03 0.  0.
         25    1    4    4    0    0  0.22386486294E+01  0.89349655175E+01 -0.28590753180E+03  0.31221061800E+03  0.12509000000E+03 0.  0.
         25    1    4    4    0    0  0.31742250920E+02  0.87860531179E+02 -0.42056013748E+03  0.44860381270E+03  0.12509000000E+03 0.  0.
<mgrwt>
<rscale>  2 0.45580614E+03</rscale>
<asrwt>0</asrwt>
<pdfrwt beam="1">  1       21 0.76753969E-02 0.45580614E+03</pdfrwt>
<pdfrwt beam="2">  1       21 0.14634628E+00 0.45580614E+03</pdfrwt>
<totfact> 0.37140618E+04</totfact>
</mgrwt>
</event>
<event>
 7    0  0.4705418E-002  0.4476224E+03  0.7546771E-02  0.1028433E+00
         21   -1    0    0  502  501  0.00000000000E+00  0.00000000000E+00  0.16189157471E+04  0.16189157471E+04  0.00000000000E+00 0.  1.
         21   -1    0    0  501  502 -0.00000000000E+00 -0.00000000000E+00 -0.30941352971E+02  0.30941352971E+02  0.00000000000E+00 0.  1.
      99926    2    1    2    0    0  0.35527136788E-14  0.00000000000E+00  0.15879743941E+04  0.16498571000E+04  0.44762235673E+03 0.  0.
      99925    2    3    3    0    0  0.22820509611E+02 -0.97591023277E+02  0.87722289272E+03  0.92125570812E+03  0.26295872825E+03 0.  0.
         25    1    3    3    0    0 -0.22820509611E+02  0.97591023277E+02  0.71075150139E+03  0.72860139192E+03  0.12509000000E+03 0.  0.
         25    1    4    4    0    0 -0.10445921625E+01 -0.88584120908E+02  0.45216348879E+03  0.47743854720E+03  0.12509000000E+03 0.  0.
         25    1    4    4    0    0  0.23865101773E+02 -0.90069023697E+01  0.42505940392E+03  0.44381716093E+03  0.12509000000E+03 0.  0.
<mgrwt>
<rscale>  2 0.44762236E+03</rscale>
<asrwt>0</asrwt>
<pdfrwt beam="1">  1       21 0.23807579E+00 0.44762236E+03</pdfrwt>
<pdfrwt beam="2">  1       21 0.45502001E-02 0.44762236E+03</pdfrwt>
<totfact> 0.21533597E+04</totfact>
</mgrwt>
</event>
<event>
 7    0  0.4705418E-002  0.4610441E+03  0.7546771E-02  0.1024479E+00
         21   -1    0    0  502  501  0.00000000000E+00  0.00000000000E+00  0.36218521153E+03  0.36218521153E+03  0.00000000000E+00 0.  1.
         21   -1    0    0  501  502 -0.00000000000E+00 -0.00000000000E+00 -0.14672163069E+03  0.14672163069E+03  0.00000000000E+00 0.  1.
      99926    2    1    2    0    0  0.00000000000E+00 -0.71054273576E-14  0.21546358084E+03  0.50890684222E+03  0.46104405363E+03 0.  0.
      99925    2    3    3    0    0  0.10231024921E+03 -0.38304994168E+02  0.18652801443E+03  0.34032619452E+03  0.26285843878E+03 0.  0.
         25    1    4    4    0    0  0.23579460027E+02  0.12007304296E+02  0.95595431388E+02  0.15964385642E+03  0.12509000000E+03 0.  0.
         25    1    3    3    0    0 -0.10231024921E+03  0.38304994168E+02  0.28935566406E+02  0.16858064769E+03  0.12509000000E+03 0.  0.
         25    1    4    4    0    0  0.78730789187E+02 -0.50312298464E+02  0.90932583043E+02  0.18068233810E+03  0.12509000000E+03 0.  0.
<mgrwt>
<rscale>  2 0.46104405E+03</rscale>
<asrwt>0</asrwt>
<pdfrwt beam="1">  1       21 0.53262531E-01 0.46104405E+03</pdfrwt>
<pdfrwt beam="2">  1       21 0.21576710E-01 0.46104405E+03</pdfrwt>
<totfact> 0.61638858E+04</totfact>
</mgrwt>
</event>
<event>
 7    0  0.4705418E-002  0.4467407E+03  0.7546771E-02  0.1028698E+00
         21   -1    0    0  502  501  0.00000000000E+00  0.00000000000E+00  0.78074217492E+03  0.78074217492E+03  0.00000000000E+00 0.  1.
         21   -1    0    0  501  502 -0.00000000000E+00 -0.00000000000E+00 -0.63906270060E+02  0.63906270060E+02  0.00000000000E+00 0.  1.
      99926    2    1    2    0    0  0.00000000000E+00  0.00000000000E+00  0.71683590486E+03  0.84464844498E+03  0.44674073142E+03 0.  0.
      99925    2    3    3    0    0 -0.90806489998E+02  0.24322417432E+02  0.36520905818E+03  0.45977658836E+03  0.26301987835E+03 0.  0.
         25    1    4    4    0    0 -0.87939605819E+02  0.14782810947E+02  0.19215948821E+03  0.24601764730E+03  0.12509000000E+03 0.  0.
         25    1    4    4    0    0 -0.28668841796E+01  0.95396064855E+01  0.17304956997E+03  0.21375894106E+03  0.12509000000E+03 0.  0.
         25    1    3    3    0    0  0.90806489998E+02 -0.24322417432E+02  0.35162684668E+03  0.38487185662E+03  0.12509000000E+03 0.  0.
<mgrwt>
<rscale>  2 0.44674073E+03</rscale>
<asrwt>0</asrwt>
<pdfrwt beam="1">  1       21 0.11481502E+00 0.44674073E+03</pdfrwt>
<pdfrwt beam="2">  1       21 0.93979813E-02 0.44674073E+03</pdfrwt>
<totfact> 0.48763295E+04</totfact>
</mgrwt>
</event>
<event>
 7    0  0.4705418E-002  0.4503636E+03  0.7546771E-02  0.1027614E+00
         21   -1    0    0  502  501  0.00000000000E+00  0.00000000000E+00  0.16082811678E+03  0.16082811678E+03  0.00000000000E+00 0. -1.
         21   -1    0    0  501  502 -0.00000000000E+00 -0.00000000000E+00 -0.31528587508E+03  0.31528587508E+03  0.00000000000E+00 0. -1.
      99926    2    1    2    0    0  0.00000000000E+00  0.00000000000E+00 -0.15445775830E+03  0.47611399186E+03  0.45036355775E+03 0.  0.
      99925    2    3    3    0    0  0.96901176929E+02  0.39227021253E+02 -0.65992862551E+02  0.29063584445E+03  0.26303144087E+03 0.  0.
         25    1    3    3    0    0 -0.96901176929E+02 -0.39227021253E+02 -0.88464895751E+02  0.18547814741E+03  0.12509000000E+03 0.  0.
         25    1    4    4    0    0  0.40937787157E+02  0.82901590302E+01 -0.71551679890E+02  0.15003926203E+03  0.12509000000E+03 0.  0.
         25    1    4    4    0    0  0.55963389773E+02  0.30936862222E+02  0.55588173390E+01  0.14059658242E+03  0.12509000000E+03 0.  0.
<mgrwt>
<rscale>  2 0.45036356E+03</rscale>
<asrwt>0</asrwt>
<pdfrwt beam="1">  1       21 0.23651194E-01 0.45036356E+03</pdfrwt>
<pdfrwt beam="2">  1       21 0.46365569E-01 0.45036356E+03</pdfrwt>
<totfact> 0.69506922E+04</totfact>
</mgrwt>
</event>
<event>
 7    0  0.4705418E-002  0.4336916E+03  0.7546771E-02  0.1032700E+00
         21   -1    0    0  502  501  0.00000000000E+00  0.00000000000E+00  0.62678740876E+03  0.62678740876E+03  0.00000000000E+00 0.  1.
         21   -1    0    0  501  502 -0.00000000000E+00 -0.00000000000E+00 -0.75020829172E+02  0.75020829172E+02  0.00000000000E+00 0.  1.
      99926    2    1    2    0    0 -0.71054273576E-14 -0.71054273576E-14  0.55176657959E+03  0.70180823793E+03  0.43369164677E+03 0.  0.
      99925    2    3    3    0    0 -0.48092631970E+02 -0.37580473972E+02  0.46535342047E+03  0.53797925563E+03  0.26294995773E+03 0.  0.
         25    1    3    3    0    0  0.48092631970E+02  0.37580473972E+02  0.86413159117E+02  0.16382898230E+03  0.12509000000E+03 0.  0.
         25    1    4    4    0    0 -0.40670888269E+02 -0.54145089413E+02  0.27255477649E+03  0.30744011799E+03  0.12509000000E+03 0.  0.
         25    1    4    4    0    0 -0.74217437005E+01  0.16564615441E+02  0.19279864398E+03  0.23053913764E+03  0.12509000000E+03 0.  0.
<mgrwt>
<rscale>  2 0.43369165E+03</rscale>
<asrwt>0</asrwt>
<pdfrwt beam="1">  1       21 0.92174616E-01 0.43369165E+03</pdfrwt>
<pdfrwt beam="2">  1       21 0.11032475E-01 0.43369165E+03</pdfrwt>
<totfact> 0.62670820E+04</totfact>
</mgrwt>
</event>
<event>
 7    0  0.4705418E-002  0.4533511E+03  0.7546771E-02  0.1026727E+00
         21   -1    0    0  502  501  0.00000000000E+00  0.00000000000E+00  0.59506250574E+03  0.59506250574E+03  0.00000000000E+00 0. -1.
         21   -1    0    0  501  502 -0.00000000000E+00 -0.00000000000E+00 -0.86346903219E+02  0.86346903219E+02  0.00000000000E+00 0. -1.
      99926    2    1    2    0    0  0.00000000000E+00  0.00000000000E+00  0.50871560252E+03  0.68140940896E+03  0.45335109834E+03 0.  0.
      99925    2    3    3    0    0  0.51394852089E+02  0.47275585228E+02  0.19080718135E+03  0.33271228518E+03  0.26346474617E+03 0.  0.
         25    1    3    3    0    0 -0.51394852089E+02 -0.47275585228E+02  0.31790842117E+03  0.34869712378E+03  0.12509000000E+03 0.  0.
         25    1    4    4    0    0  0.41870502663E+02  0.18457654627E+02  0.14294298079E+03  0.19538174906E+03  0.12509000000E+03 0.  0.
         25    1    4    4    0    0  0.95243494265E+01  0.28817930601E+02  0.47864200558E+02  0.13733053612E+03  0.12509000000E+03 0.  0.
<mgrwt>
<rscale>  2 0.45335110E+03</rscale>
<asrwt>0</asrwt>
<pdfrwt beam="1">  1       21 0.87509190E-01 0.45335110E+03</pdfrwt>
<pdfrwt beam="2">  1       21 0.12698074E-01 0.45335110E+03</pdfrwt>
<totfact> 0.54630162E+04</totfact>
</mgrwt>
</event>
<event>
 7    0  0.4705418E-002  0.4477277E+03  0.7546771E-02  0.1028402E+00
         21   -1    0    0  502  501  0.00000000000E+00  0.00000000000E+00  0.14583430469E+03  0.14583430469E+03  0.00000000000E+00 0. -1.
         21   -1    0    0  501  502 -0.00000000000E+00 -0.00000000000E+00 -0.34364358046E+03  0.34364358046E+03  0.00000000000E+00 0. -1.
      99926    2    1    2    0    0  0.00000000000E+00 -0.35527136788E-14 -0.19780927578E+03  0.48947788515E+03  0.44772769678E+03 0.  0.
      99925    2    3    3    0    0 -0.22218747011E+02 -0.28119585225E+02 -0.16077099831E+02  0.26596395792E+03  0.26304746716E+03 0.  0.
         25    1    3    3    0    0  0.22218747011E+02  0.28119585225E+02 -0.18173217595E+03  0.22351392723E+03  0.12509000000E+03 0.  0.
         25    1    4    4    0    0 -0.24200453839E+02 -0.40401046196E+02  0.20077187656E+02  0.13516104492E+03  0.12509000000E+03 0.  0.
         25    1    4    4    0    0  0.19817068285E+01  0.12281460972E+02 -0.36154287488E+02  0.13080291300E+03  0.12509000000E+03 0.  0.
<mgrwt>
<rscale>  2 0.44772770E+03</rscale>
<asrwt>0</asrwt>
<pdfrwt beam="1">  1       21 0.21446221E-01 0.44772770E+03</pdfrwt>
<pdfrwt beam="2">  1       21 0.50535820E-01 0.44772770E+03</pdfrwt>
<totfact> 0.69969436E+04</totfact>
</mgrwt>
</event>
<event>
 7    0  0.4705418E-002  0.4507477E+03  0.7546771E-02  0.1027499E+00
         21   -1    0    0  502  501  0.00000000000E+00  0.00000000000E+00  0.10601439993E+03  0.10601439993E+03  0.00000000000E+00 0.  1.
         21   -1    0    0  501  502 -0.00000000000E+00 -0.00000000000E+00 -0.47911773815E+03  0.47911773815E+03  0.00000000000E+00 0.  1.
      99926    2    1    2    0    0  0.00000000000E+00  0.00000000000E+00 -0.37310333822E+03  0.58513213808E+03  0.45074773214E+03 0.  0.
      99925    2    3    3    0    0 -0.61872688851E+02 -0.33579321626E+02 -0.12736528091E+03  0.30054383654E+03  0.26296175090E+03 0.  0.
         25    1    3    3    0    0  0.61872688851E+02  0.33579321626E+02 -0.24573805731E+03  0.28458830154E+03  0.12509000000E+03 0.  0.
         25    1    4    4    0    0  0.15904968282E+01  0.84567281011E+01 -0.50598393640E+02  0.13521002725E+03  0.12509000000E+03 0.  0.
         25    1    4    4    0    0 -0.63463185679E+02 -0.42036049727E+02 -0.76766887267E+02  0.16533380929E+03  0.12509000000E+03 0.  0.
<mgrwt>
<rscale>  2 0.45074773E+03</rscale>
<asrwt>0</asrwt>
<pdfrwt beam="1">  1       21 0.15590353E-01 0.45074773E+03</pdfrwt>
<pdfrwt beam="2">  1       21 0.70458492E-01 0.45074773E+03</pdfrwt>
<totfact> 0.61649041E+04</totfact>
</mgrwt>
</event>
<event>
 7    0  0.4705418E-002  0.4517975E+03  0.7546771E-02  0.1027187E+00
         21   -1    0    0  502  501  0.00000000000E+00  0.00000000000E+00  0.85121088646E+02  0.85121088646E+02  0.00000000000E+00 0. -1.
         21   -1    0    0  501  502 -0.00000000000E+00 -0.00000000000E+00 -0.59950178417E+03  0.59950178417E+03  0.00000000000E+00 0. -1.
      99926    2    1    2    0    0  0.00000000000E+00  0.00000000000E+00 -0.51438069553E+03  0.68462287282E+03  0.45179749674E+03 0.  0.
      99925    2    3    3    0    0 -0.14401955007E+02 -0.10252612878E+02 -0.48939817434E+03  0.55584334477E+03  0.26294242431E+03 0.  0.
         25    1    3    3    0    0  0.14401955007E+02  0.10252612878E+02 -0.24982521184E+02  0.12877952805E+03  0.12509000000E+03 0.  0.
         25    1    4    4    0    0 -0.38515881789E+02  0.20362950535E+02 -0.24031197350E+03  0.27440021067E+03  0.12509000000E+03 0.  0.
         25    1    4    4    0    0  0.24113926782E+02 -0.30615563413E+02 -0.24908620084E+03  0.28144313411E+03  0.12509000000E+03 0.  0.
<mgrwt>
<rscale>  2 0.45179750E+03</rscale>
<asrwt>0</asrwt>
<pdfrwt beam="1">  1       21 0.12517807E-01 0.45179750E+03</pdfrwt>
<pdfrwt beam="2">  1       21 0.88162031E-01 0.45179750E+03</pdfrwt>
<totfact> 0.55122803E+04</totfact>
</mgrwt>
</event>
<event>
 7    0  0.4705418E-002  0.4611405E+03  0.7546771E-02  0.1024451E+00
         21   -1    0    0  502  501  0.00000000000E+00  0.00000000000E+00  0.52533820232E+03  0.52533820232E+03  0.00000000000E+00 0. -1.
         21   -1    0    0  501  502 -0.00000000000E+00 -0.00000000000E+00 -0.10119697227E+03  0.10119697227E+03  0.00000000000E+00 0. -1.
      99926    2    1    2    0    0  0.00000000000E+00  0.00000000000E+00  0.42414123006E+03  0.62653517459E+03  0.46114047965E+03 0.  0.
      99925    2    3    3    0    0 -0.71414590567E+02 -0.77470453863E+02  0.19053432518E+03  0.34136608602E+03  0.26291778306E+03 0.  0.
         25    1    4    4    0    0 -0.39997230479E+02 -0.42057844190E+02  0.48270968632E+02  0.14610350857E+03  0.12509000000E+03 0.  0.
         25    1    4    4    0    0 -0.31417360088E+02 -0.35412609673E+02  0.14226335654E+03  0.19526257745E+03  0.12509000000E+03 0.  0.
         25    1    3    3    0    0  0.71414590567E+02  0.77470453863E+02  0.23360690488E+03  0.28516908857E+03  0.12509000000E+03 0.  0.
<mgrwt>
<rscale>  2 0.46114048E+03</rscale>
<asrwt>0</asrwt>
<pdfrwt beam="1">  1       21 0.77255617E-01 0.46114048E+03</pdfrwt>
<pdfrwt beam="2">  1       21 0.14881908E-01 0.46114048E+03</pdfrwt>
<totfact> 0.54388818E+04</totfact>
</mgrwt>
</event>
<event>
 7    0  0.4705418E-002  0.4577058E+03  0.7546771E-02  0.1025449E+00
         21   -1    0    0  502  501  0.00000000000E+00  0.00000000000E+00  0.36845160649E+02  0.36845160649E+02  0.00000000000E+00 0.  1.
         21   -1    0    0  501  502 -0.00000000000E+00 -0.00000000000E+00 -0.14214527618E+04  0.14214527618E+04  0.00000000000E+00 0.  1.
      99926    2    1    2    0    0  0.00000000000E+00  0.00000000000E+00 -0.13846076012E+04  0.14582979225E+04  0.45770582415E+03 0.  0.
      99925    2    3    3    0    0 -0.89448471460E+02 -0.72494128894E+02 -0.82321672943E+03  0.87172853464E+03  0.26261840513E+03 0.  0.
         25    1    3    3    0    0  0.89448471460E+02  0.72494128894E+02 -0.56139087174E+03  0.58656938783E+03  0.12509000000E+03 0.  0.
         25    1    4    4    0    0 -0.78802879746E+02 -0.18398470797E+02 -0.46666561916E+03  0.48987009073E+03  0.12509000000E+03 0.  0.
         25    1    4    4    0    0 -0.10645591714E+02 -0.54095658097E+02 -0.35655111027E+03  0.38185844391E+03  0.12509000000E+03 0.  0.
<mgrwt>
<rscale>  2 0.45770582E+03</rscale>
<asrwt>0</asrwt>
<pdfrwt beam="1">  1       21 0.54184069E-02 0.45770582E+03</pdfrwt>
<pdfrwt beam="2">  1       21 0.20903713E+00 0.45770582E+03</pdfrwt>
<totfact> 0.24303989E+04</totfact>
</mgrwt>
</event>
<event>
 7    0  0.4705418E-002  0.4519088E+03  0.7546771E-02  0.1027154E+00
         21   -1    0    0  502  501  0.00000000000E+00  0.00000000000E+00  0.83627680005E+02  0.83627680005E+02  0.00000000000E+00 0. -1.
         21   -1    0    0  501  502 -0.00000000000E+00 -0.00000000000E+00 -0.61050837670E+03  0.61050837670E+03  0.00000000000E+00 0. -1.
      99926    2    1    2    0    0  0.00000000000E+00  0.00000000000E+00 -0.52688069670E+03  0.69413605671E+03  0.45190883668E+03 0.  0.
      99925    2    3    3    0    0 -0.90435972034E+02 -0.33173650726E+02 -0.41487933415E+03  0.50056186046E+03  0.26297938722E+03 0.  0.
         25    1    4    4    0    0 -0.48713155625E+02  0.17345073221E+02 -0.16372372077E+03  0.21243066619E+03  0.12509000000E+03 0.  0.
         25    1    4    4    0    0 -0.41722816409E+02 -0.50518723947E+02 -0.25115561338E+03  0.28813119427E+03  0.12509000000E+03 0.  0.
         25    1    3    3    0    0  0.90435972034E+02  0.33173650726E+02 -0.11200136255E+03  0.19357419625E+03  0.12509000000E+03 0.  0.
<mgrwt>
<rscale>  2 0.45190884E+03</rscale>
<asrwt>0</asrwt>
<pdfrwt beam="1">  1       21 0.12298188E-01 0.45190884E+03</pdfrwt>
<pdfrwt beam="2">  1       21 0.89780643E-01 0.45190884E+03</pdfrwt>
<totfact> 0.54537388E+04</totfact>
</mgrwt>
</event>
<event>
 7    0  0.4705418E-002  0.4609754E+03  0.7546771E-02  0.1024499E+00
         21   -1    0    0  502  501  0.00000000000E+00  0.00000000000E+00  0.69798097267E+02  0.69798097267E+02  0.00000000000E+00 0. -1.
         21   -1    0    0  501  502 -0.00000000000E+00 -0.00000000000E+00 -0.76111790566E+03  0.76111790566E+03  0.00000000000E+00 0. -1.
      99926    2    1    2    0    0 -0.14210854715E-13  0.71054273576E-14 -0.69131980839E+03  0.83091600292E+03  0.46097540763E+03 0.  0.
      99925    2    3    3    0    0  0.93516271808E+02 -0.33659708614E+02 -0.31563033710E+03  0.42266564345E+03  0.26295525736E+03 0.  0.
         25    1    4    4    0    0  0.65388358154E+01 -0.51227090729E+01 -0.15645576368E+03  0.20048668936E+03  0.12509000000E+03 0.  0.
         25    1    4    4    0    0  0.86977435993E+02 -0.28536999541E+02 -0.15917457342E+03  0.22217895409E+03  0.12509000000E+03 0.  0.
         25    1    3    3    0    0 -0.93516271808E+02  0.33659708614E+02 -0.37568947129E+03  0.40825035948E+03  0.12509000000E+03 0.  0.
<mgrwt>
<rscale>  2 0.46097541E+03</rscale>
<asrwt>0</asrwt>
<pdfrwt beam="1">  1       21 0.10264426E-01 0.46097541E+03</pdfrwt>
<pdfrwt beam="2">  1       21 0.11192911E+00 0.46097541E+03</pdfrwt>
<totfact> 0.44196697E+04</totfact>
</mgrwt>
</event>
<event>
 7    0  0.4705418E-002  0.4593006E+03  0.7546771E-02  0.1024984E+00
         21   -1    0    0  502  501  0.00000000000E+00  0.00000000000E+00  0.15163271466E+03  0.15163271466E+03  0.00000000000E+00 0. -1.
         21   -1    0    0  501  502 -0.00000000000E+00 -0.00000000000E+00 -0.34780919797E+03  0.34780919797E+03  0.00000000000E+00 0. -1.
      99926    2    1    2    0    0  0.00000000000E+00 -0.71054273576E-14 -0.19617648331E+03  0.49944191262E+03  0.45930056769E+03 0.  0.
      99925    2    3    3    0    0 -0.76387927429E+02 -0.61907870449E+02 -0.54595871794E+02  0.28646238887E+03  0.26346212468E+03 0.  0.
         25    1    4    4    0    0 -0.61822937399E+02 -0.43201008136E+02  0.44144715653E+01  0.14613486357E+03  0.12509000000E+03 0.  0.
         25    1    4    4    0    0 -0.14564990029E+02 -0.18706862313E+02 -0.59010343360E+02  0.14032752530E+03  0.12509000000E+03 0.  0.
         25    1    3    3    0    0  0.76387927429E+02  0.61907870449E+02 -0.14158061152E+03  0.21297952375E+03  0.12509000000E+03 0.  0.
<mgrwt>
<rscale>  2 0.45930057E+03</rscale>
<asrwt>0</asrwt>
<pdfrwt beam="1">  1       21 0.22298929E-01 0.45930057E+03</pdfrwt>
<pdfrwt beam="2">  1       21 0.51148411E-01 0.45930057E+03</pdfrwt>
<totfact> 0.63127076E+04</totfact>
</mgrwt>
</event>
<event>
 7    0  0.4705418E-002  0.4681402E+03  0.7546771E-02  0.1022446E+00
         21   -1    0    0  502  501  0.00000000000E+00  0.00000000000E+00  0.35269913499E+03  0.35269913499E+03  0.00000000000E+00 0.  1.
         21   -1    0    0  501  502 -0.00000000000E+00 -0.00000000000E+00 -0.15534147621E+03  0.15534147621E+03  0.00000000000E+00 0.  1.
      99926    2    1    2    0    0 -0.14210854715E-13  0.00000000000E+00  0.19735765878E+03  0.50804061120E+03  0.46814016828E+03 0.  0.
      99925    2    3    3    0    0  0.11895472635E+03 -0.17496637228E+02  0.15977963213E+03  0.33051321777E+03  0.26315983174E+03 0.  0.
         25    1    3    3    0    0 -0.11895472635E+03  0.17496637228E+02  0.37578026645E+02  0.17752739344E+03  0.12509000000E+03 0.  0.
         25    1    4    4    0    0  0.42893085623E+02  0.90406271596E+01  0.37017356775E+02  0.13762028388E+03  0.12509000000E+03 0.  0.
         25    1    4    4    0    0  0.76061640724E+02 -0.26537264388E+02  0.12276227536E+03  0.19289293388E+03  0.12509000000E+03 0.  0.
<mgrwt>
<rscale>  2 0.46814017E+03</rscale>
<asrwt>0</asrwt>
<pdfrwt beam="1">  1       21 0.51867520E-01 0.46814017E+03</pdfrwt>
<pdfrwt beam="2">  1       21 0.22844335E-01 0.46814017E+03</pdfrwt>
<totfact> 0.58378420E+04</totfact>
</mgrwt>
</event>
<event>
 6    0  0.4705418E-002  0.4525010E+03  0.7546771E-02  0.1026979E+00
         21   -1    0    0  502  501  0.00000000000E+00  0.00000000000E+00  0.22573667919E+02  0.22573667919E+02  0.00000000000E+00 0.  1.
         21   -1    0    0  501  502 -0.00000000000E+00 -0.00000000000E+00 -0.22676554011E+04  0.22676554011E+04  0.00000000000E+00 0.  1.
      99926    2    1    2    0    0  0.00000000000E+00  0.00000000000E+00 -0.22450817332E+04  0.22902290690E+04  0.45250104963E+03 0.  0.
         25    1    3    3    0    0  0.54298051970E+02  0.49235065020E+02 -0.71605255649E+03  0.73058274127E+03  0.12509000000E+03 0.  0.
         25    1    3    3    0    0 -0.10350710651E+03 -0.35744517229E+02 -0.99504706990E+03  0.10088397152E+04  0.12509000000E+03 0.  0.
         25    1    3    3    0    0  0.49209054544E+02 -0.13490547792E+02 -0.53398210677E+03  0.55080661251E+03  0.12509000000E+03 0.  0.
<mgrwt>
<rscale>  2 0.45250105E+03</rscale>
<asrwt>0</asrwt>
<pdfrwt beam="1">  1       21 0.33196566E-02 0.45250105E+03</pdfrwt>
<pdfrwt beam="2">  1       21 0.33347878E+00 0.45250105E+03</pdfrwt>
<totfact> 0.97107606E+03</totfact>
</mgrwt>
</event>
<event>
 7    0  0.4705418E-002  0.4555416E+03  0.7546771E-02  0.1026082E+00
         21   -1    0    0  502  501  0.00000000000E+00  0.00000000000E+00  0.52823107867E+02  0.52823107867E+02  0.00000000000E+00 0. -1.
         21   -1    0    0  501  502 -0.00000000000E+00 -0.00000000000E+00 -0.98213731122E+03  0.98213731122E+03  0.00000000000E+00 0. -1.
      99926    2    1    2    0    0  0.00000000000E+00  0.00000000000E+00 -0.92931420335E+03  0.10349604191E+04  0.45554163424E+03 0.  0.
      99925    2    3    3    0    0  0.75618600470E+02  0.81896280257E+02 -0.63542478176E+03  0.69666517277E+03  0.26296869817E+03 0.  0.
         25    1    4    4    0    0  0.43585903732E+02  0.81275063782E+00 -0.31940885664E+03  0.34578883350E+03  0.12509000000E+03 0.  0.
         25    1    3    3    0    0 -0.75618600470E+02 -0.81896280257E+02 -0.29388942160E+03  0.33829524632E+03  0.12509000000E+03 0.  0.
         25    1    4    4    0    0  0.32032696738E+02  0.81083529620E+02 -0.31601592511E+03  0.35087633927E+03  0.12509000000E+03 0.  0.
<mgrwt>
<rscale>  2 0.45554163E+03</rscale>
<asrwt>0</asrwt>
<pdfrwt beam="1">  1       21 0.77681044E-02 0.45554163E+03</pdfrwt>
<pdfrwt beam="2">  1       21 0.14443195E+00 0.45554163E+03</pdfrwt>
<totfact> 0.37674580E+04</totfact>
</mgrwt>
</event>
<event>
 7    0  0.4705418E-002  0.4553899E+03  0.7546771E-02  0.1026127E+00
         21   -1    0    0  502  501  0.00000000000E+00  0.00000000000E+00  0.64760757492E+02  0.64760757492E+02  0.00000000000E+00 0. -1.
         21   -1    0    0  501  502 -0.00000000000E+00 -0.00000000000E+00 -0.80056192526E+03  0.80056192526E+03  0.00000000000E+00 0. -1.
      99926    2    1    2    0    0  0.00000000000E+00  0.00000000000E+00 -0.73580116777E+03  0.86532268276E+03  0.45538992830E+03 0.  0.
      99925    2    3    3    0    0  0.16842152557E+02 -0.11037398298E+03 -0.50245186997E+03  0.57798059203E+03  0.26294031432E+03 0.  0.
         25    1    4    4    0    0  0.73183394303E+01 -0.47405585543E+02 -0.32636362420E+03  0.35279111516E+03  0.12509000000E+03 0.  0.
         25    1    3    3    0    0 -0.16842152557E+02  0.11037398298E+03 -0.23334929780E+03  0.28734209073E+03  0.12509000000E+03 0.  0.
         25    1    4    4    0    0  0.95238131265E+01 -0.62968397439E+02 -0.17608824577E+03  0.22518947687E+03  0.12509000000E+03 0.  0.
<mgrwt>
<rscale>  2 0.45538993E+03</rscale>
<asrwt>0</asrwt>
<pdfrwt beam="1">  1       21 0.95236420E-02 0.45538993E+03</pdfrwt>
<pdfrwt beam="2">  1       21 0.11772968E+00 0.45538993E+03</pdfrwt>
<totfact> 0.44624817E+04</totfact>
</mgrwt>
</event>
<event>
 7    0  0.4705418E-002  0.4601942E+03  0.7546771E-02  0.1024725E+00
         21   -1    0    0  502  501  0.00000000000E+00  0.00000000000E+00  0.15678350511E+03  0.15678350511E+03  0.00000000000E+00 0. -1.
         21   -1    0    0  501  502 -0.00000000000E+00 -0.00000000000E+00 -0.33769290629E+03  0.33769290629E+03  0.00000000000E+00 0. -1.
      99926    2    1    2    0    0  0.00000000000E+00  0.00000000000E+00 -0.18090940118E+03  0.49447641141E+03  0.46019420901E+03 0.  0.
      99925    2    3    3    0    0  0.35299314240E+02 -0.85882248375E+02 -0.35235199628E+02  0.28119189891E+03  0.26306950137E+03 0.  0.
         25    1    4    4    0    0 -0.18447461914E+02 -0.31979616103E+02  0.66225181900E+00  0.13042603795E+03  0.12509000000E+03 0.  0.
         25    1    4    4    0    0  0.53746776153E+02 -0.53902632272E+02 -0.35897451447E+02  0.15076586097E+03  0.12509000000E+03 0.  0.
         25    1    3    3    0    0 -0.35299314240E+02  0.85882248375E+02 -0.14567420155E+03  0.21328451249E+03  0.12509000000E+03 0.  0.
<mgrwt>
<rscale>  2 0.46019421E+03</rscale>
<asrwt>0</asrwt>
<pdfrwt beam="1">  1       21 0.23056398E-01 0.46019421E+03</pdfrwt>
<pdfrwt beam="2">  1       21 0.49660720E-01 0.46019421E+03</pdfrwt>
<totfact> 0.63021419E+04</totfact>
</mgrwt>
</event>
<event>
 7    0  0.4705418E-002  0.4472995E+03  0.7546771E-02  0.1028530E+00
         21   -1    0    0  502  501  0.00000000000E+00  0.00000000000E+00  0.28949229159E+03  0.28949229159E+03  0.00000000000E+00 0. -1.
         21   -1    0    0  501  502 -0.00000000000E+00 -0.00000000000E+00 -0.17278255873E+03  0.17278255873E+03  0.00000000000E+00 0. -1.
      99926    2    1    2    0    0 -0.17763568394E-14  0.00000000000E+00  0.11670973286E+03  0.46227485031E+03  0.44729953665E+03 0.  0.
      99925    2    3    3    0    0  0.15565396365E+02 -0.68242473714E+02  0.15601767767E+03  0.31364127602E+03  0.26292587832E+03 0.  0.
         25    1    3    3    0    0 -0.15565396365E+02  0.68242473714E+02 -0.39307944816E+02  0.14863357430E+03  0.12509000000E+03 0.  0.
         25    1    4    4    0    0 -0.28285048552E+02 -0.27626200123E+02  0.55741248374E+02  0.14254068112E+03  0.12509000000E+03 0.  0.
         25    1    4    4    0    0  0.43850444917E+02 -0.40616273591E+02  0.10027642930E+03  0.17110059489E+03  0.12509000000E+03 0.  0.
<mgrwt>
<rscale>  2 0.44729954E+03</rscale>
<asrwt>0</asrwt>
<pdfrwt beam="1">  1       21 0.42572396E-01 0.44729954E+03</pdfrwt>
<pdfrwt beam="2">  1       21 0.25409200E-01 0.44729954E+03</pdfrwt>
<totfact> 0.72333106E+04</totfact>
</mgrwt>
</event>
<event>
 7    0  0.4705418E-002  0.4502033E+03  0.7546771E-02  0.1027661E+00
         21   -1    0    0  502  501  0.00000000000E+00  0.00000000000E+00  0.61748619728E+03  0.61748619728E+03  0.00000000000E+00 0. -1.
         21   -1    0    0  501  502 -0.00000000000E+00 -0.00000000000E+00 -0.82059716131E+02  0.82059716131E+02  0.00000000000E+00 0. -1.
      99926    2    1    2    0    0  0.35527136788E-14  0.14210854715E-13  0.53542648115E+03  0.69954591341E+03  0.45020325216E+03 0.  0.
      99925    2    3    3    0    0  0.24794170518E+02  0.72076596253E+02  0.21807570022E+03  0.35001935809E+03  0.26295770267E+03 0.  0.
         25    1    3    3    0    0 -0.24794170518E+02 -0.72076596253E+02  0.31735078093E+03  0.34952655532E+03  0.12509000000E+03 0.  0.
         25    1    4    4    0    0  0.33005458762E+02  0.67931376772E+01  0.79040309796E+02  0.15175765450E+03  0.12509000000E+03 0.  0.
         25    1    4    4    0    0 -0.82112882443E+01  0.65283458576E+02  0.13903539043E+03  0.19826170359E+03  0.12509000000E+03 0.  0.
<mgrwt>
<rscale>  2 0.45020325E+03</rscale>
<asrwt>0</asrwt>
<pdfrwt beam="1">  1       21 0.90806791E-01 0.45020325E+03</pdfrwt>
<pdfrwt beam="2">  1       21 0.12067606E-01 0.45020325E+03</pdfrwt>
<totfact> 0.54973636E+04</totfact>
</mgrwt>
</event>
<event>
 7    0  0.4705418E-002  0.4832423E+03  0.7546771E-02  0.1018248E+00
         21   -1    0    0  502  501  0.00000000000E+00  0.00000000000E+00  0.78863724103E+03  0.78863724103E+03  0.00000000000E+00 0.  1.
         21   -1    0    0  501  502 -0.00000000000E+00 -0.00000000000E+00 -0.74027405471E+02  0.74027405471E+02  0.00000000000E+00 0.  1.
      99926    2    1    2    0    0  0.00000000000E+00  0.00000000000E+00  0.71460983556E+03  0.86266464650E+03  0.48324225316E+03 0.  0.
      99925    2    3    3    0    0  0.57878500570E+02  0.10168029575E+03  0.56970455610E+03  0.63831257611E+03  0.26304155605E+03 0.  0.
         25    1    4    4    0    0  0.45247461129E+02  0.34371478815E+02  0.20564488805E+03  0.24731772960E+03  0.12509000000E+03 0.  0.
         25    1    3    3    0    0 -0.57878500570E+02 -0.10168029575E+03  0.14490527946E+03  0.22435207039E+03  0.12509000000E+03 0.  0.
         25    1    4    4    0    0  0.12631039441E+02  0.67308816938E+02  0.36405966805E+03  0.39099484651E+03  0.12509000000E+03 0.  0.
<mgrwt>
<rscale>  2 0.48324225E+03</rscale>
<asrwt>0</asrwt>
<pdfrwt beam="1">  1       21 0.11597606E+00 0.48324225E+03</pdfrwt>
<pdfrwt beam="2">  1       21 0.10886384E-01 0.48324225E+03</pdfrwt>
<totfact> 0.36173322E+04</totfact>
</mgrwt>
</event>
<event>
 7    0  0.4705418E-002  0.4621338E+03  0.7546771E-02  0.1024164E+00
         21   -1    0    0  502  501  0.00000000000E+00  0.00000000000E+00  0.44513767646E+03  0.44513767646E+03  0.00000000000E+00 0. -1.
         21   -1    0    0  501  502 -0.00000000000E+00 -0.00000000000E+00 -0.11994469081E+03  0.11994469081E+03  0.00000000000E+00 0. -1.
      99926    2    1    2    0    0  0.00000000000E+00  0.00000000000E+00  0.32519298566E+03  0.56508236727E+03  0.46213375107E+03 0.  0.
      99925    2    3    3    0    0 -0.79444150136E+02  0.81344798844E+02  0.15759861171E+03  0.32704091800E+03  0.26304009265E+03 0.  0.
         25    1    4    4    0    0 -0.63868350417E+02  0.68057610554E+02  0.60573328690E+02  0.16741457758E+03  0.12509000000E+03 0.  0.
         25    1    4    4    0    0 -0.15575799719E+02  0.13287188290E+02  0.97025283016E+02  0.15962634041E+03  0.12509000000E+03 0.  0.
         25    1    3    3    0    0  0.79444150136E+02 -0.81344798844E+02  0.16759437395E+03  0.23804144927E+03  0.12509000000E+03 0.  0.
<mgrwt>
<rscale>  2 0.46213375E+03</rscale>
<asrwt>0</asrwt>
<pdfrwt beam="1">  1       21 0.65461422E-01 0.46213375E+03</pdfrwt>
<pdfrwt beam="2">  1       21 0.17638925E-01 0.46213375E+03</pdfrwt>
<totfact> 0.57563539E+04</totfact>
</mgrwt>
</event>
<event>
 7    0  0.4705418E-002  0.4485217E+03  0.7546771E-02  0.1028164E+00
         21   -1    0    0  502  501  0.00000000000E+00  0.00000000000E+00  0.84811489045E+03  0.84811489045E+03  0.00000000000E+00 0. -1.
         21   -1    0    0  501  502 -0.00000000000E+00 -0.00000000000E+00 -0.59299657821E+02  0.59299657821E+02  0.00000000000E+00 0. -1.
      99926    2    1    2    0    0  0.00000000000E+00 -0.71054273576E-14  0.78881523263E+03  0.90741454827E+03  0.44852167304E+03 0.  0.
      99925    2    3    3    0    0 -0.12001015851E+02 -0.50768855952E+02  0.68879759985E+03  0.73897305670E+03  0.26252151122E+03 0.  0.
         25    1    4    4    0    0 -0.32913068937E+02 -0.20645068279E+01  0.28641518522E+03  0.31427487765E+03  0.12509000000E+03 0.  0.
         25    1    3    3    0    0  0.12001015851E+02  0.50768855952E+02  0.10001763278E+03  0.16844149157E+03  0.12509000000E+03 0.  0.
         25    1    4    4    0    0  0.20912053086E+02 -0.48704349124E+02  0.40238241463E+03  0.42469817905E+03  0.12509000000E+03 0.  0.
<mgrwt>
<rscale>  2 0.44852167E+03</rscale>
<asrwt>0</asrwt>
<pdfrwt beam="1">  1       21 0.12472277E+00 0.44852167E+03</pdfrwt>
<pdfrwt beam="2">  1       21 0.87205384E-02 0.44852167E+03</pdfrwt>
<totfact> 0.45160974E+04</totfact>
</mgrwt>
</event>
<event>
 7    0  0.4705418E-002  0.4508193E+03  0.7546771E-02  0.1027478E+00
         21   -1    0    0  502  501  0.00000000000E+00  0.00000000000E+00  0.26881171919E+03  0.26881171919E+03  0.00000000000E+00 0. -1.
         21   -1    0    0  501  502 -0.00000000000E+00 -0.00000000000E+00 -0.18901519391E+03  0.18901519391E+03  0.00000000000E+00 0. -1.
      99926    2    1    2    0    0  0.71054273576E-14  0.88817841970E-15  0.79796525284E+02  0.45782691310E+03  0.45081925082E+03 0.  0.
      99925    2    3    3    0    0 -0.57292907633E+02 -0.68509900966E+01  0.14449299624E+03  0.30563442056E+03  0.26306797551E+03 0.  0.
         25    1    4    4    0    0 -0.27094828860E+02  0.29589284640E+02  0.44699968854E+02  0.13876329065E+03  0.12509000000E+03 0.  0.
         25    1    3    3    0    0  0.57292907633E+02  0.68509900966E+01 -0.64696470952E+02  0.15219249253E+03  0.12509000000E+03 0.  0.
         25    1    4    4    0    0 -0.30198078772E+02 -0.36440274736E+02  0.99793027383E+02  0.16687112991E+03  0.12509000000E+03 0.  0.
<mgrwt>
<rscale>  2 0.45081925E+03</rscale>
<asrwt>0</asrwt>
<pdfrwt beam="1">  1       21 0.39531135E-01 0.45081925E+03</pdfrwt>
<pdfrwt beam="2">  1       21 0.27796352E-01 0.45081925E+03</pdfrwt>
<totfact> 0.70665390E+04</totfact>
</mgrwt>
</event>
<event>
 7    0  0.4705418E-002  0.4541519E+03  0.7546771E-02  0.1026491E+00
         21   -1    0    0  502  501  0.00000000000E+00  0.00000000000E+00  0.18996684982E+04  0.18996684982E+04  0.00000000000E+00 0.  1.
         21   -1    0    0  501  502 -0.00000000000E+00 -0.00000000000E+00 -0.27143412358E+02  0.27143412358E+02  0.00000000000E+00 0.  1.
      99926    2    1    2    0    0  0.00000000000E+00  0.35527136788E-14  0.18725250858E+04  0.19268119105E+04  0.45415189261E+03 0.  0.
      99925    2    3    3    0    0  0.10317012917E+02  0.31092172097E+02  0.72410324246E+03  0.77113314794E+03  0.26314950538E+03 0.  0.
         25    1    4    4    0    0 -0.21037879126E+01 -0.70875750720E+01  0.45082992977E+03  0.46792071265E+03  0.12509000000E+03 0.  0.
         25    1    3    3    0    0 -0.10317012917E+02 -0.31092172097E+02  0.11484218434E+04  0.11556787626E+04  0.12509000000E+03 0.  0.
         25    1    4    4    0    0  0.12420800830E+02  0.38179747169E+02  0.27327331269E+03  0.30321243529E+03  0.12509000000E+03 0.  0.
<mgrwt>
<rscale>  2 0.45415189E+03</rscale>
<asrwt>0</asrwt>
<pdfrwt beam="1">  1       21 0.27936292E+00 0.45415189E+03</pdfrwt>
<pdfrwt beam="2">  1       21 0.39916796E-02 0.45415189E+03</pdfrwt>
<totfact> 0.15040479E+04</totfact>
</mgrwt>
</event>
<event>
 7    0  0.4705418E-002  0.4597535E+03  0.7546771E-02  0.1024853E+00
         21   -1    0    0  502  501  0.00000000000E+00  0.00000000000E+00  0.11674390969E+03  0.11674390969E+03  0.00000000000E+00 0.  1.
         21   -1    0    0  501  502 -0.00000000000E+00 -0.00000000000E+00 -0.45264301235E+03  0.45264301235E+03  0.00000000000E+00 0.  1.
      99926    2    1    2    0    0  0.00000000000E+00  0.00000000000E+00 -0.33589910267E+03  0.56938692204E+03  0.45975347722E+03 0.  0.
      99925    2    3    3    0    0  0.85431316370E+01 -0.11688001311E+03 -0.22239072597E+03  0.36380097348E+03  0.26298211108E+03 0.  0.
         25    1    3    3    0    0 -0.85431316370E+01  0.11688001311E+03 -0.11350837670E+03  0.20558594856E+03  0.12509000000E+03 0.  0.
         25    1    4    4    0    0 -0.21609762647E+02 -0.29638735290E+02 -0.79747634905E+02  0.15281567277E+03  0.12509000000E+03 0.  0.
         25    1    4    4    0    0  0.30152894284E+02 -0.87241277818E+02 -0.14264309106E+03  0.21098530071E+03  0.12509000000E+03 0.  0.
<mgrwt>
<rscale>  2 0.45975348E+03</rscale>
<asrwt>0</asrwt>
<pdfrwt beam="1">  1       21 0.17168222E-01 0.45975348E+03</pdfrwt>
<pdfrwt beam="2">  1       21 0.66565147E-01 0.45975348E+03</pdfrwt>
<totfact> 0.58377689E+04</totfact>
</mgrwt>
</event>
<event>
 7    0  0.4705418E-002  0.4640466E+03  0.7546771E-02  0.1023614E+00
         21   -1    0    0  502  501  0.00000000000E+00  0.00000000000E+00  0.28423551903E+03  0.28423551903E+03  0.00000000000E+00 0. -1.
         21   -1    0    0  501  502 -0.00000000000E+00 -0.00000000000E+00 -0.18940214203E+03  0.18940214203E+03  0.00000000000E+00 0. -1.
      99926    2    1    2    0    0 -0.71054273576E-14 -0.14210854715E-13  0.94833377001E+02  0.47363766106E+03  0.46404661898E+03 0.  0.
      99925    2    3    3    0    0  0.36702220626E+02 -0.78246064252E+02  0.14637674139E+03  0.31309568499E+03  0.26293204059E+03 0.  0.
         25    1    4    4    0    0  0.46012343306E+02 -0.50152686965E+02  0.44880016569E+02  0.14931226250E+03  0.12509000000E+03 0.  0.
         25    1    4    4    0    0 -0.93101226793E+01 -0.28093377287E+02  0.10149672482E+03  0.16378342248E+03  0.12509000000E+03 0.  0.
         25    1    3    3    0    0 -0.36702220626E+02  0.78246064252E+02 -0.51543364387E+02  0.16054197608E+03  0.12509000000E+03 0.  0.
<mgrwt>
<rscale>  2 0.46404662E+03</rscale>
<asrwt>0</asrwt>
<pdfrwt beam="1">  1       21 0.41799341E-01 0.46404662E+03</pdfrwt>
<pdfrwt beam="2">  1       21 0.27853256E-01 0.46404662E+03</pdfrwt>
<totfact> 0.62553006E+04</totfact>
</mgrwt>
</event>
<event>
 7    0  0.4705418E-002  0.4458679E+03  0.7546771E-02  0.1028961E+00
         21   -1    0    0  502  501  0.00000000000E+00  0.00000000000E+00  0.18378167429E+03  0.18378167429E+03  0.00000000000E+00 0.  1.
         21   -1    0    0  501  502 -0.00000000000E+00 -0.00000000000E+00 -0.27042705312E+03  0.27042705312E+03  0.00000000000E+00 0.  1.
      99926    2    1    2    0    0  0.00000000000E+00  0.00000000000E+00 -0.86645378825E+02  0.45420872741E+03  0.44586785754E+03 0.  0.
      99925    2    3    3    0    0 -0.70559497578E+01 -0.69467328701E+02  0.23808093230E+02  0.27331380274E+03  0.26316936235E+03 0.  0.
         25    1    4    4    0    0 -0.24675104325E+02 -0.24675040930E+02 -0.21907255540E+02  0.13170100365E+03  0.12509000000E+03 0.  0.
         25    1    3    3    0    0  0.70559497578E+01  0.69467328701E+02 -0.11045347206E+03  0.18089492467E+03  0.12509000000E+03 0.  0.
         25    1    4    4    0    0  0.17619154567E+02 -0.44792287771E+02  0.45715348770E+02  0.14161279908E+03  0.12509000000E+03 0.  0.
<mgrwt>
<rscale>  2 0.44586786E+03</rscale>
<asrwt>0</asrwt>
<pdfrwt beam="1">  1       21 0.27026717E-01 0.44586786E+03</pdfrwt>
<pdfrwt beam="2">  1       21 0.39768684E-01 0.44586786E+03</pdfrwt>
<totfact> 0.73834274E+04</totfact>
</mgrwt>
</event>
<event>
 7    0  0.4705418E-002  0.4546343E+03  0.7546771E-02  0.1026349E+00
         21   -1    0    0  502  501  0.00000000000E+00  0.00000000000E+00  0.43057159799E+03  0.43057159799E+03  0.00000000000E+00 0. -1.
         21   -1    0    0  501  502 -0.00000000000E+00 -0.00000000000E+00 -0.12001041623E+03  0.12001041623E+03  0.00000000000E+00 0. -1.
      99926    2    1    2    0    0  0.00000000000E+00  0.00000000000E+00  0.31056118176E+03  0.55058201421E+03  0.45463425603E+03 0.  0.
      99925    2    3    3    0    0 -0.91005076770E+02 -0.56015398442E+02  0.15030010023E+03  0.32090665373E+03  0.26262389727E+03 0.  0.
         25    1    4    4    0    0 -0.61880650225E+02  0.53433527655E+01  0.57788222528E+02  0.15114480823E+03  0.12509000000E+03 0.  0.
         25    1    3    3    0    0  0.91005076770E+02  0.56015398442E+02  0.16026108153E+03  0.22967536048E+03  0.12509000000E+03 0.  0.
         25    1    4    4    0    0 -0.29124426545E+02 -0.61358751208E+02  0.92511877703E+02  0.16976184550E+03  0.12509000000E+03 0.  0.
<mgrwt>
<rscale>  2 0.45463426E+03</rscale>
<asrwt>0</asrwt>
<pdfrwt beam="1">  1       21 0.63319352E-01 0.45463426E+03</pdfrwt>
<pdfrwt beam="2">  1       21 0.17648591E-01 0.45463426E+03</pdfrwt>
<totfact> 0.62007303E+04</totfact>
</mgrwt>
</event>
<event>
 7    0  0.4705418E-002  0.4601362E+03  0.7546771E-02  0.1024742E+00
         21   -1    0    0  502  501  0.00000000000E+00  0.00000000000E+00  0.65320600522E+03  0.65320600522E+03  0.00000000000E+00 0. -1.
         21   -1    0    0  501  502 -0.00000000000E+00 -0.00000000000E+00 -0.81033123404E+02  0.81033123404E+02  0.00000000000E+00 0. -1.
      99926    2    1    2    0    0  0.00000000000E+00  0.17763568394E-14  0.57217288182E+03  0.73423912863E+03  0.46013616606E+03 0.  0.
      99925    2    3    3    0    0 -0.74327497729E+02 -0.12262880806E+02  0.50257874673E+03  0.57248064538E+03  0.26357871216E+03 0.  0.
         25    1    4    4    0    0  0.41194756459E+01  0.62035113373E+01  0.23300524040E+03  0.26456455505E+03  0.12509000000E+03 0.  0.
         25    1    4    4    0    0 -0.78446973375E+02 -0.18466392143E+02  0.26957350633E+03  0.30791609033E+03  0.12509000000E+03 0.  0.
         25    1    3    3    0    0  0.74327497729E+02  0.12262880806E+02  0.69594135087E+02  0.16175848325E+03  0.12509000000E+03 0.  0.
<mgrwt>
<rscale>  2 0.46013617E+03</rscale>
<asrwt>0</asrwt>
<pdfrwt beam="1">  1       21 0.96059704E-01 0.46013617E+03</pdfrwt>
<pdfrwt beam="2">  1       21 0.11916636E-01 0.46013617E+03</pdfrwt>
<totfact> 0.49071193E+04</totfact>
</mgrwt>
</event>
<event>
 7    0  0.4705418E-002  0.4690886E+03  0.7546771E-02  0.1022178E+00
         21   -1    0    0  502  501  0.00000000000E+00  0.00000000000E+00  0.38218155060E+03  0.38218155060E+03  0.00000000000E+00 0.  1.
         21   -1    0    0  501  502 -0.00000000000E+00 -0.00000000000E+00 -0.14393953688E+03  0.14393953688E+03  0.00000000000E+00 0.  1.
      99926    2    1    2    0    0  0.00000000000E+00  0.00000000000E+00  0.23824201373E+03  0.52612108748E+03  0.46908862871E+03 0.  0.
      99925    2    3    3    0    0  0.52583976909E+02  0.40966367319E+02  0.26775902037E+03  0.38133821674E+03  0.26321212866E+03 0.  0.
         25    1    4    4    0    0  0.31810455298E+02  0.19510787614E+02  0.77876501945E+02  0.15200274193E+03  0.12509000000E+03 0.  0.
         25    1    4    4    0    0  0.20773521611E+02  0.21455579704E+02  0.18988251843E+03  0.22933547481E+03  0.12509000000E+03 0.  0.
         25    1    3    3    0    0 -0.52583976909E+02 -0.40966367319E+02 -0.29517006646E+02  0.14478287074E+03  0.12509000000E+03 0.  0.
<mgrwt>
<rscale>  2 0.46908863E+03</rscale>
<asrwt>0</asrwt>
<pdfrwt beam="1">  1       21 0.56203169E-01 0.46908863E+03</pdfrwt>
<pdfrwt beam="2">  1       21 0.21167579E-01 0.46908863E+03</pdfrwt>
<totfact> 0.56846748E+04</totfact>
</mgrwt>
</event>
<event>
 7    0  0.4705418E-002  0.4569799E+03  0.7546771E-02  0.1025661E+00
         21   -1    0    0  502  501  0.00000000000E+00  0.00000000000E+00  0.12631827652E+04  0.12631827652E+04  0.00000000000E+00 0. -1.
         21   -1    0    0  501  502 -0.00000000000E+00 -0.00000000000E+00 -0.41330250245E+02  0.41330250245E+02  0.00000000000E+00 0. -1.
      99926    2    1    2    0    0  0.00000000000E+00  0.00000000000E+00  0.12218525150E+04  0.13045130155E+04  0.45697991112E+03 0.  0.
      99925    2    3    3    0    0 -0.31223078465E+02  0.67150138596E+02  0.51632292570E+03  0.58416342591E+03  0.26300859837E+03 0.  0.
         25    1    4    4    0    0  0.35894711042E+01  0.32310858569E+02  0.17688272288E+03  0.21907049467E+03  0.12509000000E+03 0.  0.
         25    1    4    4    0    0 -0.34812549569E+02  0.34839280027E+02  0.33944020283E+03  0.36509293123E+03  0.12509000000E+03 0.  0.
         25    1    3    3    0    0  0.31223078465E+02 -0.67150138596E+02  0.70552958928E+03  0.72034958957E+03  0.12509000000E+03 0.  0.
<mgrwt>
<rscale>  2 0.45697991E+03</rscale>
<asrwt>0</asrwt>
<pdfrwt beam="1">  1       21 0.18576215E+00 0.45697991E+03</pdfrwt>
<pdfrwt beam="2">  1       21 0.60779788E-02 0.45697991E+03</pdfrwt>
<totfact> 0.28541890E+04</totfact>
</mgrwt>
</event>
<event>
 7    0  0.4705418E-002  0.4570006E+03  0.7546771E-02  0.1025655E+00
         21   -1    0    0  502  501  0.00000000000E+00  0.00000000000E+00  0.36272822664E+03  0.36272822664E+03  0.00000000000E+00 0.  1.
         21   -1    0    0  501  502 -0.00000000000E+00 -0.00000000000E+00 -0.14394356647E+03  0.14394356647E+03  0.00000000000E+00 0.  1.
      99926    2    1    2    0    0  0.14210854715E-13  0.71054273576E-14  0.21878466017E+03  0.50667179310E+03  0.45700063282E+03 0.  0.
      99925    2    3    3    0    0  0.65648494183E+02  0.41176572504E+02  0.23172530409E+03  0.35895516142E+03  0.26295808875E+03 0.  0.
         25    1    4    4    0    0  0.14216950610E+02 -0.14439662403E+02  0.91062051312E+02  0.15604624579E+03  0.12509000000E+03 0.  0.
         25    1    3    3    0    0 -0.65648494183E+02 -0.41176572504E+02 -0.12940643920E+02  0.14771663169E+03  0.12509000000E+03 0.  0.
         25    1    4    4    0    0  0.51431543573E+02  0.55616234907E+02  0.14066325278E+03  0.20290891563E+03  0.12509000000E+03 0.  0.
<mgrwt>
<rscale>  2 0.45700063E+03</rscale>
<asrwt>0</asrwt>
<pdfrwt beam="1">  1       21 0.53342386E-01 0.45700063E+03</pdfrwt>
<pdfrwt beam="2">  1       21 0.21168172E-01 0.45700063E+03</pdfrwt>
<totfact> 0.63785534E+04</totfact>
</mgrwt>
</event>
<event>
 7    0  0.4705418E-002  0.4512883E+03  0.7546771E-02  0.1027339E+00
         21   -1    0    0  502  501  0.00000000000E+00  0.00000000000E+00  0.58832834387E+03  0.58832834387E+03  0.00000000000E+00 0. -1.
         21   -1    0    0  501  502 -0.00000000000E+00 -0.00000000000E+00 -0.86542284774E+02  0.86542284774E+02  0.00000000000E+00 0. -1.
      99926    2    1    2    0    0  0.00000000000E+00  0.00000000000E+00  0.50178605910E+03  0.67487062865E+03  0.45128828514E+03 0.  0.
      99925    2    3    3    0    0 -0.25866537089E+02  0.10613920582E+03  0.32706447802E+03  0.43381099340E+03  0.26322271265E+03 0.  0.
         25    1    4    4    0    0 -0.25513826160E+02  0.82799429899E+02  0.13500739954E+03  0.20342371284E+03  0.12509000000E+03 0.  0.
         25    1    3    3    0    0  0.25866537089E+02 -0.10613920582E+03  0.17472158108E+03  0.24105963525E+03  0.12509000000E+03 0.  0.
         25    1    4    4    0    0 -0.35271092960E+00  0.23339775920E+02  0.19205707848E+03  0.23038728055E+03  0.12509000000E+03 0.  0.
<mgrwt>
<rscale>  2 0.45128829E+03</rscale>
<asrwt>0</asrwt>
<pdfrwt beam="1">  1       21 0.86518872E-01 0.45128829E+03</pdfrwt>
<pdfrwt beam="2">  1       21 0.12726807E-01 0.45128829E+03</pdfrwt>
<totfact> 0.55905694E+04</totfact>
</mgrwt>
</event>
<event>
 7    0  0.4705418E-002  0.4537245E+03  0.7546771E-02  0.1026617E+00
         21   -1    0    0  502  501  0.00000000000E+00  0.00000000000E+00  0.20684921394E+03  0.20684921394E+03  0.00000000000E+00 0.  1.
         21   -1    0    0  501  502 -0.00000000000E+00 -0.00000000000E+00 -0.24881161171E+03  0.24881161171E+03  0.00000000000E+00 0.  1.
      99926    2    1    2    0    0 -0.71054273576E-14  0.00000000000E+00 -0.41962397774E+02  0.45566082565E+03  0.45372452568E+03 0.  0.
      99925    2    3    3    0    0  0.44583408280E+02  0.61041971622E+02  0.56411952237E+02  0.27948244039E+03  0.26308615231E+03 0.  0.
         25    1    4    4    0    0  0.95490290143E+00  0.52417299034E+02  0.10357761277E+01  0.13563578440E+03  0.12509000000E+03 0.  0.
         25    1    4    4    0    0  0.43628505379E+02  0.86246725878E+01  0.55376176109E+02  0.14384665599E+03  0.12509000000E+03 0.  0.
         25    1    3    3    0    0 -0.44583408280E+02 -0.61041971622E+02 -0.98374350010E+02  0.17617838526E+03  0.12509000000E+03 0.  0.
<mgrwt>
<rscale>  2 0.45372453E+03</rscale>
<asrwt>0</asrwt>
<pdfrwt beam="1">  1       21 0.30419002E-01 0.45372453E+03</pdfrwt>
<pdfrwt beam="2">  1       21 0.36589943E-01 0.45372453E+03</pdfrwt>
<totfact> 0.69198949E+04</totfact>
</mgrwt>
</event>
<event>
 7    0  0.4705418E-002  0.4304389E+03  0.7546771E-02  0.1033721E+00
         21   -1    0    0  502  501  0.00000000000E+00  0.00000000000E+00  0.75674908721E+02  0.75674908721E+02  0.00000000000E+00 0. -1.
         21   -1    0    0  501  502 -0.00000000000E+00 -0.00000000000E+00 -0.61208400693E+03  0.61208400693E+03  0.00000000000E+00 0. -1.
      99926    2    1    2    0    0  0.00000000000E+00  0.00000000000E+00 -0.53640909821E+03  0.68775891565E+03  0.43043885212E+03 0.  0.
      99925    2    3    3    0    0  0.58705608191E+02 -0.34428571600E+02 -0.43559963403E+03  0.51328332669E+03  0.26283275540E+03 0.  0.
         25    1    4    4    0    0  0.28252000367E+02 -0.15871724721E+02 -0.29323541023E+03  0.32044438063E+03  0.12509000000E+03 0.  0.
         25    1    4    4    0    0  0.30453607824E+02 -0.18556846880E+02 -0.14236422381E+03  0.19283894605E+03  0.12509000000E+03 0.  0.
         25    1    3    3    0    0 -0.58705608191E+02  0.34428571600E+02 -0.10080946418E+03  0.17447558896E+03  0.12509000000E+03 0.  0.
<mgrwt>
<rscale>  2 0.43043885E+03</rscale>
<asrwt>0</asrwt>
<pdfrwt beam="1">  1       21 0.11128663E-01 0.43043885E+03</pdfrwt>
<pdfrwt beam="2">  1       21 0.90012354E-01 0.43043885E+03</pdfrwt>
<totfact> 0.65314577E+04</totfact>
</mgrwt>
</event>
<event>
 7    0  0.4705418E-002  0.4381479E+03  0.7546771E-02  0.1031317E+00
         21   -1    0    0  502  501  0.00000000000E+00  0.00000000000E+00  0.47036166578E+02  0.47036166578E+02  0.00000000000E+00 0.  1.
         21   -1    0    0  501  502 -0.00000000000E+00 -0.00000000000E+00 -0.10203509626E+04  0.10203509626E+04  0.00000000000E+00 0.  1.
      99926    2    1    2    0    0  0.17763568394E-14  0.00000000000E+00 -0.97331479607E+03  0.10673871292E+04  0.43814791040E+03 0.  0.
      99925    2    3    3    0    0  0.10559039300E+02 -0.52708886426E+02 -0.42709746571E+03  0.50445676044E+03  0.26301075627E+03 0.  0.
         25    1    3    3    0    0 -0.10559039300E+02  0.52708886426E+02 -0.54621733036E+03  0.56293036879E+03  0.12509000000E+03 0.  0.
         25    1    4    4    0    0  0.34834170760E+02 -0.51465055009E+02 -0.24840206412E+03  0.28497923591E+03  0.12509000000E+03 0.  0.
         25    1    4    4    0    0 -0.24275131460E+02 -0.12438314175E+01 -0.17869540159E+03  0.21947752453E+03  0.12509000000E+03 0.  0.
<mgrwt>
<rscale>  2 0.43814791E+03</rscale>
<asrwt>0</asrwt>
<pdfrwt beam="1">  1       21 0.69170840E-02 0.43814791E+03</pdfrwt>
<pdfrwt beam="2">  1       21 0.15005160E+00 0.43814791E+03</pdfrwt>
<totfact> 0.41889415E+04</totfact>
</mgrwt>
</event>
<event>
 7    0  0.4705418E-002  0.4005381E+03  0.7546771E-02  0.1043594E+00
         21   -1    0    0  502  501  0.00000000000E+00  0.00000000000E+00  0.25475465281E+02  0.25475465281E+02  0.00000000000E+00 0.  1.
         21   -1    0    0  501  502 -0.00000000000E+00 -0.00000000000E+00 -0.15743655039E+04  0.15743655039E+04  0.00000000000E+00 0.  1.
      99926    2    1    2    0    0 -0.71054273576E-14 -0.17763568394E-14 -0.15488900386E+04  0.15998409691E+04  0.40053810672E+03 0.  0.
      99925    2    3    3    0    0  0.37356347810E+02  0.15584690259E+01 -0.11458042744E+04  0.11761387542E+04  0.26274894555E+03 0.  0.
         25    1    4    4    0    0 -0.20765022955E+01 -0.11845990335E+02 -0.41770321630E+03  0.43619734566E+03  0.12509000000E+03 0.  0.
         25    1    4    4    0    0  0.39432850106E+02  0.13404459361E+02 -0.72810105812E+03  0.73994140858E+03  0.12509000000E+03 0.  0.
         25    1    3    3    0    0 -0.37356347810E+02 -0.15584690259E+01 -0.40308576416E+03  0.42370221490E+03  0.12509000000E+03 0.  0.
<mgrwt>
<rscale>  2 0.40053811E+03</rscale>
<asrwt>0</asrwt>
<pdfrwt beam="1">  1       21 0.37463901E-02 0.40053811E+03</pdfrwt>
<pdfrwt beam="2">  1       21 0.23152445E+00 0.40053811E+03</pdfrwt>
<totfact> 0.33528599E+04</totfact>
</mgrwt>
</event>
<event>
 7    0  0.4705418E-002  0.4571877E+03  0.7546771E-02  0.1025600E+00
         21   -1    0    0  502  501  0.00000000000E+00  0.00000000000E+00  0.49623826021E+02  0.49623826021E+02  0.00000000000E+00 0.  1.
         21   -1    0    0  501  502 -0.00000000000E+00 -0.00000000000E+00 -0.10530252927E+04  0.10530252927E+04  0.00000000000E+00 0.  1.
      99926    2    1    2    0    0  0.00000000000E+00 -0.71054273576E-14 -0.10034014667E+04  0.11026491188E+04  0.45718768104E+03 0.  0.
      99925    2    3    3    0    0 -0.36252290718E+02  0.21803052039E+02 -0.37171189440E+03  0.45730515966E+03  0.26299938205E+03 0.  0.
         25    1    4    4    0    0 -0.37018444739E+02 -0.12349233446E+02 -0.23372741101E+03  0.26795312944E+03  0.12509000000E+03 0.  0.
         25    1    3    3    0    0  0.36252290718E+02 -0.21803052039E+02 -0.63168957233E+03  0.64534395911E+03  0.12509000000E+03 0.  0.
         25    1    4    4    0    0  0.76615402079E+00  0.34152285485E+02 -0.13798448338E+03  0.18935203023E+03  0.12509000000E+03 0.  0.
<mgrwt>
<rscale>  2 0.45718768E+03</rscale>
<asrwt>0</asrwt>
<pdfrwt beam="1">  1       21 0.72976210E-02 0.45718768E+03</pdfrwt>
<pdfrwt beam="2">  1       21 0.15485667E+00 0.45718768E+03</pdfrwt>
<totfact> 0.34804707E+04</totfact>
</mgrwt>
</event>
<event>
 7    0  0.4705418E-002  0.4549033E+03  0.7546771E-02  0.1026270E+00
         21   -1    0    0  502  501  0.00000000000E+00  0.00000000000E+00  0.62593132957E+03  0.62593132957E+03  0.00000000000E+00 0. -1.
         21   -1    0    0  501  502 -0.00000000000E+00 -0.00000000000E+00 -0.82651635556E+02  0.82651635556E+02  0.00000000000E+00 0. -1.
      99926    2    1    2    0    0 -0.14210854715E-13  0.17763568394E-14  0.54327969402E+03  0.70858296513E+03  0.45490327823E+03 0.  0.
      99925    2    3    3    0    0 -0.10271648977E+03  0.15146374688E+02  0.41182801481E+03  0.49952043380E+03  0.26294155258E+03 0.  0.
         25    1    4    4    0    0 -0.37244501614E+02 -0.57097002605E+01  0.26100617003E+03  0.29187579973E+03  0.12509000000E+03 0.  0.
         25    1    4    4    0    0 -0.65471988157E+02  0.20856074949E+02  0.15082184478E+03  0.20764463407E+03  0.12509000000E+03 0.  0.
         25    1    3    3    0    0  0.10271648977E+03 -0.15146374688E+02  0.13145167921E+03  0.20906253133E+03  0.12509000000E+03 0.  0.
<mgrwt>
<rscale>  2 0.45490328E+03</rscale>
<asrwt>0</asrwt>
<pdfrwt beam="1">  1       21 0.92048722E-01 0.45490328E+03</pdfrwt>
<pdfrwt beam="2">  1       21 0.12154653E-01 0.45490328E+03</pdfrwt>
<totfact> 0.52479367E+04</totfact>
</mgrwt>
</event>
<event>
 7    0  0.4705418E-002  0.4616432E+03  0.7546771E-02  0.1024306E+00
         21   -1    0    0  502  501  0.00000000000E+00  0.00000000000E+00  0.10493870321E+04  0.10493870321E+04  0.00000000000E+00 0. -1.
         21   -1    0    0  501  502 -0.00000000000E+00 -0.00000000000E+00 -0.50771166569E+02  0.50771166569E+02  0.00000000000E+00 0. -1.
      99926    2    1    2    0    0  0.14210854715E-13  0.00000000000E+00  0.99861586553E+03  0.11001581987E+04  0.46164316870E+03 0.  0.
      99925    2    3    3    0    0 -0.11836774886E+03  0.10753607352E+02  0.60149918914E+03  0.66717352595E+03  0.26304500594E+03 0.  0.
         25    1    3    3    0    0  0.11836774886E+03 -0.10753607352E+02  0.39711667638E+03  0.43298467271E+03  0.12509000000E+03 0.  0.
         25    1    4    4    0    0 -0.10098366426E+03 -0.80185903019E+01  0.33768692193E+03  0.37408817621E+03  0.12509000000E+03 0.  0.
         25    1    4    4    0    0 -0.17384084606E+02  0.18772197654E+02  0.26381226721E+03  0.29308534974E+03  0.12509000000E+03 0.  0.
<mgrwt>
<rscale>  2 0.46164317E+03</rscale>
<asrwt>0</asrwt>
<pdfrwt beam="1">  1       21 0.15432161E+00 0.46164317E+03</pdfrwt>
<pdfrwt beam="2">  1       21 0.74663487E-02 0.46164317E+03</pdfrwt>
<totfact> 0.33707714E+04</totfact>
</mgrwt>
</event>
<event>
 7    0  0.4705418E-002  0.4541990E+03  0.7546771E-02  0.1026477E+00
         21   -1    0    0  502  501  0.00000000000E+00  0.00000000000E+00  0.20067246926E+04  0.20067246926E+04  0.00000000000E+00 0. -1.
         21   -1    0    0  501  502 -0.00000000000E+00 -0.00000000000E+00 -0.25700678819E+02  0.25700678819E+02  0.00000000000E+00 0. -1.
      99926    2    1    2    0    0 -0.35527136788E-14  0.00000000000E+00  0.19810240137E+04  0.20324253714E+04  0.45419901718E+03 0.  0.
      99925    2    3    3    0    0 -0.31557485863E+02 -0.95640187132E+02  0.10243651842E+04  0.10623807618E+04  0.26303218845E+03 0.  0.
         25    1    3    3    0    0  0.31557485863E+02  0.95640187132E+02  0.95665882950E+03  0.97004460952E+03  0.12509000000E+03 0.  0.
         25    1    4    4    0    0 -0.33482330847E+02 -0.46899173823E+02  0.65620629258E+03  0.67050339708E+03  0.12509000000E+03 0.  0.
         25    1    4    4    0    0  0.19248449840E+01 -0.48741013309E+02  0.36815889166E+03  0.39187736476E+03  0.12509000000E+03 0.  0.
<mgrwt>
<rscale>  2 0.45419902E+03</rscale>
<asrwt>0</asrwt>
<pdfrwt beam="1">  1       21 0.29510647E+00 0.45419902E+03</pdfrwt>
<pdfrwt beam="2">  1       21 0.37795130E-02 0.45419902E+03</pdfrwt>
<totfact> 0.13269810E+04</totfact>
</mgrwt>
</event>
<event>
 7    0  0.4705418E-002  0.4545319E+03  0.7546771E-02  0.1026379E+00
         21   -1    0    0  502  501  0.00000000000E+00  0.00000000000E+00  0.76050777994E+02  0.76050777994E+02  0.00000000000E+00 0.  1.
         21   -1    0    0  501  502 -0.00000000000E+00 -0.00000000000E+00 -0.67914909678E+03  0.67914909678E+03  0.00000000000E+00 0.  1.
      99926    2    1    2    0    0  0.00000000000E+00  0.00000000000E+00 -0.60309831879E+03  0.75519987477E+03  0.45453192268E+03 0.  0.
      99925    2    3    3    0    0 -0.11097632452E+03 -0.13831016596E+02 -0.40231565467E+03  0.49353553266E+03  0.26308248589E+03 0.  0.
         25    1    3    3    0    0  0.11097632452E+03  0.13831016596E+02 -0.20078266411E+03  0.26166434211E+03  0.12509000000E+03 0.  0.
         25    1    4    4    0    0 -0.61829875278E+02  0.15421247754E+02 -0.14536594701E+03  0.20208788932E+03  0.12509000000E+03 0.  0.
         25    1    4    4    0    0 -0.49146449241E+02 -0.29252264350E+02 -0.25694970767E+03  0.29144764335E+03  0.12509000000E+03 0.  0.
<mgrwt>
<rscale>  2 0.45453192E+03</rscale>
<asrwt>0</asrwt>
<pdfrwt beam="1">  1       21 0.11183938E-01 0.45453192E+03</pdfrwt>
<pdfrwt beam="2">  1       21 0.99874870E-01 0.45453192E+03</pdfrwt>
<totfact> 0.50190723E+04</totfact>
</mgrwt>
</event>
<event>
 7    0  0.4705418E-002  0.4521202E+03  0.7546771E-02  0.1027092E+00
         21   -1    0    0  502  501  0.00000000000E+00  0.00000000000E+00  0.34749009395E+03  0.34749009395E+03  0.00000000000E+00 0.  1.
         21   -1    0    0  501  502 -0.00000000000E+00 -0.00000000000E+00 -0.14706367714E+03  0.14706367714E+03  0.00000000000E+00 0.  1.
      99926    2    1    2    0    0  0.00000000000E+00  0.00000000000E+00  0.20042641681E+03  0.49455377110E+03  0.45212020962E+03 0.  0.
      99925    2    3    3    0    0 -0.50042867974E+02  0.98140116119E+02  0.13396887224E+03  0.31511050887E+03  0.26308022169E+03 0.  0.
         25    1    3    3    0    0  0.50042867974E+02 -0.98140116119E+02  0.66457544569E+02  0.17944326222E+03  0.12509000000E+03 0.  0.
         25    1    4    4    0    0 -0.47685562981E+02  0.81407682850E+02  0.93966605530E+02  0.18269744059E+03  0.12509000000E+03 0.  0.
         25    1    4    4    0    0 -0.23573049924E+01  0.16732433269E+02  0.40002266710E+02  0.13241306828E+03  0.12509000000E+03 0.  0.
<mgrwt>
<rscale>  2 0.45212021E+03</rscale>
<asrwt>0</asrwt>
<pdfrwt beam="1">  1       21 0.51101484E-01 0.45212021E+03</pdfrwt>
<pdfrwt beam="2">  1       21 0.21627011E-01 0.45212021E+03</pdfrwt>
<totfact> 0.67177656E+04</totfact>
</mgrwt>
</event>
<event>
 7    0  0.4705418E-002  0.4442471E+03  0.7546771E-02  0.1029452E+00
         21   -1    0    0  502  501  0.00000000000E+00  0.00000000000E+00  0.73669639839E+03  0.73669639839E+03  0.00000000000E+00 0.  1.
         21   -1    0    0  501  502 -0.00000000000E+00 -0.00000000000E+00 -0.66973133085E+02  0.66973133085E+02  0.00000000000E+00 0.  1.
      99926    2    1    2    0    0 -0.35527136788E-14  0.00000000000E+00  0.66972326531E+03  0.80366953148E+03  0.44424707510E+03 0.  0.
      99925    2    3    3    0    0  0.25143781183E+02  0.95996164959E+02  0.37675363847E+03  0.47001374512E+03  0.26291090332E+03 0.  0.
         25    1    4    4    0    0 -0.19440452245E+02  0.62763483717E+02  0.15805885012E+03  0.21200776937E+03  0.12509000000E+03 0.  0.
         25    1    4    4    0    0  0.44584233428E+02  0.33232681242E+02  0.21869478835E+03  0.25800597575E+03  0.12509000000E+03 0.  0.
         25    1    3    3    0    0 -0.25143781183E+02 -0.95996164959E+02  0.29296962684E+03  0.33365578636E+03  0.12509000000E+03 0.  0.
<mgrwt>
<rscale>  2 0.44424708E+03</rscale>
<asrwt>0</asrwt>
<pdfrwt beam="1">  1       21 0.10833770E+00 0.44424708E+03</pdfrwt>
<pdfrwt beam="2">  1       21 0.98489906E-02 0.44424708E+03</pdfrwt>
<totfact> 0.51824619E+04</totfact>
</mgrwt>
</event>
<event>
 7    0  0.4705418E-002  0.4591846E+03  0.7546771E-02  0.1025018E+00
         21   -1    0    0  502  501  0.00000000000E+00  0.00000000000E+00  0.11352923630E+04  0.11352923630E+04  0.00000000000E+00 0. -1.
         21   -1    0    0  501  502 -0.00000000000E+00 -0.00000000000E+00 -0.46430889807E+02  0.46430889807E+02  0.00000000000E+00 0. -1.
      99926    2    1    2    0    0 -0.71054273576E-14  0.00000000000E+00  0.10888614732E+04  0.11817232528E+04  0.45918464523E+03 0.  0.
      99925    2    3    3    0    0 -0.62558882630E+02 -0.51241879485E+02  0.47110298165E+03  0.54626089674E+03  0.26443071678E+03 0.  0.
         25    1    4    4    0    0 -0.53060558947E+02 -0.49137818972E+02  0.19236548727E+03  0.24058665167E+03  0.12509000000E+03 0.  0.
         25    1    3    3    0    0  0.62558882630E+02  0.51241879485E+02  0.61775849150E+03  0.63546235603E+03  0.12509000000E+03 0.  0.
         25    1    4    4    0    0 -0.94983236832E+01 -0.21040605129E+01  0.27873749439E+03  0.30567424507E+03  0.12509000000E+03 0.  0.
<mgrwt>
<rscale>  2 0.45918465E+03</rscale>
<asrwt>0</asrwt>
<pdfrwt beam="1">  1       21 0.16695474E+00 0.45918465E+03</pdfrwt>
<pdfrwt beam="2">  1       21 0.68280728E-02 0.45918465E+03</pdfrwt>
<totfact> 0.31694615E+04</totfact>
</mgrwt>
</event>
<event>
 7    0  0.4705418E-002  0.4715670E+03  0.7546771E-02  0.1021479E+00
         21   -1    0    0  502  501  0.00000000000E+00  0.00000000000E+00  0.28318701120E+03  0.28318701120E+03  0.00000000000E+00 0. -1.
         21   -1    0    0  501  502 -0.00000000000E+00 -0.00000000000E+00 -0.19631501199E+03  0.19631501199E+03  0.00000000000E+00 0. -1.
      99926    2    1    2    0    0  0.71054273576E-14 -0.17763568394E-14  0.86871999209E+02  0.47950202320E+03  0.47156701115E+03 0.  0.
      99925    2    3    3    0    0 -0.41311673261E+02 -0.13306541822E+02 -0.68326095811E+02  0.27549791735E+03  0.26333805022E+03 0.  0.
         25    1    4    4    0    0 -0.35035493957E+02 -0.44344535414E+02 -0.26058353131E+02  0.13971567387E+03  0.12509000000E+03 0.  0.
         25    1    3    3    0    0  0.41311673261E+02  0.13306541822E+02  0.15519809502E+03  0.20400410584E+03  0.12509000000E+03 0.  0.
         25    1    4    4    0    0 -0.62761793039E+01  0.31037993592E+02 -0.42267742681E+02  0.13578224348E+03  0.12509000000E+03 0.  0.
<mgrwt>
<rscale>  2 0.47156701E+03</rscale>
<asrwt>0</asrwt>
<pdfrwt beam="1">  1       21 0.41645149E-01 0.47156701E+03</pdfrwt>
<pdfrwt beam="2">  1       21 0.28869855E-01 0.47156701E+03</pdfrwt>
<totfact> 0.58636008E+04</totfact>
</mgrwt>
</event>
<event>
 7    0  0.4705418E-002  0.4578329E+03  0.7546771E-02  0.1025412E+00
         21   -1    0    0  502  501  0.00000000000E+00  0.00000000000E+00  0.11190390337E+04  0.11190390337E+04  0.00000000000E+00 0. -1.
         21   -1    0    0  501  502 -0.00000000000E+00 -0.00000000000E+00 -0.46828348114E+02  0.46828348114E+02  0.00000000000E+00 0. -1.
      99926    2    1    2    0    0  0.00000000000E+00  0.00000000000E+00  0.10722106856E+04  0.11658673818E+04  0.45783293644E+03 0.  0.
      99925    2    3    3    0    0 -0.61664267556E+02  0.85717645339E+02  0.55533579351E+03  0.62368922034E+03  0.26351547090E+03 0.  0.
         25    1    4    4    0    0 -0.13668805113E+02  0.79955890397E+02  0.31399906462E+03  0.34759560027E+03  0.12509000000E+03 0.  0.
         25    1    3    3    0    0  0.61664267556E+02 -0.85717645339E+02  0.51687489204E+03  0.54217816144E+03  0.12509000000E+03 0.  0.
         25    1    4    4    0    0 -0.47995462443E+02  0.57617549419E+01  0.24133672888E+03  0.27609362007E+03  0.12509000000E+03 0.  0.
<mgrwt>
<rscale>  2 0.45783294E+03</rscale>
<asrwt>0</asrwt>
<pdfrwt beam="1">  1       21 0.16456455E+00 0.45783294E+03</pdfrwt>
<pdfrwt beam="2">  1       21 0.68865225E-02 0.45783294E+03</pdfrwt>
<totfact> 0.32532851E+04</totfact>
</mgrwt>
</event>
<event>
 7    0  0.4705418E-002  0.4582137E+03  0.7546771E-02  0.1025301E+00
         21   -1    0    0  502  501  0.00000000000E+00  0.00000000000E+00  0.18895487445E+03  0.18895487445E+03  0.00000000000E+00 0.  1.
         21   -1    0    0  501  502 -0.00000000000E+00 -0.00000000000E+00 -0.27779097710E+03  0.27779097710E+03  0.00000000000E+00 0.  1.
      99926    2    1    2    0    0  0.00000000000E+00  0.00000000000E+00 -0.88836102651E+02  0.46674585155E+03  0.45821374576E+03 0.  0.
      99925    2    3    3    0    0  0.11409500442E+03 -0.14055982660E+02 -0.52841718734E+02  0.29308427130E+03  0.26436887518E+03 0.  0.
         25    1    3    3    0    0 -0.11409500442E+03  0.14055982660E+02 -0.35994383917E+02  0.17366158025E+03  0.12509000000E+03 0.  0.
         25    1    4    4    0    0  0.49592011050E+02  0.29030663884E+02 -0.48098718908E+02  0.14581886663E+03  0.12509000000E+03 0.  0.
         25    1    4    4    0    0  0.64502993372E+02 -0.43086646545E+02 -0.47429998267E+01  0.14726540467E+03  0.12509000000E+03 0.  0.
<mgrwt>
<rscale>  2 0.45821375E+03</rscale>
<asrwt>0</asrwt>
<pdfrwt beam="1">  1       21 0.27787481E-01 0.45821375E+03</pdfrwt>
<pdfrwt beam="2">  1       21 0.40851614E-01 0.45821375E+03</pdfrwt>
<totfact> 0.65979064E+04</totfact>
</mgrwt>
</event>
<event>
 7    0  0.4705418E-002  0.4568040E+03  0.7546771E-02  0.1025712E+00
         21   -1    0    0  502  501  0.00000000000E+00  0.00000000000E+00  0.68812533125E+02  0.68812533125E+02  0.00000000000E+00 0.  1.
         21   -1    0    0  501  502 -0.00000000000E+00 -0.00000000000E+00 -0.75811006741E+03  0.75811006741E+03  0.00000000000E+00 0.  1.
      99926    2    1    2    0    0  0.35527136788E-14  0.00000000000E+00 -0.68929753428E+03  0.82692260053E+03  0.45680400228E+03 0.  0.
      99925    2    3    3    0    0 -0.20568648301E+02 -0.33469170854E+02 -0.62842470540E+03  0.68236719909E+03  0.26299074003E+03 0.  0.
         25    1    3    3    0    0  0.20568648301E+02  0.33469170854E+02 -0.60872828883E+02  0.14455540144E+03  0.12509000000E+03 0.  0.
         25    1    4    4    0    0 -0.47542595542E+02 -0.90890725434E+01 -0.35509263496E+03  0.37958029076E+03  0.12509000000E+03 0.  0.
         25    1    4    4    0    0  0.26973947241E+02 -0.24380098311E+02 -0.27333207044E+03  0.30278690833E+03  0.12509000000E+03 0.  0.
<mgrwt>
<rscale>  2 0.45680400E+03</rscale>
<asrwt>0</asrwt>
<pdfrwt beam="1">  1       21 0.10119490E-01 0.45680400E+03</pdfrwt>
<pdfrwt beam="2">  1       21 0.11148677E+00 0.45680400E+03</pdfrwt>
<totfact> 0.45837739E+04</totfact>
</mgrwt>
</event>
<event>
 7    0  0.4705418E-002  0.4511463E+03  0.7546771E-02  0.1027381E+00
         21   -1    0    0  502  501  0.00000000000E+00  0.00000000000E+00  0.73785108160E+02  0.73785108160E+02  0.00000000000E+00 0.  1.
         21   -1    0    0  501  502 -0.00000000000E+00 -0.00000000000E+00 -0.68961416876E+03  0.68961416876E+03  0.00000000000E+00 0.  1.
      99926    2    1    2    0    0  0.00000000000E+00  0.00000000000E+00 -0.61582906060E+03  0.76339927692E+03  0.45114634446E+03 0.  0.
      99925    2    3    3    0    0 -0.67356043942E+02  0.84034127342E+02 -0.42246438435E+03  0.50916321076E+03  0.26300655493E+03 0.  0.
         25    1    3    3    0    0  0.67356043942E+02 -0.84034127342E+02 -0.19336467625E+03  0.25423606616E+03  0.12509000000E+03 0.  0.
         25    1    4    4    0    0 -0.34507645113E+02  0.80630500284E+02 -0.19805030455E+03  0.25012694053E+03  0.12509000000E+03 0.  0.
         25    1    4    4    0    0 -0.32848398830E+02  0.34036270579E+01 -0.22441407980E+03  0.25903627023E+03  0.12509000000E+03 0.  0.
<mgrwt>
<rscale>  2 0.45114634E+03</rscale>
<asrwt>0</asrwt>
<pdfrwt beam="1">  1       21 0.10850752E-01 0.45114634E+03</pdfrwt>
<pdfrwt beam="2">  1       21 0.10141384E+00 0.45114634E+03</pdfrwt>
<totfact> 0.51114838E+04</totfact>
</mgrwt>
</event>
<event>
 7    0  0.4705418E-002  0.4578322E+03  0.7546771E-02  0.1025412E+00
         21   -1    0    0  502  501  0.00000000000E+00  0.00000000000E+00  0.41419505928E+03  0.41419505928E+03  0.00000000000E+00 0. -1.
         21   -1    0    0  501  502 -0.00000000000E+00 -0.00000000000E+00 -0.12651669389E+03  0.12651669389E+03  0.00000000000E+00 0. -1.
      99926    2    1    2    0    0  0.00000000000E+00  0.00000000000E+00  0.28767836539E+03  0.54071175317E+03  0.45783223795E+03 0.  0.
      99925    2    3    3    0    0 -0.37622462467E+02 -0.10907995375E+03  0.19080814606E+03  0.34489236321E+03  0.26311424819E+03 0.  0.
         25    1    4    4    0    0 -0.49466585818E+02 -0.27074668326E+02  0.94276568378E+02  0.16647990937E+03  0.12509000000E+03 0.  0.
         25    1    3    3    0    0  0.37622462467E+02  0.10907995375E+03  0.96870219332E+02  0.19581938996E+03  0.12509000000E+03 0.  0.
         25    1    4    4    0    0  0.11844123351E+02 -0.82005285425E+02  0.96531577683E+02  0.17841245384E+03  0.12509000000E+03 0.  0.
<mgrwt>
<rscale>  2 0.45783224E+03</rscale>
<asrwt>0</asrwt>
<pdfrwt beam="1">  1       21 0.60911038E-01 0.45783224E+03</pdfrwt>
<pdfrwt beam="2">  1       21 0.18605396E-01 0.45783224E+03</pdfrwt>
<totfact> 0.61103368E+04</totfact>
</mgrwt>
</event>
<event>
 7    0  0.4705418E-002  0.4500481E+03  0.7546771E-02  0.1027708E+00
         21   -1    0    0  502  501  0.00000000000E+00  0.00000000000E+00  0.88102750592E+03  0.88102750592E+03  0.00000000000E+00 0.  1.
         21   -1    0    0  501  502 -0.00000000000E+00 -0.00000000000E+00 -0.57473589924E+02  0.57473589924E+02  0.00000000000E+00 0.  1.
      99926    2    1    2    0    0  0.00000000000E+00  0.00000000000E+00  0.82355391599E+03  0.93850109584E+03  0.45004805782E+03 0.  0.
      99925    2    3    3    0    0  0.91861641438E+02 -0.55436859481E+02  0.55383082304E+03  0.62241588339E+03  0.26298506572E+03 0.  0.
         25    1    4    4    0    0  0.61284634286E+02 -0.16740254493E+02  0.36126355044E+03  0.38754987227E+03  0.12509000000E+03 0.  0.
         25    1    3    3    0    0 -0.91861641438E+02  0.55436859481E+02  0.26972309296E+03  0.31608521245E+03  0.12509000000E+03 0.  0.
         25    1    4    4    0    0  0.30577007153E+02 -0.38696604988E+02  0.19256727260E+03  0.23486601112E+03  0.12509000000E+03 0.  0.
<mgrwt>
<rscale>  2 0.45004806E+03</rscale>
<asrwt>0</asrwt>
<pdfrwt beam="1">  1       21 0.12956286E+00 0.45004806E+03</pdfrwt>
<pdfrwt beam="2">  1       21 0.84519990E-02 0.45004806E+03</pdfrwt>
<totfact> 0.43261233E+04</totfact>
</mgrwt>
</event>
<event>
 7    0  0.4705418E-002  0.4550316E+03  0.7546771E-02  0.1026232E+00
         21   -1    0    0  502  501  0.00000000000E+00  0.00000000000E+00  0.89369575163E+03  0.89369575163E+03  0.00000000000E+00 0.  1.
         21   -1    0    0  501  502 -0.00000000000E+00 -0.00000000000E+00 -0.57920657678E+02  0.57920657678E+02  0.00000000000E+00 0.  1.
      99926    2    1    2    0    0  0.88817841970E-15  0.00000000000E+00  0.83577509395E+03  0.95161640931E+03  0.45503162834E+03 0.  0.
      99925    2    3    3    0    0  0.32258258051E+01 -0.91667297163E+02  0.38882315224E+03  0.47851298972E+03  0.26339692157E+03 0.  0.
         25    1    3    3    0    0 -0.32258258051E+01  0.91667297163E+02  0.44695194171E+03  0.47310341958E+03  0.12509000000E+03 0.  0.
         25    1    4    4    0    0 -0.14064563642E+02 -0.58158410842E+01  0.18482926972E+03  0.22369846446E+03  0.12509000000E+03 0.  0.
         25    1    4    4    0    0  0.17290389447E+02 -0.85851456079E+02  0.20399388252E+03  0.25481452526E+03  0.12509000000E+03 0.  0.
<mgrwt>
<rscale>  2 0.45503163E+03</rscale>
<asrwt>0</asrwt>
<pdfrwt beam="1">  1       21 0.13142584E+00 0.45503163E+03</pdfrwt>
<pdfrwt beam="2">  1       21 0.85177443E-02 0.45503163E+03</pdfrwt>
<totfact> 0.41065272E+04</totfact>
</mgrwt>
</event>
<event>
 7    0  0.4705418E-002  0.4531216E+03  0.7546771E-02  0.1026795E+00
         21   -1    0    0  502  501  0.00000000000E+00  0.00000000000E+00  0.13524988365E+03  0.13524988365E+03  0.00000000000E+00 0.  1.
         21   -1    0    0  501  502 -0.00000000000E+00 -0.00000000000E+00 -0.37951830300E+03  0.37951830300E+03  0.00000000000E+00 0.  1.
      99926    2    1    2    0    0  0.35527136788E-14  0.00000000000E+00 -0.24426841935E+03  0.51476818666E+03  0.45312164515E+03 0.  0.
      99925    2    3    3    0    0 -0.19269892752E+02 -0.28105213207E+02 -0.27480956492E+03  0.38157095902E+03  0.26251641477E+03 0.  0.
         25    1    3    3    0    0  0.19269892752E+02  0.28105213207E+02  0.30541145571E+02  0.13319722763E+03  0.12509000000E+03 0.  0.
         25    1    4    4    0    0 -0.43242492590E+02 -0.36010191626E+00 -0.11495996884E+03  0.17530928491E+03  0.12509000000E+03 0.  0.
         25    1    4    4    0    0  0.23972599839E+02 -0.27745111290E+02 -0.15984959607E+03  0.20626167412E+03  0.12509000000E+03 0.  0.
<mgrwt>
<rscale>  2 0.45312165E+03</rscale>
<asrwt>0</asrwt>
<pdfrwt beam="1">  1       21 0.19889689E-01 0.45312165E+03</pdfrwt>
<pdfrwt beam="2">  1       21 0.55811515E-01 0.45312165E+03</pdfrwt>
<totfact> 0.65211657E+04</totfact>
</mgrwt>
</event>
<event>
 7    0  0.4705418E-002  0.4537348E+03  0.7546771E-02  0.1026614E+00
         21   -1    0    0  502  501  0.00000000000E+00  0.00000000000E+00  0.78483595993E+02  0.78483595993E+02  0.00000000000E+00 0. -1.
         21   -1    0    0  501  502 -0.00000000000E+00 -0.00000000000E+00 -0.65579068640E+03  0.65579068640E+03  0.00000000000E+00 0. -1.
      99926    2    1    2    0    0  0.00000000000E+00  0.00000000000E+00 -0.57730709040E+03  0.73427428239E+03  0.45373477401E+03 0.  0.
      99925    2    3    3    0    0 -0.31161866379E+02 -0.77986197650E+02 -0.48353779838E+03  0.55681133649E+03  0.26301549962E+03 0.  0.
         25    1    4    4    0    0 -0.42909639185E+02 -0.66528049963E+02 -0.29329342231E+03  0.32853577924E+03  0.12509000000E+03 0.  0.
         25    1    3    3    0    0  0.31161866379E+02  0.77986197650E+02 -0.93769292023E+02  0.17746294590E+03  0.12509000000E+03 0.  0.
         25    1    4    4    0    0  0.11747772806E+02 -0.11458147687E+02 -0.19024437607E+03  0.22827555725E+03  0.12509000000E+03 0.  0.
<mgrwt>
<rscale>  2 0.45373477E+03</rscale>
<asrwt>0</asrwt>
<pdfrwt beam="1">  1       21 0.11541706E-01 0.45373477E+03</pdfrwt>
<pdfrwt beam="2">  1       21 0.96439805E-01 0.45373477E+03</pdfrwt>
<totfact> 0.51592632E+04</totfact>
</mgrwt>
</event>
<event>
 7    0  0.4705418E-002  0.4537963E+03  0.7546771E-02  0.1026596E+00
         21   -1    0    0  502  501  0.00000000000E+00  0.00000000000E+00  0.24510779462E+02  0.24510779462E+02  0.00000000000E+00 0.  1.
         21   -1    0    0  501  502 -0.00000000000E+00 -0.00000000000E+00 -0.21004133254E+04  0.21004133254E+04  0.00000000000E+00 0.  1.
      99926    2    1    2    0    0  0.00000000000E+00  0.00000000000E+00 -0.20759025460E+04  0.21249241049E+04  0.45379628821E+03 0.  0.
      99925    2    3    3    0    0 -0.94548051286E+02 -0.59777264173E+02 -0.13362929858E+04  0.13665162562E+04  0.26301155742E+03 0.  0.
         25    1    4    4    0    0 -0.79283059391E+01 -0.10255646711E+02 -0.57649261075E+03  0.59005023063E+03  0.12509000000E+03 0.  0.
         25    1    4    4    0    0 -0.86619745347E+02 -0.49521617462E+02 -0.75980037503E+03  0.77646602557E+03  0.12509000000E+03 0.  0.
         25    1    3    3    0    0  0.94548051286E+02  0.59777264173E+02 -0.73960956019E+03  0.75840784868E+03  0.12509000000E+03 0.  0.
<mgrwt>
<rscale>  2 0.45379629E+03</rscale>
<asrwt>0</asrwt>
<pdfrwt beam="1">  1       21 0.36045264E-02 0.45379629E+03</pdfrwt>
<pdfrwt beam="2">  1       21 0.30888431E+00 0.45379629E+03</pdfrwt>
<totfact> 0.11886070E+04</totfact>
</mgrwt>
</event>
<event>
 6    0  0.4705418E-002  0.4526560E+03  0.7546771E-02  0.1026933E+00
         21   -1    0    0  502  501  0.00000000000E+00  0.00000000000E+00  0.10734522248E+04  0.10734522248E+04  0.00000000000E+00 0.  1.
         21   -1    0    0  501  502 -0.00000000000E+00 -0.00000000000E+00 -0.47719272664E+02  0.47719272664E+02  0.00000000000E+00 0.  1.
      99926    2    1    2    0    0  0.00000000000E+00 -0.14210854715E-13  0.10257329521E+04  0.11211714974E+04  0.45265598154E+03 0.  0.
         25    1    3    3    0    0 -0.51923362753E+02  0.85391188464E+02  0.28305120313E+03  0.32519714384E+03  0.12509000000E+03 0.  0.
         25    1    3    3    0    0 -0.99915734991E+01 -0.98225227171E+01  0.37282266608E+03  0.39349785506E+03  0.12509000000E+03 0.  0.
         25    1    3    3    0    0  0.61914936252E+02 -0.75568665747E+02  0.36985908290E+03  0.40247649854E+03  0.12509000000E+03 0.  0.
<mgrwt>
<rscale>  2 0.45265598E+03</rscale>
<asrwt>0</asrwt>
<pdfrwt beam="1">  1       21 0.15786061E+00 0.45265598E+03</pdfrwt>
<pdfrwt beam="2">  1       21 0.70175407E-02 0.45265598E+03</pdfrwt>
<totfact> 0.35402116E+04</totfact>
</mgrwt>
</event>
<event>
 7    0  0.4705418E-002  0.4532545E+03  0.7546771E-02  0.1026756E+00
         21   -1    0    0  502  501  0.00000000000E+00  0.00000000000E+00  0.55756757067E+02  0.55756757067E+02  0.00000000000E+00 0.  1.
         21   -1    0    0  501  502 -0.00000000000E+00 -0.00000000000E+00 -0.92114250870E+03  0.92114250870E+03  0.00000000000E+00 0.  1.
      99926    2    1    2    0    0  0.00000000000E+00  0.00000000000E+00 -0.86538575164E+03  0.97689926577E+03  0.45325453812E+03 0.  0.
      99925    2    3    3    0    0  0.15853053852E+02 -0.10686650807E+03 -0.48639354178E+03  0.56343297562E+03  0.26307084723E+03 0.  0.
         25    1    4    4    0    0 -0.18185798003E+02 -0.77380411235E+02 -0.29838768524E+03  0.33316838100E+03  0.12509000000E+03 0.  0.
         25    1    4    4    0    0  0.34038851856E+02 -0.29486096833E+02 -0.18800585654E+03  0.23026459462E+03  0.12509000000E+03 0.  0.
         25    1    3    3    0    0 -0.15853053852E+02  0.10686650807E+03 -0.37899220985E+03  0.41346629015E+03  0.12509000000E+03 0.  0.
<mgrwt>
<rscale>  2 0.45325454E+03</rscale>
<asrwt>0</asrwt>
<pdfrwt beam="1">  1       21 0.81995231E-02 0.45325454E+03</pdfrwt>
<pdfrwt beam="2">  1       21 0.13546213E+00 0.45325454E+03</pdfrwt>
<totfact> 0.40621723E+04</totfact>
</mgrwt>
</event>
<event>
 7    0  0.4705418E-002  0.4565169E+03  0.7546771E-02  0.1025796E+00
         21   -1    0    0  502  501  0.00000000000E+00  0.00000000000E+00  0.29603804885E+03  0.29603804885E+03  0.00000000000E+00 0.  1.
         21   -1    0    0  501  502 -0.00000000000E+00 -0.00000000000E+00 -0.17599735692E+03  0.17599735692E+03  0.00000000000E+00 0.  1.
      99926    2    1    2    0    0 -0.14210854715E-13  0.00000000000E+00  0.12004069193E+03  0.47203540577E+03  0.45651687436E+03 0.  0.
      99925    2    3    3    0    0 -0.96174190221E+02  0.13145680204E+02  0.13838745124E+03  0.31264156821E+03  0.26300452419E+03 0.  0.
         25    1    4    4    0    0 -0.10367648876E+02 -0.71982538198E+01  0.78934512680E+02  0.14845022194E+03  0.12509000000E+03 0.  0.
         25    1    4    4    0    0 -0.85806541345E+02  0.20343934024E+02  0.59452938556E+02  0.16419134628E+03  0.12509000000E+03 0.  0.
         25    1    3    3    0    0  0.96174190221E+02 -0.13145680204E+02 -0.18346759310E+02  0.15939383755E+03  0.12509000000E+03 0.  0.
<mgrwt>
<rscale>  2 0.45651687E+03</rscale>
<asrwt>0</asrwt>
<pdfrwt beam="1">  1       21 0.43535007E-01 0.45651687E+03</pdfrwt>
<pdfrwt beam="2">  1       21 0.25881964E-01 0.45651687E+03</pdfrwt>
<totfact> 0.66480998E+04</totfact>
</mgrwt>
</event>
<event>
 7    0  0.4705418E-002  0.4512215E+03  0.7546771E-02  0.1027358E+00
         21   -1    0    0  502  501  0.00000000000E+00  0.00000000000E+00  0.90281725760E+03  0.90281725760E+03  0.00000000000E+00 0.  1.
         21   -1    0    0  501  502 -0.00000000000E+00 -0.00000000000E+00 -0.56379314099E+02  0.56379314099E+02  0.00000000000E+00 0.  1.
      99926    2    1    2    0    0  0.00000000000E+00  0.88817841970E-15  0.84643794350E+03  0.95919657170E+03  0.45122153202E+03 0.  0.
      99925    2    3    3    0    0 -0.38828902452E+02  0.70820994486E+01  0.75164011197E+03  0.79735721690E+03  0.26316883103E+03 0.  0.
         25    1    4    4    0    0  0.87803184371E+00 -0.31218061820E+02  0.38845048218E+03  0.40928794697E+03  0.12509000000E+03 0.  0.
         25    1    3    3    0    0  0.38828902452E+02 -0.70820994486E+01  0.94797831534E+02  0.16183935480E+03  0.12509000000E+03 0.  0.
         25    1    4    4    0    0 -0.39706934296E+02  0.38300161268E+02  0.36318962979E+03  0.38806926994E+03  0.12509000000E+03 0.  0.
<mgrwt>
<rscale>  2 0.45122153E+03</rscale>
<asrwt>0</asrwt>
<pdfrwt beam="1">  1       21 0.13276724E+00 0.45122153E+03</pdfrwt>
<pdfrwt beam="2">  1       21 0.82910761E-02 0.45122153E+03</pdfrwt>
<totfact> 0.41997765E+04</totfact>
</mgrwt>
</event>
<event>
 7    0  0.4705418E-002  0.5182029E+03  0.7546771E-02  0.1009134E+00
         21   -1    0    0  502  501  0.00000000000E+00  0.00000000000E+00  0.63093280081E+03  0.63093280081E+03  0.00000000000E+00 0.  1.
         21   -1    0    0  501  502 -0.00000000000E+00 -0.00000000000E+00 -0.10640367968E+03  0.10640367968E+03  0.00000000000E+00 0.  1.
      99926    2    1    2    0    0  0.00000000000E+00  0.00000000000E+00  0.52452912113E+03  0.73733648048E+03  0.51820293953E+03 0.  0.
      99925    2    3    3    0    0  0.51174940089E+02 -0.15501017656E+03  0.35367493500E+03  0.46996840021E+03  0.26293974257E+03 0.  0.
         25    1    3    3    0    0 -0.51174940089E+02  0.15501017656E+03  0.17085418613E+03  0.26736808027E+03  0.12509000000E+03 0.  0.
         25    1    4    4    0    0  0.57566760664E+02 -0.10336601672E+03  0.17235997747E+03  0.24362663089E+03  0.12509000000E+03 0.  0.
         25    1    4    4    0    0 -0.63918205744E+01 -0.51644159839E+02  0.18131495752E+03  0.22634176932E+03  0.12509000000E+03 0.  0.
<mgrwt>
<rscale>  2 0.51820294E+03</rscale>
<asrwt>0</asrwt>
<pdfrwt beam="1">  1       21 0.92784234E-01 0.51820294E+03</pdfrwt>
<pdfrwt beam="2">  1       21 0.15647600E-01 0.51820294E+03</pdfrwt>
<totfact> 0.31865417E+04</totfact>
</mgrwt>
</event>
<event>
 7    0  0.4705418E-002  0.4630109E+03  0.7546771E-02  0.1023912E+00
         21   -1    0    0  502  501  0.00000000000E+00  0.00000000000E+00  0.85276172064E+02  0.85276172064E+02  0.00000000000E+00 0.  1.
         21   -1    0    0  501  502 -0.00000000000E+00 -0.00000000000E+00 -0.62848484041E+03  0.62848484041E+03  0.00000000000E+00 0.  1.
      99926    2    1    2    0    0  0.00000000000E+00  0.00000000000E+00 -0.54320866835E+03  0.71376101248E+03  0.46301093460E+03 0.  0.
      99925    2    3    3    0    0  0.63321180836E+02 -0.90422876687E+02 -0.26383230983E+03  0.38836198609E+03  0.26273879798E+03 0.  0.
         25    1    4    4    0    0  0.66788298165E+01 -0.72565880950E+02 -0.11335878968E+03  0.18386989189E+03  0.12509000000E+03 0.  0.
         25    1    4    4    0    0  0.56642351020E+02 -0.17856995737E+02 -0.15047352015E+03  0.20449209420E+03  0.12509000000E+03 0.  0.
         25    1    3    3    0    0 -0.63321180836E+02  0.90422876687E+02 -0.27937635852E+03  0.32539902639E+03  0.12509000000E+03 0.  0.
<mgrwt>
<rscale>  2 0.46301093E+03</rscale>
<asrwt>0</asrwt>
<pdfrwt beam="1">  1       21 0.12540614E-01 0.46301093E+03</pdfrwt>
<pdfrwt beam="2">  1       21 0.92424241E-01 0.46301093E+03</pdfrwt>
<totfact> 0.49000289E+04</totfact>
</mgrwt>
</event>
<event>
 7    0  0.4705418E-002  0.4544563E+03  0.7546771E-02  0.1026401E+00
         21   -1    0    0  502  501  0.00000000000E+00  0.00000000000E+00  0.15250181600E+03  0.15250181600E+03  0.00000000000E+00 0. -1.
         21   -1    0    0  501  502 -0.00000000000E+00 -0.00000000000E+00 -0.33857058388E+03  0.33857058388E+03  0.00000000000E+00 0. -1.
      99926    2    1    2    0    0  0.00000000000E+00  0.00000000000E+00 -0.18606876789E+03  0.49107239988E+03  0.45445628562E+03 0.  0.
      99925    2    3    3    0    0 -0.63755947305E+02  0.89141711055E+02 -0.14488662297E+03  0.31974072556E+03  0.26311771624E+03 0.  0.
         25    1    3    3    0    0  0.63755947305E+02 -0.89141711055E+02 -0.41182144916E+02  0.17133167432E+03  0.12509000000E+03 0.  0.
         25    1    4    4    0    0 -0.47932793459E+01  0.73991587443E+02 -0.83489333819E+02  0.16767739114E+03  0.12509000000E+03 0.  0.
         25    1    4    4    0    0 -0.58962667959E+02  0.15150123613E+02 -0.61397289151E+02  0.15206333441E+03  0.12509000000E+03 0.  0.
<mgrwt>
<rscale>  2 0.45445629E+03</rscale>
<asrwt>0</asrwt>
<pdfrwt beam="1">  1       21 0.22426738E-01 0.45445629E+03</pdfrwt>
<pdfrwt beam="2">  1       21 0.49789791E-01 0.45445629E+03</pdfrwt>
<totfact> 0.66187743E+04</totfact>
</mgrwt>
</event>
<event>
 7    0  0.4705418E-002  0.4503856E+03  0.7546771E-02  0.1027607E+00
         21   -1    0    0  502  501  0.00000000000E+00  0.00000000000E+00  0.50710562552E+03  0.50710562552E+03  0.00000000000E+00 0. -1.
         21   -1    0    0  501  502 -0.00000000000E+00 -0.00000000000E+00 -0.10000241400E+03  0.10000241400E+03  0.00000000000E+00 0. -1.
      99926    2    1    2    0    0 -0.88817841970E-15  0.00000000000E+00  0.40710321152E+03  0.60710803952E+03  0.45038555353E+03 0.  0.
      99925    2    3    3    0    0  0.74468909875E+01 -0.32469406833E+02  0.11765584458E+03  0.29003233107E+03  0.26299455647E+03 0.  0.
         25    1    3    3    0    0 -0.74468909875E+01  0.32469406833E+02  0.28944736694E+03  0.31707570846E+03  0.12509000000E+03 0.  0.
         25    1    4    4    0    0  0.14473953262E+02  0.17554341564E+02  0.35203632505E+02  0.13192594162E+03  0.12509000000E+03 0.  0.
         25    1    4    4    0    0 -0.70270622741E+01 -0.50023748397E+02  0.82452212072E+02  0.15810638945E+03  0.12509000000E+03 0.  0.
<mgrwt>
<rscale>  2 0.45038555E+03</rscale>
<asrwt>0</asrwt>
<pdfrwt beam="1">  1       21 0.74574356E-01 0.45038555E+03</pdfrwt>
<pdfrwt beam="2">  1       21 0.14706238E-01 0.45038555E+03</pdfrwt>
<totfact> 0.60415155E+04</totfact>
</mgrwt>
</event>
<event>
 7    0  0.4705418E-002  0.4601084E+03  0.7546771E-02  0.1024750E+00
         21   -1    0    0  502  501  0.00000000000E+00  0.00000000000E+00  0.22240429399E+02  0.22240429399E+02  0.00000000000E+00 0. -1.
         21   -1    0    0  501  502 -0.00000000000E+00 -0.00000000000E+00 -0.23796721777E+04  0.23796721777E+04  0.00000000000E+00 0. -1.
      99926    2    1    2    0    0  0.00000000000E+00  0.00000000000E+00 -0.23574317483E+04  0.24019126071E+04  0.46010838315E+03 0.  0.
      99925    2    3    3    0    0  0.86011167028E+02 -0.80378972083E+02 -0.14496761763E+04  0.14780476892E+04  0.26306891737E+03 0.  0.
         25    1    4    4    0    0  0.36716227914E+02 -0.29304369551E+02 -0.50019193141E+03  0.51773188410E+03  0.12509000000E+03 0.  0.
         25    1    3    3    0    0 -0.86011167028E+02  0.80378972083E+02 -0.90775557200E+03  0.92386491794E+03  0.12509000000E+03 0.  0.
         25    1    4    4    0    0  0.49294939114E+02 -0.51074602533E+02 -0.94948424494E+03  0.96031580510E+03  0.12509000000E+03 0.  0.
<mgrwt>
<rscale>  2 0.46010838E+03</rscale>
<asrwt>0</asrwt>
<pdfrwt beam="1">  1       21 0.32706515E-02 0.46010838E+03</pdfrwt>
<pdfrwt beam="2">  1       21 0.34995178E+00 0.46010838E+03</pdfrwt>
<totfact> 0.78709148E+03</totfact>
</mgrwt>
</event>
<event>
 7    0  0.4705418E-002  0.4373066E+03  0.7546771E-02  0.1031576E+00
         21   -1    0    0  502  501  0.00000000000E+00  0.00000000000E+00  0.16622558560E+04  0.16622558560E+04  0.00000000000E+00 0.  1.
         21   -1    0    0  501  502 -0.00000000000E+00 -0.00000000000E+00 -0.28761670935E+02  0.28761670935E+02  0.00000000000E+00 0.  1.
      99926    2    1    2    0    0  0.00000000000E+00  0.00000000000E+00  0.16334941851E+04  0.16910175269E+04  0.43730655582E+03 0.  0.
      99925    2    3    3    0    0  0.13286303793E+02  0.83962473828E+02  0.87672449762E+03  0.91928305782E+03  0.26307655311E+03 0.  0.
         25    1    4    4    0    0  0.10058709978E+02  0.18578730115E+01  0.44457460128E+03  0.46195098608E+03  0.12509000000E+03 0.  0.
         25    1    3    3    0    0 -0.13286303793E+02 -0.83962473828E+02  0.75676968745E+03  0.77173446911E+03  0.12509000000E+03 0.  0.
         25    1    4    4    0    0  0.32275938149E+01  0.82104600817E+02  0.43214989634E+03  0.45733207174E+03  0.12509000000E+03 0.  0.
<mgrwt>
<rscale>  2 0.43730656E+03</rscale>
<asrwt>0</asrwt>
<pdfrwt beam="1">  1       21 0.24444933E+00 0.43730656E+03</pdfrwt>
<pdfrwt beam="2">  1       21 0.42296586E-02 0.43730656E+03</pdfrwt>
<totfact> 0.22367794E+04</totfact>
</mgrwt>
</event>
<event>
 7    0  0.4705418E-002  0.4666250E+03  0.7546771E-02  0.1022877E+00
         21   -1    0    0  502  501  0.00000000000E+00  0.00000000000E+00  0.35610685740E+03  0.35610685740E+03  0.00000000000E+00 0.  1.
         21   -1    0    0  501  502 -0.00000000000E+00 -0.00000000000E+00 -0.15286065735E+03  0.15286065735E+03  0.00000000000E+00 0.  1.
      99926    2    1    2    0    0  0.35527136788E-14 -0.14210854715E-13  0.20324620005E+03  0.50896751474E+03  0.46662502422E+03 0.  0.
      99925    2    3    3    0    0 -0.30435572563E+02 -0.11472618732E+03  0.88694884745E+02  0.30194593598E+03  0.26308961124E+03 0.  0.
         25    1    4    4    0    0  0.18334580922E+02 -0.30484545414E+02  0.43379510737E+02  0.13709396201E+03  0.12509000000E+03 0.  0.
         25    1    3    3    0    0  0.30435572563E+02  0.11472618732E+03  0.11455131530E+03  0.20702157876E+03  0.12509000000E+03 0.  0.
         25    1    4    4    0    0 -0.48770153485E+02 -0.84241641906E+02  0.45315374009E+02  0.16485197398E+03  0.12509000000E+03 0.  0.
<mgrwt>
<rscale>  2 0.46662502E+03</rscale>
<asrwt>0</asrwt>
<pdfrwt beam="1">  1       21 0.52368656E-01 0.46662502E+03</pdfrwt>
<pdfrwt beam="2">  1       21 0.22479508E-01 0.46662502E+03</pdfrwt>
<totfact> 0.59009142E+04</totfact>
</mgrwt>
</event>
<event>
 7    0  0.4705418E-002  0.4591923E+03  0.7546771E-02  0.1025016E+00
         21   -1    0    0  502  501  0.00000000000E+00  0.00000000000E+00  0.18886412709E+04  0.18886412709E+04  0.00000000000E+00 0.  1.
         21   -1    0    0  501  502 -0.00000000000E+00 -0.00000000000E+00 -0.27911278055E+02  0.27911278055E+02  0.00000000000E+00 0.  1.
      99926    2    1    2    0    0  0.00000000000E+00  0.00000000000E+00  0.18607299928E+04  0.19165525490E+04  0.45919229810E+03 0.  0.
      99925    2    3    3    0    0  0.67358142446E+02 -0.51403455233E+02  0.15038136279E+04  0.15289751577E+04  0.26292616982E+03 0.  0.
         25    1    4    4    0    0  0.48409068147E+02 -0.58735064295E+02  0.69126070467E+03  0.70659897790E+03  0.12509000000E+03 0.  0.
         25    1    3    3    0    0 -0.67358142446E+02  0.51403455233E+02  0.35691636494E+03  0.38757739128E+03  0.12509000000E+03 0.  0.
         25    1    4    4    0    0  0.18949074299E+02  0.73316090620E+01  0.81255292324E+03  0.82237617978E+03  0.12509000000E+03 0.  0.
<mgrwt>
<rscale>  2 0.45919230E+03</rscale>
<asrwt>0</asrwt>
<pdfrwt beam="1">  1       21 0.27774128E+00 0.45919230E+03</pdfrwt>
<pdfrwt beam="2">  1       21 0.41046010E-02 0.45919230E+03</pdfrwt>
<totfact> 0.14638296E+04</totfact>
</mgrwt>
</event>
<event>
 7    0  0.4705418E-002  0.4640061E+03  0.7546771E-02  0.1023626E+00
         21   -1    0    0  502  501  0.00000000000E+00  0.00000000000E+00  0.50834255187E+03  0.50834255187E+03  0.00000000000E+00 0.  1.
         21   -1    0    0  501  502 -0.00000000000E+00 -0.00000000000E+00 -0.10588413420E+03  0.10588413420E+03  0.00000000000E+00 0.  1.
      99926    2    1    2    0    0 -0.14210854715E-13  0.00000000000E+00  0.40245841767E+03  0.61422668607E+03  0.46400608178E+03 0.  0.
      99925    2    3    3    0    0 -0.83119974431E+02  0.34338946202E+02  0.14302537121E+03  0.31249649688E+03  0.26288725792E+03 0.  0.
         25    1    4    4    0    0 -0.35850096725E+02  0.43850504559E+02  0.10584594085E+03  0.17337522165E+03  0.12509000000E+03 0.  0.
         25    1    4    4    0    0 -0.47269877706E+02 -0.95115583570E+01  0.37179430359E+02  0.13912127523E+03  0.12509000000E+03 0.  0.
         25    1    3    3    0    0  0.83119974431E+02 -0.34338946202E+02  0.25943304646E+03  0.30173018919E+03  0.12509000000E+03 0.  0.
<mgrwt>
<rscale>  2 0.46400608E+03</rscale>
<asrwt>0</asrwt>
<pdfrwt beam="1">  1       21 0.74756257E-01 0.46400608E+03</pdfrwt>
<pdfrwt beam="2">  1       21 0.15571196E-01 0.46400608E+03</pdfrwt>
<totfact> 0.53875203E+04</totfact>
</mgrwt>
</event>
<event>
 7    0  0.4705418E-002  0.4505691E+03  0.7546771E-02  0.1027552E+00
         21   -1    0    0  502  501  0.00000000000E+00  0.00000000000E+00  0.12732907859E+03  0.12732907859E+03  0.00000000000E+00 0. -1.
         21   -1    0    0  501  502 -0.00000000000E+00 -0.00000000000E+00 -0.39859818379E+03  0.39859818379E+03  0.00000000000E+00 0. -1.
      99926    2    1    2    0    0 -0.14210854715E-13  0.71054273576E-14 -0.27126910520E+03  0.52592726237E+03  0.45056914882E+03 0.  0.
      99925    2    3    3    0    0 -0.75962936806E+02  0.36072325442E+02 -0.25227855168E+03  0.37400712002E+03  0.26299292339E+03 0.  0.
         25    1    3    3    0    0  0.75962936806E+02 -0.36072325442E+02 -0.18990553519E+02  0.15192014236E+03  0.12509000000E+03 0.  0.
         25    1    4    4    0    0 -0.38667552343E+02 -0.18578253437E+02 -0.97565249205E+02  0.16433750959E+03  0.12509000000E+03 0.  0.
         25    1    4    4    0    0 -0.37295384462E+02  0.54650578879E+02 -0.15471330248E+03  0.20966961043E+03  0.12509000000E+03 0.  0.
<mgrwt>
<rscale>  2 0.45056915E+03</rscale>
<asrwt>0</asrwt>
<pdfrwt beam="1">  1       21 0.18724865E-01 0.45056915E+03</pdfrwt>
<pdfrwt beam="2">  1       21 0.58617379E-01 0.45056915E+03</pdfrwt>
<totfact> 0.65762446E+04</totfact>
</mgrwt>
</event>
<event>
 7    0  0.4705418E-002  0.4485748E+03  0.7546771E-02  0.1028148E+00
         21   -1    0    0  502  501  0.00000000000E+00  0.00000000000E+00  0.49939206000E+02  0.49939206000E+02  0.00000000000E+00 0.  1.
         21   -1    0    0  501  502 -0.00000000000E+00 -0.00000000000E+00 -0.10073214055E+04  0.10073214055E+04  0.00000000000E+00 0.  1.
      99926    2    1    2    0    0 -0.71054273576E-14  0.00000000000E+00 -0.95738219949E+03  0.10572606115E+04  0.44857477048E+03 0.  0.
      99925    2    3    3    0    0 -0.43806299666E+02  0.59488841350E+02 -0.78781732352E+03  0.83397230146E+03  0.26343073135E+03 0.  0.
         25    1    4    4    0    0  0.35471656680E+00  0.52564503539E+02 -0.31802621567E+03  0.34576196264E+03  0.12509000000E+03 0.  0.
         25    1    3    3    0    0  0.43806299666E+02 -0.59488841350E+02 -0.16956487596E+03  0.22328831003E+03  0.12509000000E+03 0.  0.
         25    1    4    4    0    0 -0.44161016232E+02  0.69243378111E+01 -0.46979110785E+03  0.48821033881E+03  0.12509000000E+03 0.  0.
<mgrwt>
<rscale>  2 0.44857477E+03</rscale>
<asrwt>0</asrwt>
<pdfrwt beam="1">  1       21 0.73440018E-02 0.44857477E+03</pdfrwt>
<pdfrwt beam="2">  1       21 0.14813548E+00 0.44857477E+03</pdfrwt>
<totfact> 0.38927858E+04</totfact>
</mgrwt>
</event>
<event>
 7    0  0.4705418E-002  0.4538178E+03  0.7546771E-02  0.1026590E+00
         21   -1    0    0  502  501  0.00000000000E+00  0.00000000000E+00  0.17375272706E+04  0.17375272706E+04  0.00000000000E+00 0.  1.
         21   -1    0    0  501  502 -0.00000000000E+00 -0.00000000000E+00 -0.29632717343E+02  0.29632717343E+02  0.00000000000E+00 0.  1.
      99926    2    1    2    0    0  0.00000000000E+00  0.14210854715E-13  0.17078945532E+04  0.17671599879E+04  0.45381782461E+03 0.  0.
      99925    2    3    3    0    0  0.55739228512E+02 -0.95735537298E+02  0.10114177174E+04  0.10509200521E+04  0.26304942911E+03 0.  0.
         25    1    4    4    0    0  0.47122716990E+02 -0.11946827673E+02  0.50460673311E+03  0.52214819769E+03  0.12509000000E+03 0.  0.
         25    1    3    3    0    0 -0.55739228512E+02  0.95735537298E+02  0.69647683581E+03  0.71623993579E+03  0.12509000000E+03 0.  0.
         25    1    4    4    0    0  0.86165115222E+01 -0.83788709625E+02  0.50681098429E+03  0.52877185443E+03  0.12509000000E+03 0.  0.
<mgrwt>
<rscale>  2 0.45381782E+03</rscale>
<asrwt>0</asrwt>
<pdfrwt beam="1">  1       21 0.25551865E+00 0.45381782E+03</pdfrwt>
<pdfrwt beam="2">  1       21 0.43577537E-02 0.45381782E+03</pdfrwt>
<totfact> 0.18064313E+04</totfact>
</mgrwt>
</event>
<event>
 7    0  0.4705418E-002  0.4527108E+03  0.7546771E-02  0.1026917E+00
         21   -1    0    0  502  501  0.00000000000E+00  0.00000000000E+00  0.26180460344E+03  0.26180460344E+03  0.00000000000E+00 0.  1.
         21   -1    0    0  501  502 -0.00000000000E+00 -0.00000000000E+00 -0.19570617105E+03  0.19570617105E+03  0.00000000000E+00 0.  1.
      99926    2    1    2    0    0  0.00000000000E+00  0.35527136788E-14  0.66098432390E+02  0.45751077448E+03  0.45271084149E+03 0.  0.
      99925    2    3    3    0    0  0.78800783986E+01  0.13118788197E+02 -0.69531641558E+02  0.27236968423E+03  0.26289997617E+03 0.  0.
         25    1    3    3    0    0 -0.78800783986E+01 -0.13118788197E+02  0.13563007395E+03  0.18514109025E+03  0.12509000000E+03 0.  0.
         25    1    4    4    0    0  0.85065039202E+01  0.33543470424E+02 -0.65921620987E+02  0.14557023470E+03  0.12509000000E+03 0.  0.
         25    1    4    4    0    0 -0.62642552163E+00 -0.20424682227E+02 -0.36100205716E+01  0.12679944953E+03  0.12509000000E+03 0.  0.
<mgrwt>
<rscale>  2 0.45271084E+03</rscale>
<asrwt>0</asrwt>
<pdfrwt beam="1">  1       21 0.38500677E-01 0.45271084E+03</pdfrwt>
<pdfrwt beam="2">  1       21 0.28780319E-01 0.45271084E+03</pdfrwt>
<totfact> 0.69624731E+04</totfact>
</mgrwt>
</event>
<event>
 7    0  0.4705418E-002  0.4537378E+03  0.7546771E-02  0.1026613E+00
         21   -1    0    0  502  501  0.00000000000E+00  0.00000000000E+00  0.96573771721E+02  0.96573771721E+02  0.00000000000E+00 0. -1.
         21   -1    0    0  501  502 -0.00000000000E+00 -0.00000000000E+00 -0.53295517984E+03  0.53295517984E+03  0.00000000000E+00 0. -1.
      99926    2    1    2    0    0  0.00000000000E+00  0.00000000000E+00 -0.43638140811E+03  0.62952895156E+03  0.45373777394E+03 0.  0.
      99925    2    3    3    0    0  0.10860230829E+03  0.26389456388E+02 -0.26175303055E+03  0.38738551653E+03  0.26279654610E+03 0.  0.
         25    1    4    4    0    0  0.75936510394E+02  0.12705079460E+02 -0.18569182978E+03  0.23676303851E+03  0.12509000000E+03 0.  0.
         25    1    3    3    0    0 -0.10860230829E+03 -0.26389456388E+02 -0.17462837757E+03  0.24214343503E+03  0.12509000000E+03 0.  0.
         25    1    4    4    0    0  0.32665797896E+02  0.13684376927E+02 -0.76061200765E+02  0.15062247802E+03  0.12509000000E+03 0.  0.
<mgrwt>
<rscale>  2 0.45373777E+03</rscale>
<asrwt>0</asrwt>
<pdfrwt beam="1">  1       21 0.14202025E-01 0.45373777E+03</pdfrwt>
<pdfrwt beam="2">  1       21 0.78375761E-01 0.45373777E+03</pdfrwt>
<totfact> 0.57466993E+04</totfact>
</mgrwt>
</event>
<event>
 7    0  0.4705418E-002  0.4530527E+03  0.7546771E-02  0.1026816E+00
         21   -1    0    0  502  501  0.00000000000E+00  0.00000000000E+00  0.44747312030E+03  0.44747312030E+03  0.00000000000E+00 0. -1.
         21   -1    0    0  501  502 -0.00000000000E+00 -0.00000000000E+00 -0.11467544644E+03  0.11467544644E+03  0.00000000000E+00 0. -1.
      99926    2    1    2    0    0  0.00000000000E+00  0.00000000000E+00  0.33279767387E+03  0.56214856674E+03  0.45305266731E+03 0.  0.
      99925    2    3    3    0    0 -0.16003494442E+02  0.74042847337E+02  0.31084329614E+03  0.41427038080E+03  0.26316903042E+03 0.  0.
         25    1    4    4    0    0 -0.37562453864E+02  0.23576296884E+02  0.11571080027E+03  0.17607747475E+03  0.12509000000E+03 0.  0.
         25    1    4    4    0    0  0.21558959422E+02  0.50466550453E+02  0.19513249588E+03  0.23819290605E+03  0.12509000000E+03 0.  0.
         25    1    3    3    0    0  0.16003494442E+02 -0.74042847337E+02  0.21954377726E+02  0.14787818594E+03  0.12509000000E+03 0.  0.
<mgrwt>
<rscale>  2 0.45305267E+03</rscale>
<asrwt>0</asrwt>
<pdfrwt beam="1">  1       21 0.65804870E-01 0.45305267E+03</pdfrwt>
<pdfrwt beam="2">  1       21 0.16864036E-01 0.45305267E+03</pdfrwt>
<totfact> 0.62020543E+04</totfact>
</mgrwt>
</event>
<event>
 7    0  0.4705418E-002  0.4512252E+03  0.7546771E-02  0.1027357E+00
         21   -1    0    0  502  501  0.00000000000E+00  0.00000000000E+00  0.56596701932E+03  0.56596701932E+03  0.00000000000E+00 0. -1.
         21   -1    0    0  501  502 -0.00000000000E+00 -0.00000000000E+00 -0.89936418463E+02  0.89936418463E+02  0.00000000000E+00 0. -1.
      99926    2    1    2    0    0  0.00000000000E+00  0.00000000000E+00  0.47603060085E+03  0.65590343778E+03  0.45122520623E+03 0.  0.
      99925    2    3    3    0    0 -0.57393070221E+02  0.93197297607E+02  0.30547492609E+03  0.41775128666E+03  0.26309980282E+03 0.  0.
         25    1    4    4    0    0 -0.14513815153E+02  0.65784873034E+02  0.10777353871E+03  0.17832819210E+03  0.12509000000E+03 0.  0.
         25    1    4    4    0    0 -0.42879255068E+02  0.27412424573E+02  0.19770138738E+03  0.23942309456E+03  0.12509000000E+03 0.  0.
         25    1    3    3    0    0  0.57393070221E+02 -0.93197297607E+02  0.17055567476E+03  0.23815215112E+03  0.12509000000E+03 0.  0.
<mgrwt>
<rscale>  2 0.45122521E+03</rscale>
<asrwt>0</asrwt>
<pdfrwt beam="1">  1       21 0.83230443E-01 0.45122521E+03</pdfrwt>
<pdfrwt beam="2">  1       21 0.13225944E-01 0.45122521E+03</pdfrwt>
<totfact> 0.57041934E+04</totfact>
</mgrwt>
</event>
<event>
 7    0  0.4705418E-002  0.4649459E+03  0.7546771E-02  0.1023356E+00
         21   -1    0    0  502  501  0.00000000000E+00  0.00000000000E+00  0.50669338796E+03  0.50669338796E+03  0.00000000000E+00 0. -1.
         21   -1    0    0  501  502 -0.00000000000E+00 -0.00000000000E+00 -0.10665952269E+03  0.10665952269E+03  0.00000000000E+00 0. -1.
      99926    2    1    2    0    0  0.71054273576E-14  0.00000000000E+00  0.40003386527E+03  0.61335291065E+03  0.46494591045E+03 0.  0.
      99925    2    3    3    0    0  0.31766210492E+02  0.89169826511E+02  0.35156264881E+03  0.44916607496E+03  0.26304660570E+03 0.  0.
         25    1    3    3    0    0 -0.31766210492E+02 -0.89169826511E+02  0.48471216468E+02  0.16418683569E+03  0.12509000000E+03 0.  0.
         25    1    4    4    0    0 -0.93523543568E+01  0.18439650979E+02  0.12737617504E+03  0.17972113211E+03  0.12509000000E+03 0.  0.
         25    1    4    4    0    0  0.41118564849E+02  0.70730175532E+02  0.22418647377E+03  0.26944494285E+03  0.12509000000E+03 0.  0.
<mgrwt>
<rscale>  2 0.46494591E+03</rscale>
<asrwt>0</asrwt>
<pdfrwt beam="1">  1       21 0.74513733E-01 0.46494591E+03</pdfrwt>
<pdfrwt beam="2">  1       21 0.15685224E-01 0.46494591E+03</pdfrwt>
<totfact> 0.53532746E+04</totfact>
</mgrwt>
</event>
<event>
 7    0  0.4705418E-002  0.4550051E+03  0.7546771E-02  0.1026240E+00
         21   -1    0    0  502  501  0.00000000000E+00  0.00000000000E+00  0.52304362720E+03  0.52304362720E+03  0.00000000000E+00 0.  1.
         21   -1    0    0  501  502 -0.00000000000E+00 -0.00000000000E+00 -0.98954283102E+02  0.98954283102E+02  0.00000000000E+00 0.  1.
      99926    2    1    2    0    0  0.00000000000E+00  0.00000000000E+00  0.42408934410E+03  0.62199791031E+03  0.45500508639E+03 0.  0.
      99925    2    3    3    0    0  0.96252907622E+02  0.47842017988E+02  0.31695126348E+03  0.42532671940E+03  0.26247139636E+03 0.  0.
         25    1    3    3    0    0 -0.96252907622E+02 -0.47842017988E+02  0.10713808062E+03  0.19667119090E+03  0.12509000000E+03 0.  0.
         25    1    4    4    0    0  0.50263241405E+02  0.18099659790E+02  0.21697799318E+03  0.25608777547E+03  0.12509000000E+03 0.  0.
         25    1    4    4    0    0  0.45989666216E+02  0.29742358199E+02  0.99973270300E+02  0.16923894394E+03  0.12509000000E+03 0.  0.
<mgrwt>
<rscale>  2 0.45500509E+03</rscale>
<asrwt>0</asrwt>
<pdfrwt beam="1">  1       21 0.76918179E-01 0.45500509E+03</pdfrwt>
<pdfrwt beam="2">  1       21 0.14552101E-01 0.45500509E+03</pdfrwt>
<totfact> 0.57341963E+04</totfact>
</mgrwt>
</event>
<event>
 7    0  0.4705418E-002  0.4504701E+03  0.7546771E-02  0.1027582E+00
         21   -1    0    0  502  501  0.00000000000E+00  0.00000000000E+00  0.51183465147E+03  0.51183465147E+03  0.00000000000E+00 0. -1.
         21   -1    0    0  501  502 -0.00000000000E+00 -0.00000000000E+00 -0.99115658734E+02  0.99115658734E+02  0.00000000000E+00 0. -1.
      99926    2    1    2    0    0  0.00000000000E+00  0.53290705182E-14  0.41271899273E+03  0.61095031020E+03  0.45047010397E+03 0.  0.
      99925    2    3    3    0    0 -0.64442975391E+02  0.15403076341E+02  0.37726965065E+03  0.46502459008E+03  0.26367655990E+03 0.  0.
         25    1    4    4    0    0 -0.30845380337E+02 -0.18893340899E+02  0.24093233530E+03  0.27386911858E+03  0.12509000000E+03 0.  0.
         25    1    3    3    0    0  0.64442975391E+02 -0.15403076341E+02  0.35449342082E+02  0.14592572012E+03  0.12509000000E+03 0.  0.
         25    1    4    4    0    0 -0.33597595053E+02  0.34296417240E+02  0.13633731535E+03  0.19115547151E+03  0.12509000000E+03 0.  0.
<mgrwt>
<rscale>  2 0.45047010E+03</rscale>
<asrwt>0</asrwt>
<pdfrwt beam="1">  1       21 0.75269800E-01 0.45047010E+03</pdfrwt>
<pdfrwt beam="2">  1       21 0.14575832E-01 0.45047010E+03</pdfrwt>
<totfact> 0.60132041E+04</totfact>
</mgrwt>
</event>
<event>
 7    0  0.4705418E-002  0.4535131E+03  0.7546771E-02  0.1026680E+00
         21   -1    0    0  502  501  0.00000000000E+00  0.00000000000E+00  0.59673073593E+02  0.59673073593E+02  0.00000000000E+00 0. -1.
         21   -1    0    0  501  502 -0.00000000000E+00 -0.00000000000E+00 -0.86167044750E+03  0.86167044750E+03  0.00000000000E+00 0. -1.
      99926    2    1    2    0    0  0.00000000000E+00 -0.71054273576E-14 -0.80199737391E+03  0.92134352109E+03  0.45351306057E+03 0.  0.
      99925    2    3    3    0    0  0.79981210416E+02  0.59756691583E+02 -0.60453527537E+03  0.66716514934E+03  0.26396700763E+03 0.  0.
         25    1    4    4    0    0  0.11580073161E+02 -0.45905962144E+01 -0.27774313763E+03  0.30486706983E+03  0.12509000000E+03 0.  0.
         25    1    3    3    0    0 -0.79981210416E+02 -0.59756691583E+02 -0.19746209853E+03  0.25417837175E+03  0.12509000000E+03 0.  0.
         25    1    4    4    0    0  0.68401137255E+02  0.64347287797E+02 -0.32679213775E+03  0.36229807951E+03  0.12509000000E+03 0.  0.
<mgrwt>
<rscale>  2 0.45351306E+03</rscale>
<asrwt>0</asrwt>
<pdfrwt beam="1">  1       21 0.87754520E-02 0.45351306E+03</pdfrwt>
<pdfrwt beam="2">  1       21 0.12671624E+00 0.45351306E+03</pdfrwt>
<totfact> 0.42819455E+04</totfact>
</mgrwt>
</event>
<event>
 7    0  0.4705418E-002  0.4563389E+03  0.7546771E-02  0.1025848E+00
         21   -1    0    0  502  501  0.00000000000E+00  0.00000000000E+00  0.89247526805E+02  0.89247526805E+02  0.00000000000E+00 0. -1.
         21   -1    0    0  501  502 -0.00000000000E+00 -0.00000000000E+00 -0.58333598772E+03  0.58333598772E+03  0.00000000000E+00 0. -1.
      99926    2    1    2    0    0  0.71054273576E-14  0.00000000000E+00 -0.49408846092E+03  0.67258351453E+03  0.45633888373E+03 0.  0.
      99925    2    3    3    0    0 -0.40637783373E+02  0.10588292183E+03 -0.28798418925E+03  0.40614571415E+03  0.26297685314E+03 0.  0.
         25    1    4    4    0    0  0.42150288476E+01  0.76232198444E+02 -0.18160218860E+03  0.23335804582E+03  0.12509000000E+03 0.  0.
         25    1    4    4    0    0 -0.44852812221E+02  0.29650723386E+02 -0.10638200066E+03  0.17278766833E+03  0.12509000000E+03 0.  0.
         25    1    3    3    0    0  0.40637783373E+02 -0.10588292183E+03 -0.20610427166E+03  0.26643780038E+03  0.12509000000E+03 0.  0.
<mgrwt>
<rscale>  2 0.45633888E+03</rscale>
<asrwt>0</asrwt>
<pdfrwt beam="1">  1       21 0.13124636E-01 0.45633888E+03</pdfrwt>
<pdfrwt beam="2">  1       21 0.85784709E-01 0.45633888E+03</pdfrwt>
<totfact> 0.53846622E+04</totfact>
</mgrwt>
</event>
<event>
 7    0  0.4705418E-002  0.4497630E+03  0.7546771E-02  0.1027793E+00
         21   -1    0    0  502  501  0.00000000000E+00  0.00000000000E+00  0.14966697868E+04  0.14966697868E+04  0.00000000000E+00 0. -1.
         21   -1    0    0  501  502 -0.00000000000E+00 -0.00000000000E+00 -0.33789474879E+02  0.33789474879E+02  0.00000000000E+00 0. -1.
      99926    2    1    2    0    0  0.00000000000E+00 -0.14210854715E-13  0.14628803119E+04  0.15304592616E+04  0.44976298719E+03 0.  0.
      99925    2    3    3    0    0 -0.38194747881E+02 -0.84107607061E+02  0.73331743371E+03  0.78450857316E+03  0.26299489435E+03 0.  0.
         25    1    3    3    0    0  0.38194747881E+02  0.84107607061E+02  0.72956287818E+03  0.74595068849E+03  0.12509000000E+03 0.  0.
         25    1    4    4    0    0 -0.41428936100E+02 -0.78566886056E+02  0.41274097056E+03  0.44033138568E+03  0.12509000000E+03 0.  0.
         25    1    4    4    0    0  0.32341882196E+01 -0.55407210051E+01  0.32057646315E+03  0.34417718749E+03  0.12509000000E+03 0.  0.
<mgrwt>
<rscale>  2 0.44976299E+03</rscale>
<asrwt>0</asrwt>
<pdfrwt beam="1">  1       21 0.22009845E+00 0.44976299E+03</pdfrwt>
<pdfrwt beam="2">  1       21 0.49690414E-02 0.44976299E+03</pdfrwt>
<totfact> 0.24004015E+04</totfact>
</mgrwt>
</event>
<event>
 7    0  0.4705418E-002  0.4555045E+03  0.7546771E-02  0.1026093E+00
         21   -1    0    0  502  501  0.00000000000E+00  0.00000000000E+00  0.19994810868E+03  0.19994810868E+03  0.00000000000E+00 0.  1.
         21   -1    0    0  501  502 -0.00000000000E+00 -0.00000000000E+00 -0.25942276752E+03  0.25942276752E+03  0.00000000000E+00 0.  1.
      99926    2    1    2    0    0  0.00000000000E+00  0.00000000000E+00 -0.59474658830E+02  0.45937087620E+03  0.45550451903E+03 0.  0.
      99925    2    3    3    0    0  0.97588544237E+02 -0.54242212868E+02 -0.14858831243E+02  0.28586634659E+03  0.26274139686E+03 0.  0.
         25    1    3    3    0    0 -0.97588544237E+02  0.54242212868E+02 -0.44615827588E+02  0.17350452961E+03  0.12509000000E+03 0.  0.
         25    1    4    4    0    0  0.16075226320E+02 -0.15676930334E+02 -0.31009707482E+02  0.13081777060E+03  0.12509000000E+03 0.  0.
         25    1    4    4    0    0  0.81513317917E+02 -0.38565282534E+02  0.16150876239E+02  0.15504857599E+03  0.12509000000E+03 0.  0.
<mgrwt>
<rscale>  2 0.45550452E+03</rscale>
<asrwt>0</asrwt>
<pdfrwt beam="1">  1       21 0.29404134E-01 0.45550452E+03</pdfrwt>
<pdfrwt beam="2">  1       21 0.38150407E-01 0.45550452E+03</pdfrwt>
<totfact> 0.67952613E+04</totfact>
</mgrwt>
</event>
<event>
 7    0  0.4705418E-002  0.4525427E+03  0.7546771E-02  0.1026966E+00
         21   -1    0    0  502  501  0.00000000000E+00  0.00000000000E+00  0.29869001298E+03  0.29869001298E+03  0.00000000000E+00 0.  1.
         21   -1    0    0  501  502 -0.00000000000E+00 -0.00000000000E+00 -0.17141090772E+03  0.17141090772E+03  0.00000000000E+00 0.  1.
      99926    2    1    2    0    0  0.71054273576E-14 -0.71054273576E-14  0.12727910526E+03  0.47010092071E+03  0.45254271071E+03 0.  0.
      99925    2    3    3    0    0 -0.52267744104E+02  0.56405945841E+02 -0.28850446076E+01  0.27387716626E+03  0.26284373859E+03 0.  0.
         25    1    3    3    0    0  0.52267744104E+02 -0.56405945841E+02  0.13016414987E+03  0.19622375445E+03  0.12509000000E+03 0.  0.
         25    1    4    4    0    0 -0.16618308809E+02 -0.12197208758E+02  0.72348434111E+00  0.12677922392E+03  0.12509000000E+03 0.  0.
         25    1    4    4    0    0 -0.35649435295E+02  0.68603154599E+02 -0.36085289487E+01  0.14709794233E+03  0.12509000000E+03 0.  0.
<mgrwt>
<rscale>  2 0.45254271E+03</rscale>
<asrwt>0</asrwt>
<pdfrwt beam="1">  1       21 0.43925002E-01 0.45254271E+03</pdfrwt>
<pdfrwt beam="2">  1       21 0.25207487E-01 0.45254271E+03</pdfrwt>
<totfact> 0.68758962E+04</totfact>
</mgrwt>
</event>
<event>
 7    0  0.4705418E-002  0.4488994E+03  0.7546771E-02  0.1028051E+00
         21   -1    0    0  502  501  0.00000000000E+00  0.00000000000E+00  0.65127008429E+03  0.65127008429E+03  0.00000000000E+00 0.  1.
         21   -1    0    0  501  502 -0.00000000000E+00 -0.00000000000E+00 -0.77352944161E+02  0.77352944161E+02  0.00000000000E+00 0.  1.
      99926    2    1    2    0    0 -0.14210854715E-13  0.00000000000E+00  0.57391714013E+03  0.72862302846E+03  0.44889935827E+03 0.  0.
      99925    2    3    3    0    0 -0.69587666490E+02 -0.18023119932E+02  0.49273765448E+03  0.56307879518E+03  0.26286889748E+03 0.  0.
         25    1    4    4    0    0 -0.74765785434E+02 -0.20689508118E+02  0.25851229687E+03  0.29747956930E+03  0.12509000000E+03 0.  0.
         25    1    4    4    0    0  0.51781189439E+01  0.26663881860E+01  0.23422535761E+03  0.26559922588E+03  0.12509000000E+03 0.  0.
         25    1    3    3    0    0  0.69587666490E+02  0.18023119932E+02  0.81179485656E+02  0.16554423328E+03  0.12509000000E+03 0.  0.
<mgrwt>
<rscale>  2 0.44889936E+03</rscale>
<asrwt>0</asrwt>
<pdfrwt beam="1">  1       21 0.95775010E-01 0.44889936E+03</pdfrwt>
<pdfrwt beam="2">  1       21 0.11375433E-01 0.44889936E+03</pdfrwt>
<totfact> 0.53916761E+04</totfact>
</mgrwt>
</event>
<event>
 6    0  0.4705418E-002  0.4506730E+03  0.7546771E-02  0.1027522E+00
         21   -1    0    0  502  501  0.00000000000E+00  0.00000000000E+00  0.13586038560E+03  0.13586038560E+03  0.00000000000E+00 0.  1.
         21   -1    0    0  501  502 -0.00000000000E+00 -0.00000000000E+00 -0.37374060731E+03  0.37374060731E+03  0.00000000000E+00 0.  1.
      99926    2    1    2    0    0  0.00000000000E+00 -0.71054273576E-14 -0.23788022171E+03  0.50960099290E+03  0.45067302126E+03 0.  0.
         25    1    3    3    0    0  0.88261986303E+02 -0.48754915563E+02 -0.14395357649E+03  0.21572519626E+03  0.12509000000E+03 0.  0.
         25    1    3    3    0    0 -0.63904831971E+02  0.53221926132E+02 -0.61385262174E+02  0.16227156092E+03  0.12509000000E+03 0.  0.
         25    1    3    3    0    0 -0.24357154332E+02 -0.44670105694E+01 -0.32541383040E+02  0.13160423572E+03  0.12509000000E+03 0.  0.
<mgrwt>
<rscale>  2 0.45067302E+03</rscale>
<asrwt>0</asrwt>
<pdfrwt beam="1">  1       21 0.19979469E-01 0.45067302E+03</pdfrwt>
<pdfrwt beam="2">  1       21 0.54961853E-01 0.45067302E+03</pdfrwt>
<totfact> 0.66868076E+04</totfact>
</mgrwt>
</event>
<event>
 7    0  0.4705418E-002  0.3995183E+03  0.7546771E-02  0.1043947E+00
         21   -1    0    0  502  501  0.00000000000E+00  0.00000000000E+00  0.72291608120E+03  0.72291608120E+03  0.00000000000E+00 0. -1.
         21   -1    0    0  501  502 -0.00000000000E+00 -0.00000000000E+00 -0.55198261599E+02  0.55198261599E+02  0.00000000000E+00 0. -1.
      99926    2    1    2    0    0  0.00000000000E+00  0.00000000000E+00  0.66771781961E+03  0.77811434280E+03  0.39951826474E+03 0.  0.
      99925    2    3    3    0    0  0.43567992078E+02  0.66404475884E+01  0.43179335115E+03  0.50746673355E+03  0.26293482479E+03 0.  0.
         25    1    4    4    0    0  0.33161325673E+02  0.17141037631E+01  0.29274682620E+03  0.32007940269E+03  0.12509000000E+03 0.  0.
         25    1    4    4    0    0  0.10406666405E+02  0.49263438253E+01  0.13904652495E+03  0.18738733087E+03  0.12509000000E+03 0.  0.
         25    1    3    3    0    0 -0.43567992078E+02 -0.66404475884E+01  0.23592446845E+03  0.27064760925E+03  0.12509000000E+03 0.  0.
<mgrwt>
<rscale>  2 0.39951826E+03</rscale>
<asrwt>0</asrwt>
<pdfrwt beam="1">  1       21 0.10631118E+00 0.39951826E+03</pdfrwt>
<pdfrwt beam="2">  1       21 0.81173918E-02 0.39951826E+03</pdfrwt>
<totfact> 0.77457883E+04</totfact>
</mgrwt>
</event>
<event>
 7    0  0.4705418E-002  0.4542235E+03  0.7546771E-02  0.1026470E+00
         21   -1    0    0  502  501  0.00000000000E+00  0.00000000000E+00  0.31675478163E+03  0.31675478163E+03  0.00000000000E+00 0.  1.
         21   -1    0    0  501  502 -0.00000000000E+00 -0.00000000000E+00 -0.16283809850E+03  0.16283809850E+03  0.00000000000E+00 0.  1.
      99926    2    1    2    0    0  0.00000000000E+00 -0.35527136788E-14  0.15391668313E+03  0.47959288012E+03  0.45422349710E+03 0.  0.
      99925    2    3    3    0    0 -0.64416077220E+02 -0.80004896917E+01 -0.74575639414E-01  0.27084840782E+03  0.26295515895E+03 0.  0.
         25    1    4    4    0    0 -0.20721913405E+02  0.27224087220E+02 -0.23388115554E+02  0.13177655584E+03  0.12509000000E+03 0.  0.
         25    1    3    3    0    0  0.64416077220E+02  0.80004896917E+01  0.15399125877E+03  0.20874447230E+03  0.12509000000E+03 0.  0.
         25    1    4    4    0    0 -0.43694163815E+02 -0.35224576912E+02  0.23313539915E+02  0.13907185198E+03  0.12509000000E+03 0.  0.
<mgrwt>
<rscale>  2 0.45422350E+03</rscale>
<asrwt>0</asrwt>
<pdfrwt beam="1">  1       21 0.46581586E-01 0.45422350E+03</pdfrwt>
<pdfrwt beam="2">  1       21 0.23946779E-01 0.45422350E+03</pdfrwt>
<totfact> 0.67142621E+04</totfact>
</mgrwt>
</event>
<event>
 7    0  0.4705418E-002  0.4436552E+03  0.7546771E-02  0.1029631E+00
         21   -1    0    0  502  501  0.00000000000E+00  0.00000000000E+00  0.80131495412E+02  0.80131495412E+02  0.00000000000E+00 0.  1.
         21   -1    0    0  501  502 -0.00000000000E+00 -0.00000000000E+00 -0.61408405686E+03  0.61408405686E+03  0.00000000000E+00 0.  1.
      99926    2    1    2    0    0  0.00000000000E+00  0.35527136788E-14 -0.53395256145E+03  0.69421555227E+03  0.44365515340E+03 0.  0.
      99925    2    3    3    0    0  0.89846318140E+02  0.31795713181E+02 -0.28184432204E+03  0.39708022833E+03  0.26296987965E+03 0.  0.
         25    1    4    4    0    0  0.35555695609E+02 -0.21428952200E+02 -0.11292835995E+03  0.17356189116E+03  0.12509000000E+03 0.  0.
         25    1    3    3    0    0 -0.89846318140E+02 -0.31795713181E+02 -0.25210823940E+03  0.29713532394E+03  0.12509000000E+03 0.  0.
         25    1    4    4    0    0  0.54290622531E+02  0.53224665381E+02 -0.16891596209E+03  0.22351833716E+03  0.12509000000E+03 0.  0.
<mgrwt>
<rscale>  2 0.44365515E+03</rscale>
<asrwt>0</asrwt>
<pdfrwt beam="1">  1       21 0.11784044E-01 0.44365515E+03</pdfrwt>
<pdfrwt beam="2">  1       21 0.90306475E-01 0.44365515E+03</pdfrwt>
<totfact> 0.58247669E+04</totfact>
</mgrwt>
</event>
<event>
 6    0  0.4705418E-002  0.4542584E+03  0.7546771E-02  0.1026460E+00
         21   -1    0    0  502  501  0.00000000000E+00  0.00000000000E+00  0.51660263458E+02  0.51660263458E+02  0.00000000000E+00 0.  1.
         21   -1    0    0  501  502 -0.00000000000E+00 -0.00000000000E+00 -0.99859469536E+03  0.99859469536E+03  0.00000000000E+00 0.  1.
      99926    2    1    2    0    0  0.14210854715E-13  0.00000000000E+00 -0.94693443190E+03  0.10502549588E+04  0.45425836283E+03 0.  0.
         25    1    3    3    0    0  0.95069454167E+02 -0.13384812455E+02 -0.25170215575E+03  0.29701656120E+03  0.12509000000E+03 0.  0.
         25    1    3    3    0    0 -0.10533873360E+03  0.12913210302E+02 -0.41093547081E+03  0.44246860800E+03  0.12509000000E+03 0.  0.
         25    1    3    3    0    0  0.10269279432E+02  0.47160215357E+00 -0.28429680535E+03  0.31076978962E+03  0.12509000000E+03 0.  0.
<mgrwt>
<rscale>  2 0.45425836E+03</rscale>
<asrwt>0</asrwt>
<pdfrwt beam="1">  1       21 0.75970969E-02 0.45425836E+03</pdfrwt>
<pdfrwt beam="2">  1       21 0.14685217E+00 0.45425836E+03</pdfrwt>
<totfact> 0.37484543E+04</totfact>
</mgrwt>
</event>
<event>
 7    0  0.4705418E-002  0.4607257E+03  0.7546771E-02  0.1024571E+00
         21   -1    0    0  502  501  0.00000000000E+00  0.00000000000E+00  0.11585631141E+04  0.11585631141E+04  0.00000000000E+00 0. -1.
         21   -1    0    0  501  502 -0.00000000000E+00 -0.00000000000E+00 -0.45804189519E+02  0.45804189519E+02  0.00000000000E+00 0. -1.
      99926    2    1    2    0    0  0.00000000000E+00  0.00000000000E+00  0.11127589246E+04  0.12043673037E+04  0.46072570777E+03 0.  0.
      99925    2    3    3    0    0 -0.22291852581E+02 -0.54725387890E+02  0.96497419785E+03  0.10019330468E+04  0.26306431350E+03 0.  0.
         25    1    4    4    0    0 -0.22604628162E+01 -0.59079328489E+02  0.59398644641E+03  0.60988759896E+03  0.12509000000E+03 0.  0.
         25    1    3    3    0    0  0.22291852581E+02  0.54725387890E+02  0.14778472676E+03  0.20243425682E+03  0.12509000000E+03 0.  0.
         25    1    4    4    0    0 -0.20031389765E+02  0.43539405993E+01  0.37098775144E+03  0.39204544787E+03  0.12509000000E+03 0.  0.
<mgrwt>
<rscale>  2 0.46072571E+03</rscale>
<asrwt>0</asrwt>
<pdfrwt beam="1">  1       21 0.17037691E+00 0.46072571E+03</pdfrwt>
<pdfrwt beam="2">  1       21 0.67359109E-02 0.46072571E+03</pdfrwt>
<totfact> 0.30628783E+04</totfact>
</mgrwt>
</event>
<event>
 7    0  0.4705418E-002  0.4565124E+03  0.7546771E-02  0.1025798E+00
         21   -1    0    0  502  501  0.00000000000E+00  0.00000000000E+00  0.77763730658E+02  0.77763730658E+02  0.00000000000E+00 0.  1.
         21   -1    0    0  501  502 -0.00000000000E+00 -0.00000000000E+00 -0.66998965125E+03  0.66998965125E+03  0.00000000000E+00 0.  1.
      99926    2    1    2    0    0  0.35527136788E-14  0.00000000000E+00 -0.59222592059E+03  0.74775338191E+03  0.45651240852E+03 0.  0.
      99925    2    3    3    0    0  0.30839269798E+02  0.75517478755E+02 -0.50449453357E+03  0.57455333997E+03  0.26256971628E+03 0.  0.
         25    1    3    3    0    0 -0.30839269798E+02 -0.75517478755E+02 -0.87731387019E+02  0.17320004194E+03  0.12509000000E+03 0.  0.
         25    1    4    4    0    0  0.32278251642E+02  0.40134880708E+02 -0.33239808727E+03  0.35887141248E+03  0.12509000000E+03 0.  0.
         25    1    4    4    0    0 -0.14389818436E+01  0.35382598047E+02 -0.17209644630E+03  0.21568192748E+03  0.12509000000E+03 0.  0.
<mgrwt>
<rscale>  2 0.45651241E+03</rscale>
<asrwt>0</asrwt>
<pdfrwt beam="1">  1       21 0.11435843E-01 0.45651241E+03</pdfrwt>
<pdfrwt beam="2">  1       21 0.98527892E-01 0.45651241E+03</pdfrwt>
<totfact> 0.49791216E+04</totfact>
</mgrwt>
</event>
<event>
 7    0  0.4705418E-002  0.4511362E+03  0.7546771E-02  0.1027384E+00
         21   -1    0    0  502  501  0.00000000000E+00  0.00000000000E+00  0.40412193257E+02  0.40412193257E+02  0.00000000000E+00 0. -1.
         21   -1    0    0  501  502 -0.00000000000E+00 -0.00000000000E+00 -0.12590498376E+04  0.12590498376E+04  0.00000000000E+00 0. -1.
      99926    2    1    2    0    0  0.00000000000E+00  0.88817841970E-15 -0.12186376443E+04  0.12994620309E+04  0.45113618945E+03 0.  0.
      99925    2    3    3    0    0  0.63711152756E+02  0.53269508204E+01 -0.10257104914E+04  0.10608077163E+04  0.26295153833E+03 0.  0.
         25    1    3    3    0    0 -0.63711152756E+02 -0.53269508204E+01 -0.19292715295E+03  0.23865431451E+03  0.12509000000E+03 0.  0.
         25    1    4    4    0    0  0.72797030939E+02  0.19723435878E+01 -0.57823467513E+03  0.59607562061E+03  0.12509000000E+03 0.  0.
         25    1    4    4    0    0 -0.90858781837E+01  0.33546072326E+01 -0.44747581626E+03  0.46473209574E+03  0.12509000000E+03 0.  0.
<mgrwt>
<rscale>  2 0.45113619E+03</rscale>
<asrwt>0</asrwt>
<pdfrwt beam="1">  1       21 0.59429697E-02 0.45113619E+03</pdfrwt>
<pdfrwt beam="2">  1       21 0.18515438E+00 0.45113619E+03</pdfrwt>
<totfact> 0.30022380E+04</totfact>
</mgrwt>
</event>
<event>
 7    0  0.4705418E-002  0.4667062E+03  0.7546771E-02  0.1022854E+00
         21   -1    0    0  502  501  0.00000000000E+00  0.00000000000E+00  0.27477875304E+03  0.27477875304E+03  0.00000000000E+00 0.  1.
         21   -1    0    0  501  502 -0.00000000000E+00 -0.00000000000E+00 -0.19817274423E+03  0.19817274423E+03  0.00000000000E+00 0.  1.
      99926    2    1    2    0    0 -0.35527136788E-14  0.55511151231E-15  0.76606008810E+02  0.47295149727E+03  0.46670615828E+03 0.  0.
      99925    2    3    3    0    0  0.24430484214E+02  0.50512551515E+00 -0.75343419159E+02  0.27462540097E+03  0.26295508426E+03 0.  0.
         25    1    4    4    0    0  0.39232068060E+02  0.12629200382E+02 -0.67099390276E+02  0.14781234097E+03  0.12509000000E+03 0.  0.
         25    1    3    3    0    0 -0.24430484214E+02 -0.50512551515E+00  0.15194942797E+03  0.19832609629E+03  0.12509000000E+03 0.  0.
         25    1    4    4    0    0 -0.14801583846E+02 -0.12124074866E+02 -0.82440288824E+01  0.12681306001E+03  0.12509000000E+03 0.  0.
<mgrwt>
<rscale>  2 0.46670616E+03</rscale>
<asrwt>0</asrwt>
<pdfrwt beam="1">  1       21 0.40408640E-01 0.46670616E+03</pdfrwt>
<pdfrwt beam="2">  1       21 0.29143050E-01 0.46670616E+03</pdfrwt>
<totfact> 0.61316291E+04</totfact>
</mgrwt>
</event>
<event>
 7    0  0.4705418E-002  0.4562805E+03  0.7546771E-02  0.1025866E+00
         21   -1    0    0  502  501  0.00000000000E+00  0.00000000000E+00  0.12183691299E+04  0.12183691299E+04  0.00000000000E+00 0.  1.
         21   -1    0    0  501  502 -0.00000000000E+00 -0.00000000000E+00 -0.42719384550E+02  0.42719384550E+02  0.00000000000E+00 0.  1.
      99926    2    1    2    0    0  0.00000000000E+00 -0.17763568394E-14  0.11756497454E+04  0.12610885145E+04  0.45628052505E+03 0.  0.
      99925    2    3    3    0    0 -0.11328097043E+03  0.12003346142E+02  0.76681657902E+03  0.81863091809E+03  0.26300618932E+03 0.  0.
         25    1    4    4    0    0 -0.19134802941E+02 -0.15585454958E+02  0.32848256728E+03  0.35235969150E+03  0.12509000000E+03 0.  0.
         25    1    3    3    0    0  0.11328097043E+03 -0.12003346142E+02  0.40883316634E+03  0.44245759636E+03  0.12509000000E+03 0.  0.
         25    1    4    4    0    0 -0.94146167491E+02  0.27588801100E+02  0.43833401174E+03  0.46627122659E+03  0.12509000000E+03 0.  0.
<mgrwt>
<rscale>  2 0.45628053E+03</rscale>
<asrwt>0</asrwt>
<pdfrwt beam="1">  1       21 0.17917191E+00 0.45628053E+03</pdfrwt>
<pdfrwt beam="2">  1       21 0.62822632E-02 0.45628053E+03</pdfrwt>
<totfact> 0.29966236E+04</totfact>
</mgrwt>
</event>
<event>
 7    0  0.4705418E-002  0.4291428E+03  0.7546771E-02  0.1034131E+00
         21   -1    0    0  502  501  0.00000000000E+00  0.00000000000E+00  0.96265645825E+02  0.96265645825E+02  0.00000000000E+00 0.  1.
         21   -1    0    0  501  502 -0.00000000000E+00 -0.00000000000E+00 -0.47826915465E+03  0.47826915465E+03  0.00000000000E+00 0.  1.
      99926    2    1    2    0    0  0.00000000000E+00  0.00000000000E+00 -0.38200350882E+03  0.57453480047E+03  0.42914281562E+03 0.  0.
      99925    2    3    3    0    0 -0.61160598792E+02  0.42166349943E+02 -0.30643940058E+03  0.41059559690E+03  0.26299242966E+03 0.  0.
         25    1    4    4    0    0 -0.11788407789E+02 -0.89662183282E+01 -0.17573238658E+03  0.21621456802E+03  0.12509000000E+03 0.  0.
         25    1    3    3    0    0  0.61160598792E+02 -0.42166349943E+02 -0.75564108242E+02  0.16393920357E+03  0.12509000000E+03 0.  0.
         25    1    4    4    0    0 -0.49372191004E+02  0.51132568271E+02 -0.13070701400E+03  0.19438102889E+03  0.12509000000E+03 0.  0.
<mgrwt>
<rscale>  2 0.42914282E+03</rscale>
<asrwt>0</asrwt>
<pdfrwt beam="1">  1       21 0.14156713E-01 0.42914282E+03</pdfrwt>
<pdfrwt beam="2">  1       21 0.70333698E-01 0.42914282E+03</pdfrwt>
<totfact> 0.74346466E+04</totfact>
</mgrwt>
</event>
<event>
 7    0  0.4705418E-002  0.4547763E+03  0.7546771E-02  0.1026307E+00
         21   -1    0    0  502  501  0.00000000000E+00  0.00000000000E+00  0.35588673095E+03  0.35588673095E+03  0.00000000000E+00 0.  1.
         21   -1    0    0  501  502 -0.00000000000E+00 -0.00000000000E+00 -0.14528601499E+03  0.14528601499E+03  0.00000000000E+00 0.  1.
      99926    2    1    2    0    0  0.00000000000E+00  0.35527136788E-14  0.21060071596E+03  0.50117274594E+03  0.45477627435E+03 0.  0.
      99925    2    3    3    0    0  0.10227456195E+03 -0.11349464857E+02  0.18393427155E+03  0.33701579747E+03  0.26298086454E+03 0.  0.
         25    1    4    4    0    0  0.47015125384E+02 -0.40695823303E+02  0.11574285988E+03  0.18141248513E+03  0.12509000000E+03 0.  0.
         25    1    3    3    0    0 -0.10227456195E+03  0.11349464857E+02  0.26666444409E+02  0.16415694847E+03  0.12509000000E+03 0.  0.
         25    1    4    4    0    0  0.55259436565E+02  0.29346358446E+02  0.68191411678E+02  0.15560331234E+03  0.12509000000E+03 0.  0.
<mgrwt>
<rscale>  2 0.45477627E+03</rscale>
<asrwt>0</asrwt>
<pdfrwt beam="1">  1       21 0.52336284E-01 0.45477627E+03</pdfrwt>
<pdfrwt beam="2">  1       21 0.21365590E-01 0.45477627E+03</pdfrwt>
<totfact> 0.65304249E+04</totfact>
</mgrwt>
</event>
<event>
 7    0  0.4705418E-002  0.4669564E+03  0.7546771E-02  0.1022783E+00
         21   -1    0    0  502  501  0.00000000000E+00  0.00000000000E+00  0.20184783479E+03  0.20184783479E+03  0.00000000000E+00 0.  1.
         21   -1    0    0  501  502 -0.00000000000E+00 -0.00000000000E+00 -0.27006520284E+03  0.27006520284E+03  0.00000000000E+00 0.  1.
      99926    2    1    2    0    0  0.71054273576E-14 -0.22204460493E-15 -0.68217368048E+02  0.47191303764E+03  0.46695642815E+03 0.  0.
      99925    2    3    3    0    0  0.41307341700E+02  0.19846739855E+01 -0.16066044511E+03  0.31096750024E+03  0.26301857762E+03 0.  0.
         25    1    3    3    0    0 -0.41307341700E+02 -0.19846739855E+01  0.92443077064E+02  0.16094553739E+03  0.12509000000E+03 0.  0.
         25    1    4    4    0    0 -0.42834561087E+01 -0.90089938513E+00 -0.11559485509E+03  0.17037851461E+03  0.12509000000E+03 0.  0.
         25    1    4    4    0    0  0.45590797808E+02  0.28855733706E+01 -0.45065590018E+02  0.14058898564E+03  0.12509000000E+03 0.  0.
<mgrwt>
<rscale>  2 0.46695643E+03</rscale>
<asrwt>0</asrwt>
<pdfrwt beam="1">  1       21 0.29683506E-01 0.46695643E+03</pdfrwt>
<pdfrwt beam="2">  1       21 0.39715470E-01 0.46695643E+03</pdfrwt>
<totfact> 0.61266533E+04</totfact>
</mgrwt>
</event>
<event>
 7    0  0.4705418E-002  0.3983627E+03  0.7546771E-02  0.1044348E+00
         21   -1    0    0  502  501  0.00000000000E+00  0.00000000000E+00  0.25640938056E+03  0.25640938056E+03  0.00000000000E+00 0.  1.
         21   -1    0    0  501  502 -0.00000000000E+00 -0.00000000000E+00 -0.15472601329E+03  0.15472601329E+03  0.00000000000E+00 0.  1.
      99926    2    1    2    0    0  0.00000000000E+00  0.00000000000E+00  0.10168336727E+03  0.41113539385E+03  0.39836265500E+03 0.  0.
      99925    2    3    3    0    0  0.16325153984E+02 -0.30421667177E+02  0.93029572185E+02  0.28108007964E+03  0.26298197920E+03 0.  0.
         25    1    4    4    0    0  0.38815837934E+02  0.46690686081E+01  0.64965653565E+02  0.14627547204E+03  0.12509000000E+03 0.  0.
         25    1    4    4    0    0 -0.22490683950E+02 -0.35090735785E+02  0.28063918619E+02  0.13480460760E+03  0.12509000000E+03 0.  0.
         25    1    3    3    0    0 -0.16325153984E+02  0.30421667177E+02  0.86537950819E+01  0.13005531422E+03  0.12509000000E+03 0.  0.
<mgrwt>
<rscale>  2 0.39836266E+03</rscale>
<asrwt>0</asrwt>
<pdfrwt beam="1">  1       21 0.37707262E-01 0.39836266E+03</pdfrwt>
<pdfrwt beam="2">  1       21 0.22753825E-01 0.39836266E+03</pdfrwt>
<totfact> 0.11609836E+05</totfact>
</mgrwt>
</event>
<event>
 7    0  0.4705418E-002  0.4666984E+03  0.7546771E-02  0.1022856E+00
         21   -1    0    0  502  501  0.00000000000E+00  0.00000000000E+00  0.19304992262E+04  0.19304992262E+04  0.00000000000E+00 0.  1.
         21   -1    0    0  501  502 -0.00000000000E+00 -0.00000000000E+00 -0.28206102333E+02  0.28206102333E+02  0.00000000000E+00 0.  1.
      99926    2    1    2    0    0  0.63282712404E-14  0.14210854715E-13  0.19022931239E+04  0.19587053286E+04  0.46669844109E+03 0.  0.
      99925    2    3    3    0    0 -0.85244373452E+00  0.12369085207E+03  0.12010002759E+04  0.12356843605E+04  0.26308558010E+03 0.  0.
         25    1    4    4    0    0  0.34659476996E+02  0.41018831832E+02  0.52750148351E+03  0.54478357824E+03  0.12509000000E+03 0.  0.
         25    1    3    3    0    0  0.85244373452E+00 -0.12369085207E+03  0.70129284797E+03  0.72302096806E+03  0.12509000000E+03 0.  0.
         25    1    4    4    0    0 -0.35511920731E+02  0.82672020240E+02  0.67349879243E+03  0.69090078228E+03  0.12509000000E+03 0.  0.
<mgrwt>
<rscale>  2 0.46669844E+03</rscale>
<asrwt>0</asrwt>
<pdfrwt beam="1">  1       21 0.28389685E+00 0.46669844E+03</pdfrwt>
<pdfrwt beam="2">  1       21 0.41479575E-02 0.46669844E+03</pdfrwt>
<totfact> 0.13160050E+04</totfact>
</mgrwt>
</event>
<event>
 7    0  0.4705418E-002  0.4548030E+03  0.7546771E-02  0.1026299E+00
         21   -1    0    0  502  501  0.00000000000E+00  0.00000000000E+00  0.35286455913E+03  0.35286455913E+03  0.00000000000E+00 0.  1.
         21   -1    0    0  501  502 -0.00000000000E+00 -0.00000000000E+00 -0.14654756430E+03  0.14654756430E+03  0.00000000000E+00 0.  1.
      99926    2    1    2    0    0 -0.14210854715E-13 -0.35527136788E-14  0.20631699483E+03  0.49941212342E+03  0.45480299765E+03 0.  0.
      99925    2    3    3    0    0  0.10853260511E+03  0.27552301370E+02  0.15468278291E+03  0.32376459107E+03  0.26145418608E+03 0.  0.
         25    1    4    4    0    0  0.15701645168E+02  0.21271522286E+02  0.58675377213E+02  0.14067454394E+03  0.12509000000E+03 0.  0.
         25    1    4    4    0    0  0.92830959941E+02  0.62807790845E+01  0.96007405694E+02  0.18309004713E+03  0.12509000000E+03 0.  0.
         25    1    3    3    0    0 -0.10853260511E+03 -0.27552301370E+02  0.51634211919E+02  0.17564753236E+03  0.12509000000E+03 0.  0.
<mgrwt>
<rscale>  2 0.45480300E+03</rscale>
<asrwt>0</asrwt>
<pdfrwt beam="1">  1       21 0.51891847E-01 0.45480300E+03</pdfrwt>
<pdfrwt beam="2">  1       21 0.21551112E-01 0.45480300E+03</pdfrwt>
<totfact> 0.65414217E+04</totfact>
</mgrwt>
</event>
<event>
 7    0  0.4705418E-002  0.4554878E+03  0.7546771E-02  0.1026098E+00
         21   -1    0    0  502  501  0.00000000000E+00  0.00000000000E+00  0.20448198740E+03  0.20448198740E+03  0.00000000000E+00 0. -1.
         21   -1    0    0  501  502 -0.00000000000E+00 -0.00000000000E+00 -0.25365210414E+03  0.25365210414E+03  0.00000000000E+00 0. -1.
      99926    2    1    2    0    0  0.00000000000E+00  0.00000000000E+00 -0.49170116745E+02  0.45813409154E+03  0.45548781043E+03 0.  0.
      99925    2    3    3    0    0 -0.87112466716E+02 -0.72751064723E+02 -0.36185487961E+02  0.28873099842E+03  0.26301121769E+03 0.  0.
         25    1    4    4    0    0 -0.71192866859E+02 -0.10123717480E+02 -0.41903659764E+01  0.14434673953E+03  0.12509000000E+03 0.  0.
         25    1    3    3    0    0  0.87112466716E+02  0.72751064723E+02 -0.12984628784E+02  0.16940309313E+03  0.12509000000E+03 0.  0.
         25    1    4    4    0    0 -0.15919599857E+02 -0.62627347243E+02 -0.31995121985E+02  0.14438425888E+03  0.12509000000E+03 0.  0.
<mgrwt>
<rscale>  2 0.45548781E+03</rscale>
<asrwt>0</asrwt>
<pdfrwt beam="1">  1       21 0.30070881E-01 0.45548781E+03</pdfrwt>
<pdfrwt beam="2">  1       21 0.37301780E-01 0.45548781E+03</pdfrwt>
<totfact> 0.68051514E+04</totfact>
</mgrwt>
</event>
<event>
 7    0  0.4705418E-002  0.4514796E+03  0.7546771E-02  0.1027282E+00
         21   -1    0    0  502  501  0.00000000000E+00  0.00000000000E+00  0.15614297343E+03  0.15614297343E+03  0.00000000000E+00 0.  1.
         21   -1    0    0  501  502 -0.00000000000E+00 -0.00000000000E+00 -0.32635770655E+03  0.32635770655E+03  0.00000000000E+00 0.  1.
      99926    2    1    2    0    0 -0.14210854715E-13 -0.17763568394E-14 -0.17021473312E+03  0.48250067998E+03  0.45147962392E+03 0.  0.
      99925    2    3    3    0    0 -0.10245839601E+03  0.85688990314E+01 -0.66791260033E+02  0.29036772646E+03  0.26321321245E+03 0.  0.
         25    1    3    3    0    0  0.10245839601E+03 -0.85688990314E+01 -0.10342347308E+03  0.19213295352E+03  0.12509000000E+03 0.  0.
         25    1    4    4    0    0 -0.28383253470E+02  0.20909402406E+02 -0.13688531699E+00  0.12996283709E+03  0.12509000000E+03 0.  0.
         25    1    4    4    0    0 -0.74075142544E+02 -0.12340503374E+02 -0.66654374716E+02  0.16040488937E+03  0.12509000000E+03 0.  0.
<mgrwt>
<rscale>  2 0.45147962E+03</rscale>
<asrwt>0</asrwt>
<pdfrwt beam="1">  1       21 0.22962202E-01 0.45147962E+03</pdfrwt>
<pdfrwt beam="2">  1       21 0.47993780E-01 0.45147962E+03</pdfrwt>
<totfact> 0.68410404E+04</totfact>
</mgrwt>
</event>
<event>
 7    0  0.4705418E-002  0.4263396E+03  0.7546771E-02  0.1035023E+00
         21   -1    0    0  502  501  0.00000000000E+00  0.00000000000E+00  0.91132858857E+02  0.91132858857E+02  0.00000000000E+00 0.  1.
         21   -1    0    0  501  502 -0.00000000000E+00 -0.00000000000E+00 -0.49862767673E+03  0.49862767673E+03  0.00000000000E+00 0.  1.
      99926    2    1    2    0    0  0.00000000000E+00 -0.35527136788E-14 -0.40749481787E+03  0.58976053558E+03  0.42633960963E+03 0.  0.
      99925    2    3    3    0    0  0.74763071301E+02  0.27274095571E+02 -0.22801717767E+03  0.35696636781E+03  0.26286833456E+03 0.  0.
         25    1    4    4    0    0  0.30637882812E+02 -0.24023949468E+02 -0.12751479402E+03  0.18282056997E+03  0.12509000000E+03 0.  0.
         25    1    4    4    0    0  0.44125188489E+02  0.51298045039E+02 -0.10050238365E+03  0.17414579783E+03  0.12509000000E+03 0.  0.
         25    1    3    3    0    0 -0.74763071301E+02 -0.27274095571E+02 -0.17947764020E+03  0.23279416778E+03  0.12509000000E+03 0.  0.
<mgrwt>
<rscale>  2 0.42633961E+03</rscale>
<asrwt>0</asrwt>
<pdfrwt beam="1">  1       21 0.13401891E-01 0.42633961E+03</pdfrwt>
<pdfrwt beam="2">  1       21 0.73327599E-01 0.42633961E+03</pdfrwt>
<totfact> 0.74887026E+04</totfact>
</mgrwt>
</event>
<event>
 7    0  0.4705418E-002  0.4564374E+03  0.7546771E-02  0.1025820E+00
         21   -1    0    0  502  501  0.00000000000E+00  0.00000000000E+00  0.76181710993E+03  0.76181710993E+03  0.00000000000E+00 0. -1.
         21   -1    0    0  501  502 -0.00000000000E+00 -0.00000000000E+00 -0.68367820658E+02  0.68367820658E+02  0.00000000000E+00 0. -1.
      99926    2    1    2    0    0 -0.14210854715E-13  0.00000000000E+00  0.69344928928E+03  0.83018493059E+03  0.45643740226E+03 0.  0.
      99925    2    3    3    0    0  0.82543393030E+02  0.46384100342E+02  0.55268671475E+03  0.61940896663E+03  0.26313488325E+03 0.  0.
         25    1    4    4    0    0  0.75858050755E+01 -0.32686652536E+01  0.26073785070E+03  0.28930945975E+03  0.12509000000E+03 0.  0.
         25    1    4    4    0    0  0.74957587955E+02  0.49652765596E+02  0.29194886405E+03  0.33009950688E+03  0.12509000000E+03 0.  0.
         25    1    3    3    0    0 -0.82543393030E+02 -0.46384100342E+02  0.14076257453E+03  0.21077596396E+03  0.12509000000E+03 0.  0.
<mgrwt>
<rscale>  2 0.45643740E+03</rscale>
<asrwt>0</asrwt>
<pdfrwt beam="1">  1       21 0.11203192E+00 0.45643740E+03</pdfrwt>
<pdfrwt beam="2">  1       21 0.10054092E-01 0.45643740E+03</pdfrwt>
<totfact> 0.45820254E+04</totfact>
</mgrwt>
</event>
<event>
 7    0  0.4705418E-002  0.4400501E+03  0.7546771E-02  0.1030731E+00
         21   -1    0    0  502  501  0.00000000000E+00  0.00000000000E+00  0.14865456882E+04  0.14865456882E+04  0.00000000000E+00 0. -1.
         21   -1    0    0  501  502 -0.00000000000E+00 -0.00000000000E+00 -0.32566118742E+02  0.32566118742E+02  0.00000000000E+00 0. -1.
      99926    2    1    2    0    0 -0.71054273576E-14 -0.88817841970E-15  0.14539795695E+04  0.15191118069E+04  0.44005010350E+03 0.  0.
      99925    2    3    3    0    0  0.59473604115E+02 -0.60019438083E+01  0.65743762003E+03  0.71059481998E+03  0.26295939045E+03 0.  0.
         25    1    4    4    0    0 -0.20802182576E+01 -0.21417083905E+02  0.36059386315E+03  0.38228060509E+03  0.12509000000E+03 0.  0.
         25    1    4    4    0    0  0.61553822373E+02  0.15415140097E+02  0.29684375688E+03  0.32831421488E+03  0.12509000000E+03 0.  0.
         25    1    3    3    0    0 -0.59473604115E+02  0.60019438083E+01  0.79654194943E+03  0.80851698697E+03  0.12509000000E+03 0.  0.
<mgrwt>
<rscale>  2 0.44005010E+03</rscale>
<asrwt>0</asrwt>
<pdfrwt beam="1">  1       21 0.21860961E+00 0.44005010E+03</pdfrwt>
<pdfrwt beam="2">  1       21 0.47891361E-02 0.44005010E+03</pdfrwt>
<totfact> 0.26230819E+04</totfact>
</mgrwt>
</event>
<event>
 7    0  0.4705418E-002  0.4487442E+03  0.7546771E-02  0.1028097E+00
         21   -1    0    0  502  501  0.00000000000E+00  0.00000000000E+00  0.47895723174E+03  0.47895723174E+03  0.00000000000E+00 0. -1.
         21   -1    0    0  501  502 -0.00000000000E+00 -0.00000000000E+00 -0.10510925939E+03  0.10510925939E+03  0.00000000000E+00 0. -1.
      99926    2    1    2    0    0 -0.17763568394E-14  0.00000000000E+00  0.37384797235E+03  0.58406649113E+03  0.44874420290E+03 0.  0.
      99925    2    3    3    0    0  0.10775100089E+02 -0.17657606806E+02  0.99693367515E+02  0.28201326849E+03  0.26299205732E+03 0.  0.
         25    1    3    3    0    0 -0.10775100089E+02  0.17657606806E+02  0.27415460483E+03  0.30205322265E+03  0.12509000000E+03 0.  0.
         25    1    4    4    0    0  0.13512299363E+02 -0.55848159524E+00  0.82310984667E+01  0.12608787895E+03  0.12509000000E+03 0.  0.
         25    1    4    4    0    0 -0.27371992741E+01 -0.17099125211E+02  0.91462269048E+02  0.15592538954E+03  0.12509000000E+03 0.  0.
<mgrwt>
<rscale>  2 0.44874420E+03</rscale>
<asrwt>0</asrwt>
<pdfrwt beam="1">  1       21 0.70434886E-01 0.44874420E+03</pdfrwt>
<pdfrwt beam="2">  1       21 0.15457244E-01 0.44874420E+03</pdfrwt>
<totfact> 0.62714034E+04</totfact>
</mgrwt>
</event>
<event>
 7    0  0.4705418E-002  0.4526087E+03  0.7546771E-02  0.1026947E+00
         21   -1    0    0  502  501  0.00000000000E+00  0.00000000000E+00  0.15312810363E+03  0.15312810363E+03  0.00000000000E+00 0.  1.
         21   -1    0    0  501  502 -0.00000000000E+00 -0.00000000000E+00 -0.33444973288E+03  0.33444973288E+03  0.00000000000E+00 0.  1.
      99926    2    1    2    0    0  0.00000000000E+00  0.44408920985E-15 -0.18132162925E+03  0.48757783651E+03  0.45260867582E+03 0.  0.
      99925    2    3    3    0    0 -0.89824879039E+02 -0.36643647802E+01 -0.44180327718E+02  0.28133239741E+03  0.26289556864E+03 0.  0.
         25    1    3    3    0    0  0.89824879039E+02  0.36643647802E+01 -0.13714130154E+03  0.20624543910E+03  0.12509000000E+03 0.  0.
         25    1    4    4    0    0 -0.79683125983E+02 -0.40784050233E+01 -0.47499141354E+02  0.15578738872E+03  0.12509000000E+03 0.  0.
         25    1    4    4    0    0 -0.10141753056E+02  0.41404024311E+00  0.33188136362E+01  0.12554500870E+03  0.12509000000E+03 0.  0.
<mgrwt>
<rscale>  2 0.45260868E+03</rscale>
<asrwt>0</asrwt>
<pdfrwt beam="1">  1       21 0.22518839E-01 0.45260868E+03</pdfrwt>
<pdfrwt beam="2">  1       21 0.49183784E-01 0.45260868E+03</pdfrwt>
<totfact> 0.67423387E+04</totfact>
</mgrwt>
</event>
<event>
 7    0  0.4705418E-002  0.4566392E+03  0.7546771E-02  0.1025760E+00
         21   -1    0    0  502  501  0.00000000000E+00  0.00000000000E+00  0.41495953926E+03  0.41495953926E+03  0.00000000000E+00 0. -1.
         21   -1    0    0  501  502 -0.00000000000E+00 -0.00000000000E+00 -0.12562629403E+03  0.12562629403E+03  0.00000000000E+00 0. -1.
      99926    2    1    2    0    0  0.00000000000E+00  0.14210854715E-13  0.28933324523E+03  0.54058583329E+03  0.45663915334E+03 0.  0.
      99925    2    3    3    0    0  0.57863512405E+02  0.98239181687E+02  0.16694125101E+03  0.33171642138E+03  0.26299673009E+03 0.  0.
         25    1    4    4    0    0 -0.44310671352E+01  0.70746174311E+02  0.74608328913E+02  0.16198322870E+03  0.12509000000E+03 0.  0.
         25    1    4    4    0    0  0.62294579540E+02  0.27493007376E+02  0.92332922097E+02  0.16973319268E+03  0.12509000000E+03 0.  0.
         25    1    3    3    0    0 -0.57863512405E+02 -0.98239181687E+02  0.12239199422E+03  0.20886941192E+03  0.12509000000E+03 0.  0.
<mgrwt>
<rscale>  2 0.45663915E+03</rscale>
<asrwt>0</asrwt>
<pdfrwt beam="1">  1       21 0.61023461E-01 0.45663915E+03</pdfrwt>
<pdfrwt beam="2">  1       21 0.18474455E-01 0.45663915E+03</pdfrwt>
<totfact> 0.61688798E+04</totfact>
</mgrwt>
</event>
<event>
 7    0  0.4705418E-002  0.4512923E+03  0.7546771E-02  0.1027337E+00
         21   -1    0    0  502  501  0.00000000000E+00  0.00000000000E+00  0.16196806458E+03  0.16196806458E+03  0.00000000000E+00 0.  1.
         21   -1    0    0  501  502 -0.00000000000E+00 -0.00000000000E+00 -0.31435942487E+03  0.31435942487E+03  0.00000000000E+00 0.  1.
      99926    2    1    2    0    0  0.00000000000E+00  0.00000000000E+00 -0.15239136029E+03  0.47632748945E+03  0.45129231160E+03 0.  0.
      99925    2    3    3    0    0 -0.83272793818E+02 -0.69902966840E+02 -0.81656478880E+02  0.29612839258E+03  0.26306550779E+03 0.  0.
         25    1    4    4    0    0 -0.62472734587E+02 -0.90199215254E+01 -0.16422411778E+02  0.14107234052E+03  0.12509000000E+03 0.  0.
         25    1    4    4    0    0 -0.20800059231E+02 -0.60883045314E+02 -0.65234067101E+02  0.15505605206E+03  0.12509000000E+03 0.  0.
         25    1    3    3    0    0  0.83272793818E+02  0.69902966840E+02 -0.70734881409E+02  0.18019909687E+03  0.12509000000E+03 0.  0.
<mgrwt>
<rscale>  2 0.45129231E+03</rscale>
<asrwt>0</asrwt>
<pdfrwt beam="1">  1       21 0.23818833E-01 0.45129231E+03</pdfrwt>
<pdfrwt beam="2">  1       21 0.46229327E-01 0.45129231E+03</pdfrwt>
<totfact> 0.68975999E+04</totfact>
</mgrwt>
</event>
<event>
 7    0  0.4705418E-002  0.4562505E+03  0.7546771E-02  0.1025874E+00
         21   -1    0    0  502  501  0.00000000000E+00  0.00000000000E+00  0.48173121709E+03  0.48173121709E+03  0.00000000000E+00 0.  1.
         21   -1    0    0  501  502 -0.00000000000E+00 -0.00000000000E+00 -0.10802941084E+03  0.10802941084E+03  0.00000000000E+00 0.  1.
      99926    2    1    2    0    0  0.00000000000E+00  0.00000000000E+00  0.37370180625E+03  0.58976062792E+03  0.45625054329E+03 0.  0.
      99925    2    3    3    0    0  0.84133125220E+02 -0.60770841252E+02  0.17295930278E+03  0.33146517944E+03  0.26302617143E+03 0.  0.
         25    1    4    4    0    0  0.68804748927E+01 -0.44705929966E+02  0.63068182881E+02  0.14721095374E+03  0.12509000000E+03 0.  0.
         25    1    3    3    0    0 -0.84133125220E+02  0.60770841252E+02  0.20074250347E+03  0.25829544848E+03  0.12509000000E+03 0.  0.
         25    1    4    4    0    0  0.77252650328E+02 -0.16064911286E+02  0.10989111990E+03  0.18425422571E+03  0.12509000000E+03 0.  0.
<mgrwt>
<rscale>  2 0.45625054E+03</rscale>
<asrwt>0</asrwt>
<pdfrwt beam="1">  1       21 0.70842825E-01 0.45625054E+03</pdfrwt>
<pdfrwt beam="2">  1       21 0.15886678E-01 0.45625054E+03</pdfrwt>
<totfact> 0.58730358E+04</totfact>
</mgrwt>
</event>
<event>
 7    0  0.4705418E-002  0.4560447E+03  0.7546771E-02  0.1025935E+00
         21   -1    0    0  502  501  0.00000000000E+00  0.00000000000E+00  0.14219899122E+03  0.14219899122E+03  0.00000000000E+00 0.  1.
         21   -1    0    0  501  502 -0.00000000000E+00 -0.00000000000E+00 -0.36564384941E+03  0.36564384941E+03  0.00000000000E+00 0.  1.
      99926    2    1    2    0    0  0.00000000000E+00  0.88817841970E-15 -0.22344485819E+03  0.50784284063E+03  0.45604467558E+03 0.  0.
      99925    2    3    3    0    0  0.13261058728E+02 -0.60889784063E+01 -0.14359734666E+02  0.26375878069E+03  0.26296304127E+03 0.  0.
         25    1    3    3    0    0 -0.13261058728E+02  0.60889784063E+01 -0.20908512352E+03  0.24408405994E+03  0.12509000000E+03 0.  0.
         25    1    4    4    0    0  0.41950806588E+02  0.16718312001E+02 -0.91357593124E+01  0.13330544748E+03  0.12509000000E+03 0.  0.
         25    1    4    4    0    0 -0.28689747860E+02 -0.22807290408E+02 -0.52239753533E+01  0.13045333321E+03  0.12509000000E+03 0.  0.
<mgrwt>
<rscale>  2 0.45604468E+03</rscale>
<asrwt>0</asrwt>
<pdfrwt beam="1">  1       21 0.20911617E-01 0.45604468E+03</pdfrwt>
<pdfrwt beam="2">  1       21 0.53771153E-01 0.45604468E+03</pdfrwt>
<totfact> 0.64189241E+04</totfact>
</mgrwt>
</event>
<event>
 7    0  0.4705418E-002  0.4523918E+03  0.7546771E-02  0.1027011E+00
         21   -1    0    0  502  501  0.00000000000E+00  0.00000000000E+00  0.12239929332E+03  0.12239929332E+03  0.00000000000E+00 0. -1.
         21   -1    0    0  501  502 -0.00000000000E+00 -0.00000000000E+00 -0.41801365802E+03  0.41801365802E+03  0.00000000000E+00 0. -1.
      99926    2    1    2    0    0  0.00000000000E+00  0.00000000000E+00 -0.29561436470E+03  0.54041295134E+03  0.45239176094E+03 0.  0.
      99925    2    3    3    0    0 -0.10167104952E+03  0.12680437935E+02 -0.23227051078E+03  0.36675308912E+03  0.26468933183E+03 0.  0.
         25    1    3    3    0    0  0.10167104952E+03 -0.12680437935E+02 -0.63343853919E+02  0.17365986222E+03  0.12509000000E+03 0.  0.
         25    1    4    4    0    0 -0.55846198873E+02 -0.53136038583E+01 -0.17058548171E+03  0.21884685738E+03  0.12509000000E+03 0.  0.
         25    1    4    4    0    0 -0.45824850647E+02  0.17994041793E+02 -0.61685029068E+02  0.14790623174E+03  0.12509000000E+03 0.  0.
<mgrwt>
<rscale>  2 0.45239176E+03</rscale>
<asrwt>0</asrwt>
<pdfrwt beam="1">  1       21 0.17999896E-01 0.45239176E+03</pdfrwt>
<pdfrwt beam="2">  1       21 0.61472597E-01 0.45239176E+03</pdfrwt>
<totfact> 0.63811485E+04</totfact>
</mgrwt>
</event>
<event>
 7    0  0.4705418E-002  0.4472487E+03  0.7546771E-02  0.1028546E+00
         21   -1    0    0  502  501  0.00000000000E+00  0.00000000000E+00  0.16538043931E+03  0.16538043931E+03  0.00000000000E+00 0.  1.
         21   -1    0    0  501  502 -0.00000000000E+00 -0.00000000000E+00 -0.30238074744E+03  0.30238074744E+03  0.00000000000E+00 0.  1.
      99926    2    1    2    0    0  0.00000000000E+00  0.00000000000E+00 -0.13700030813E+03  0.46776118675E+03  0.44724874891E+03 0.  0.
      99925    2    3    3    0    0 -0.75991638613E+02 -0.63109022308E+02 -0.47778654617E+02  0.28509895915E+03  0.26313711033E+03 0.  0.
         25    1    4    4    0    0 -0.21632995880E+02 -0.68978935130E+02 -0.27817966395E+02  0.14713064724E+03  0.12509000000E+03 0.  0.
         25    1    4    4    0    0 -0.54358642733E+02  0.58699128219E+01 -0.19960688222E+02  0.13796831191E+03  0.12509000000E+03 0.  0.
         25    1    3    3    0    0  0.75991638613E+02  0.63109022308E+02 -0.89221653517E+02  0.18266222760E+03  0.12509000000E+03 0.  0.
<mgrwt>
<rscale>  2 0.44724875E+03</rscale>
<asrwt>0</asrwt>
<pdfrwt beam="1">  1       21 0.24320653E-01 0.44724875E+03</pdfrwt>
<pdfrwt beam="2">  1       21 0.44467757E-01 0.44724875E+03</pdfrwt>
<totfact> 0.71925324E+04</totfact>
</mgrwt>
</event>
<event>
 7    0  0.4705418E-002  0.4679589E+03  0.7546771E-02  0.1022498E+00
         21   -1    0    0  502  501  0.00000000000E+00  0.00000000000E+00  0.44857887033E+03  0.44857887033E+03  0.00000000000E+00 0.  1.
         21   -1    0    0  501  502 -0.00000000000E+00 -0.00000000000E+00 -0.12204403765E+03  0.12204403765E+03  0.00000000000E+00 0.  1.
      99926    2    1    2    0    0  0.00000000000E+00 -0.35527136788E-14  0.32653483268E+03  0.57062290798E+03  0.46795887230E+03 0.  0.
      99925    2    3    3    0    0 -0.12186970303E+03 -0.16348255941E+02  0.22967584522E+03  0.37025159881E+03  0.26308888717E+03 0.  0.
         25    1    3    3    0    0  0.12186970303E+03  0.16348255941E+02  0.96858987459E+02  0.20037130917E+03  0.12509000000E+03 0.  0.
         25    1    4    4    0    0 -0.64812961684E+02  0.31817111003E+02  0.10603459288E+03  0.17917558857E+03  0.12509000000E+03 0.  0.
         25    1    4    4    0    0 -0.57056741345E+02 -0.48165366944E+02  0.12364125235E+03  0.19107601024E+03  0.12509000000E+03 0.  0.
<mgrwt>
<rscale>  2 0.46795887E+03</rscale>
<asrwt>0</asrwt>
<pdfrwt beam="1">  1       21 0.65967481E-01 0.46795887E+03</pdfrwt>
<pdfrwt beam="2">  1       21 0.17947653E-01 0.46795887E+03</pdfrwt>
<totfact> 0.54699178E+04</totfact>
</mgrwt>
</event>
<event>
 7    0  0.4705418E-002  0.4586023E+03  0.7546771E-02  0.1025187E+00
         21   -1    0    0  502  501  0.00000000000E+00  0.00000000000E+00  0.63293773859E+03  0.63293773859E+03  0.00000000000E+00 0.  1.
         21   -1    0    0  501  502 -0.00000000000E+00 -0.00000000000E+00 -0.83071384381E+02  0.83071384381E+02  0.00000000000E+00 0.  1.
      99926    2    1    2    0    0 -0.71054273576E-14  0.00000000000E+00  0.54986635421E+03  0.71600912297E+03  0.45860228596E+03 0.  0.
      99925    2    3    3    0    0  0.34476125686E+02 -0.23287478244E+02  0.51480528873E+03  0.57959909292E+03  0.26302036675E+03 0.  0.
         25    1    4    4    0    0  0.55749176596E+02 -0.21141428236E+02  0.24603415361E+03  0.28237429685E+03  0.12509000000E+03 0.  0.
         25    1    4    4    0    0 -0.21273050910E+02 -0.21460500083E+01  0.26877113513E+03  0.29722479608E+03  0.12509000000E+03 0.  0.
         25    1    3    3    0    0 -0.34476125686E+02  0.23287478244E+02  0.35061065475E+02  0.13641003005E+03  0.12509000000E+03 0.  0.
<mgrwt>
<rscale>  2 0.45860229E+03</rscale>
<asrwt>0</asrwt>
<pdfrwt beam="1">  1       21 0.93079076E-01 0.45860229E+03</pdfrwt>
<pdfrwt beam="2">  1       21 0.12216380E-01 0.45860229E+03</pdfrwt>
<totfact> 0.50593406E+04</totfact>
</mgrwt>
</event>
<event>
 7    0  0.4705418E-002  0.4302398E+03  0.7546771E-02  0.1033784E+00
         21   -1    0    0  502  501  0.00000000000E+00  0.00000000000E+00  0.99039040542E+03  0.99039040542E+03  0.00000000000E+00 0.  1.
         21   -1    0    0  501  502 -0.00000000000E+00 -0.00000000000E+00 -0.46725594001E+02  0.46725594001E+02  0.00000000000E+00 0.  1.
      99926    2    1    2    0    0 -0.35527136788E-14  0.00000000000E+00  0.94366481142E+03  0.10371159994E+04  0.43023984003E+03 0.  0.
      99925    2    3    3    0    0  0.17562178999E+02 -0.49199086048E+02  0.43764627531E+03  0.51325414055E+03  0.26299538075E+03 0.  0.
         25    1    4    4    0    0 -0.25085799406E+02 -0.30786926170E+01  0.22500568930E+03  0.25867710373E+03  0.12509000000E+03 0.  0.
         25    1    4    4    0    0  0.42647978405E+02 -0.46120393431E+02  0.21264058602E+03  0.25457703682E+03  0.12509000000E+03 0.  0.
         25    1    3    3    0    0 -0.17562178999E+02  0.49199086048E+02  0.50601853610E+03  0.52386185887E+03  0.12509000000E+03 0.  0.
<mgrwt>
<rscale>  2 0.43023984E+03</rscale>
<asrwt>0</asrwt>
<pdfrwt beam="1">  1       21 0.14564563E+00 0.43023984E+03</pdfrwt>
<pdfrwt beam="2">  1       21 0.68714115E-02 0.43023984E+03</pdfrwt>
<totfact> 0.46027017E+04</totfact>
</mgrwt>
</event>
<event>
 7    0  0.4705418E-002  0.4537701E+03  0.7546771E-02  0.1026604E+00
         21   -1    0    0  502  501  0.00000000000E+00  0.00000000000E+00  0.98058721391E+02  0.98058721391E+02  0.00000000000E+00 0.  1.
         21   -1    0    0  501  502 -0.00000000000E+00 -0.00000000000E+00 -0.52495916514E+03  0.52495916514E+03  0.00000000000E+00 0.  1.
      99926    2    1    2    0    0 -0.17763568394E-14  0.00000000000E+00 -0.42690044375E+03  0.62301788654E+03  0.45377009384E+03 0.  0.
      99925    2    3    3    0    0 -0.14889067395E+02  0.45115889580E+02 -0.40818787101E+03  0.48790757494E+03  0.26301964912E+03 0.  0.
         25    1    4    4    0    0  0.18321888052E+02  0.18934819818E+02 -0.25795328339E+03  0.28789168709E+03  0.12509000000E+03 0.  0.
         25    1    3    3    0    0  0.14889067395E+02 -0.45115889580E+02 -0.18712572744E+02  0.13511031159E+03  0.12509000000E+03 0.  0.
         25    1    4    4    0    0 -0.33210955447E+02  0.26181069762E+02 -0.15023458762E+03  0.20001588785E+03  0.12509000000E+03 0.  0.
<mgrwt>
<rscale>  2 0.45377009E+03</rscale>
<asrwt>0</asrwt>
<pdfrwt beam="1">  1       21 0.14420400E-01 0.45377009E+03</pdfrwt>
<pdfrwt beam="2">  1       21 0.77199876E-01 0.45377009E+03</pdfrwt>
<totfact> 0.57843034E+04</totfact>
</mgrwt>
</event>
<event>
 7    0  0.4705418E-002  0.4445078E+03  0.7546771E-02  0.1029373E+00
         21   -1    0    0  502  501  0.00000000000E+00  0.00000000000E+00  0.58777894199E+03  0.58777894199E+03  0.00000000000E+00 0. -1.
         21   -1    0    0  501  502 -0.00000000000E+00 -0.00000000000E+00 -0.84039767363E+02  0.84039767363E+02  0.00000000000E+00 0. -1.
      99926    2    1    2    0    0 -0.35527136788E-14 -0.14210854715E-13  0.50373917463E+03  0.67181870935E+03  0.44450784266E+03 0.  0.
      99925    2    3    3    0    0  0.26257244053E+01 -0.81660264385E+02  0.22525320011E+03  0.35578510464E+03  0.26299951200E+03 0.  0.
         25    1    3    3    0    0 -0.26257244053E+01  0.81660264385E+02  0.27848597451E+03  0.31603360472E+03  0.12509000000E+03 0.  0.
         25    1    4    4    0    0  0.34088395196E+02 -0.63962215863E+02  0.13052709949E+03  0.19477683524E+03  0.12509000000E+03 0.  0.
         25    1    4    4    0    0 -0.31462670791E+02 -0.17698048522E+02  0.94726100617E+02  0.16100826939E+03  0.12509000000E+03 0.  0.
<mgrwt>
<rscale>  2 0.44450784E+03</rscale>
<asrwt>0</asrwt>
<pdfrwt beam="1">  1       21 0.86438078E-01 0.44450784E+03</pdfrwt>
<pdfrwt beam="2">  1       21 0.12358790E-01 0.44450784E+03</pdfrwt>
<totfact> 0.59203403E+04</totfact>
</mgrwt>
</event>
<event>
 7    0  0.4705418E-002  0.4413547E+03  0.7546771E-02  0.1030332E+00
         21   -1    0    0  502  501  0.00000000000E+00  0.00000000000E+00  0.57288691659E+03  0.57288691659E+03  0.00000000000E+00 0. -1.
         21   -1    0    0  501  502 -0.00000000000E+00 -0.00000000000E+00 -0.85005436514E+02  0.85005436514E+02  0.00000000000E+00 0. -1.
      99926    2    1    2    0    0  0.00000000000E+00  0.00000000000E+00  0.48788148007E+03  0.65789235310E+03  0.44135474357E+03 0.  0.
      99925    2    3    3    0    0  0.84202274654E+02  0.53627343149E+02  0.31029795480E+03  0.41883308945E+03  0.26300270164E+03 0.  0.
         25    1    4    4    0    0  0.43260481303E+02 -0.10900074887E+02  0.12321664228E+03  0.18116326866E+03  0.12509000000E+03 0.  0.
         25    1    4    4    0    0  0.40941793351E+02  0.64527418035E+02  0.18708131252E+03  0.23766982079E+03  0.12509000000E+03 0.  0.
         25    1    3    3    0    0 -0.84202274654E+02 -0.53627343149E+02  0.17758352527E+03  0.23905926365E+03  0.12509000000E+03 0.  0.
<mgrwt>
<rscale>  2 0.44135474E+03</rscale>
<asrwt>0</asrwt>
<pdfrwt beam="1">  1       21 0.84248074E-01 0.44135474E+03</pdfrwt>
<pdfrwt beam="2">  1       21 0.12500800E-01 0.44135474E+03</pdfrwt>
<totfact> 0.61613218E+04</totfact>
</mgrwt>
</event>
<event>
 7    0  0.4705418E-002  0.4450639E+03  0.7546771E-02  0.1029204E+00
         21   -1    0    0  502  501  0.00000000000E+00  0.00000000000E+00  0.71327575990E+03  0.71327575990E+03  0.00000000000E+00 0. -1.
         21   -1    0    0  501  502 -0.00000000000E+00 -0.00000000000E+00 -0.69426806358E+02  0.69426806358E+02  0.00000000000E+00 0. -1.
      99926    2    1    2    0    0  0.00000000000E+00  0.00000000000E+00  0.64384895354E+03  0.78270256626E+03  0.44506385188E+03 0.  0.
      99925    2    3    3    0    0 -0.74917118875E+02  0.16930487820E+02  0.28679219541E+03  0.39665042891E+03  0.26302582248E+03 0.  0.
         25    1    4    4    0    0 -0.58655135818E+02  0.43998810229E+02  0.15139702592E+03  0.20963035996E+03  0.12509000000E+03 0.  0.
         25    1    4    4    0    0 -0.16261983057E+02 -0.27068322410E+02  0.13539516949E+03  0.18702006895E+03  0.12509000000E+03 0.  0.
         25    1    3    3    0    0  0.74917118875E+02 -0.16930487820E+02  0.35705675813E+03  0.38605213734E+03  0.12509000000E+03 0.  0.
<mgrwt>
<rscale>  2 0.44506385E+03</rscale>
<asrwt>0</asrwt>
<pdfrwt beam="1">  1       21 0.10489349E+00 0.44506385E+03</pdfrwt>
<pdfrwt beam="2">  1       21 0.10209825E-01 0.44506385E+03</pdfrwt>
<totfact> 0.52596474E+04</totfact>
</mgrwt>
</event>
<event>
 7    0  0.4705418E-002  0.4556353E+03  0.7546771E-02  0.1026055E+00
         21   -1    0    0  502  501  0.00000000000E+00  0.00000000000E+00  0.11315653805E+04  0.11315653805E+04  0.00000000000E+00 0.  1.
         21   -1    0    0  501  502 -0.00000000000E+00 -0.00000000000E+00 -0.45866436111E+02  0.45866436111E+02  0.00000000000E+00 0.  1.
      99926    2    1    2    0    0  0.14210854715E-13  0.71054273576E-14  0.10856989444E+04  0.11774318166E+04  0.45563525425E+03 0.  0.
      99925    2    3    3    0    0 -0.75578473098E+02 -0.38764099318E+02  0.87863781707E+03  0.92104035899E+03  0.26286150025E+03 0.  0.
         25    1    3    3    0    0  0.75578473098E+02  0.38764099318E+02  0.20706112730E+03  0.25639145760E+03  0.12509000000E+03 0.  0.
         25    1    4    4    0    0 -0.65028959283E+02 -0.41442131814E+02  0.54810188445E+03  0.56745872068E+03  0.12509000000E+03 0.  0.
         25    1    4    4    0    0 -0.10549513815E+02  0.26780324952E+01  0.33053593261E+03  0.35358163831E+03  0.12509000000E+03 0.  0.
<mgrwt>
<rscale>  2 0.45563525E+03</rscale>
<asrwt>0</asrwt>
<pdfrwt beam="1">  1       21 0.16640666E+00 0.45563525E+03</pdfrwt>
<pdfrwt beam="2">  1       21 0.67450649E-02 0.45563525E+03</pdfrwt>
<totfact> 0.32717322E+04</totfact>
</mgrwt>
</event>
<event>
 7    0  0.4705418E-002  0.4554548E+03  0.7546771E-02  0.1026108E+00
         21   -1    0    0  502  501  0.00000000000E+00  0.00000000000E+00  0.22643554653E+03  0.22643554653E+03  0.00000000000E+00 0. -1.
         21   -1    0    0  501  502 -0.00000000000E+00 -0.00000000000E+00 -0.22902659097E+03  0.22902659097E+03  0.00000000000E+00 0. -1.
      99926    2    1    2    0    0  0.00000000000E+00  0.00000000000E+00 -0.25910444434E+01  0.45546213750E+03  0.45545476744E+03 0.  0.
      99925    2    3    3    0    0  0.10624023886E+02  0.46501109274E+02 -0.10480482411E+03  0.28702702269E+03  0.26291678827E+03 0.  0.
         25    1    3    3    0    0 -0.10624023886E+02 -0.46501109274E+02  0.10221377966E+03  0.16843511481E+03  0.12509000000E+03 0.  0.
         25    1    4    4    0    0 -0.33741619262E+00  0.41078015127E+02 -0.14915609016E+02  0.13250471942E+03  0.12509000000E+03 0.  0.
         25    1    4    4    0    0  0.10961440078E+02  0.54230941469E+01 -0.89889215090E+02  0.15452230327E+03  0.12509000000E+03 0.  0.
<mgrwt>
<rscale>  2 0.45545477E+03</rscale>
<asrwt>0</asrwt>
<pdfrwt beam="1">  1       21 0.33299345E-01 0.45545477E+03</pdfrwt>
<pdfrwt beam="2">  1       21 0.33680381E-01 0.45545477E+03</pdfrwt>
<totfact> 0.68263910E+04</totfact>
</mgrwt>
</event>
<event>
 7    0  0.4705418E-002  0.4631565E+03  0.7546771E-02  0.1023870E+00
         21   -1    0    0  502  501  0.00000000000E+00  0.00000000000E+00  0.27767209261E+03  0.27767209261E+03  0.00000000000E+00 0. -1.
         21   -1    0    0  501  502 -0.00000000000E+00 -0.00000000000E+00 -0.19313600445E+03  0.19313600445E+03  0.00000000000E+00 0. -1.
      99926    2    1    2    0    0 -0.88817841970E-15 -0.71054273576E-14  0.84536088155E+02  0.47080809706E+03  0.46315646823E+03 0.  0.
      99925    2    3    3    0    0  0.64056470110E+01  0.40436805860E+02 -0.62460554264E+02  0.27349695048E+03  0.26310281926E+03 0.  0.
         25    1    4    4    0    0 -0.17991158836E+00 -0.81504262334E+01 -0.60345141858E+02  0.13912406716E+03  0.12509000000E+03 0.  0.
         25    1    3    3    0    0 -0.64056470110E+01 -0.40436805860E+02  0.14699664242E+03  0.19731114658E+03  0.12509000000E+03 0.  0.
         25    1    4    4    0    0  0.65855585994E+01  0.48587232094E+02 -0.21154124056E+01  0.13437288333E+03  0.12509000000E+03 0.  0.
<mgrwt>
<rscale>  2 0.46315647E+03</rscale>
<asrwt>0</asrwt>
<pdfrwt beam="1">  1       21 0.40834131E-01 0.46315647E+03</pdfrwt>
<pdfrwt beam="2">  1       21 0.28402353E-01 0.46315647E+03</pdfrwt>
<totfact> 0.63183983E+04</totfact>
</mgrwt>
</event>
<event>
 7    0  0.4705418E-002  0.4556448E+03  0.7546771E-02  0.1026052E+00
         21   -1    0    0  502  501  0.00000000000E+00  0.00000000000E+00  0.91678871987E+02  0.91678871987E+02  0.00000000000E+00 0. -1.
         21   -1    0    0  501  502 -0.00000000000E+00 -0.00000000000E+00 -0.56613969722E+03  0.56613969722E+03  0.00000000000E+00 0. -1.
      99926    2    1    2    0    0  0.00000000000E+00  0.35527136788E-14 -0.47446082523E+03  0.65781856920E+03  0.45564481267E+03 0.  0.
      99925    2    3    3    0    0 -0.10289528737E+03  0.16615448531E+02 -0.23281809607E+03  0.36643869696E+03  0.26307705996E+03 0.  0.
         25    1    3    3    0    0  0.10289528737E+03 -0.16615448531E+02 -0.24164272916E+03  0.29137987225E+03  0.12509000000E+03 0.  0.
         25    1    4    4    0    0 -0.42232430274E+02 -0.59028530545E+01 -0.64763398743E+02  0.14717414093E+03  0.12509000000E+03 0.  0.
         25    1    4    4    0    0 -0.60662857100E+02  0.22518301585E+02 -0.16805469733E+03  0.21926455603E+03  0.12509000000E+03 0.  0.
<mgrwt>
<rscale>  2 0.45564481E+03</rscale>
<asrwt>0</asrwt>
<pdfrwt beam="1">  1       21 0.13482187E-01 0.45564481E+03</pdfrwt>
<pdfrwt beam="2">  1       21 0.83255836E-01 0.45564481E+03</pdfrwt>
<totfact> 0.54973044E+04</totfact>
</mgrwt>
</event>
<event>
 7    0  0.4705418E-002  0.4649685E+03  0.7546771E-02  0.1023350E+00
         21   -1    0    0  502  501  0.00000000000E+00  0.00000000000E+00  0.10585200452E+03  0.10585200452E+03  0.00000000000E+00 0. -1.
         21   -1    0    0  501  502 -0.00000000000E+00 -0.00000000000E+00 -0.51060839876E+03  0.51060839876E+03  0.00000000000E+00 0. -1.
      99926    2    1    2    0    0 -0.14210854715E-13 -0.88817841970E-15 -0.40475639424E+03  0.61646040328E+03  0.46496848295E+03 0.  0.
      99925    2    3    3    0    0  0.10751998534E+03 -0.55861089357E+01 -0.32914910957E+03  0.43492329562E+03  0.26311097447E+03 0.  0.
         25    1    3    3    0    0 -0.10751998534E+03  0.55861089357E+01 -0.75607284667E+02  0.18153710766E+03  0.12509000000E+03 0.  0.
         25    1    4    4    0    0  0.47243223541E+02 -0.20770605987E+02 -0.10700909169E+03  0.17251606896E+03  0.12509000000E+03 0.  0.
         25    1    4    4    0    0  0.60276761803E+02  0.15184497051E+02 -0.22214001788E+03  0.26240722667E+03  0.12509000000E+03 0.  0.
<mgrwt>
<rscale>  2 0.46496848E+03</rscale>
<asrwt>0</asrwt>
<pdfrwt beam="1">  1       21 0.15566471E-01 0.46496848E+03</pdfrwt>
<pdfrwt beam="2">  1       21 0.75089471E-01 0.46496848E+03</pdfrwt>
<totfact> 0.53350383E+04</totfact>
</mgrwt>
</event>
<event>
 7    0  0.4705418E-002  0.4549738E+03  0.7546771E-02  0.1026249E+00
         21   -1    0    0  502  501  0.00000000000E+00  0.00000000000E+00  0.37161193188E+03  0.37161193188E+03  0.00000000000E+00 0. -1.
         21   -1    0    0  501  502 -0.00000000000E+00 -0.00000000000E+00 -0.13925892711E+03  0.13925892711E+03  0.00000000000E+00 0. -1.
      99926    2    1    2    0    0  0.00000000000E+00  0.00000000000E+00  0.23235300477E+03  0.51087085899E+03  0.45497375280E+03 0.  0.
      99925    2    3    3    0    0  0.68468167555E+02  0.36840595030E+02  0.53747272284E+02  0.27937002705E+03  0.26289489026E+03 0.  0.
         25    1    3    3    0    0 -0.68468167555E+02 -0.36840595030E+02  0.17860573249E+03  0.23150083194E+03  0.12509000000E+03 0.  0.
         25    1    4    4    0    0  0.36861107484E+02  0.55560962933E+02  0.11036463944E+02  0.14217972248E+03  0.12509000000E+03 0.  0.
         25    1    4    4    0    0  0.31607060071E+02 -0.18720367904E+02  0.42710808340E+02  0.13719030458E+03  0.12509000000E+03 0.  0.
<mgrwt>
<rscale>  2 0.45497375E+03</rscale>
<asrwt>0</asrwt>
<pdfrwt beam="1">  1       21 0.54648813E-01 0.45497375E+03</pdfrwt>
<pdfrwt beam="2">  1       21 0.20479254E-01 0.45497375E+03</pdfrwt>
<totfact> 0.64526940E+04</totfact>
</mgrwt>
</event>
<event>
 7    0  0.4705418E-002  0.4433632E+03  0.7546771E-02  0.1029720E+00
         21   -1    0    0  502  501  0.00000000000E+00  0.00000000000E+00  0.37758065682E+02  0.37758065682E+02  0.00000000000E+00 0.  1.
         21   -1    0    0  501  502 -0.00000000000E+00 -0.00000000000E+00 -0.13015163114E+04  0.13015163114E+04  0.00000000000E+00 0.  1.
      99926    2    1    2    0    0 -0.71054273576E-14  0.00000000000E+00 -0.12637582458E+04  0.13392743771E+04  0.44336322975E+03 0.  0.
      99925    2    3    3    0    0  0.46277086208E+02 -0.55833710972E+02 -0.10198656748E+04  0.10557429569E+04  0.26307456054E+03 0.  0.
         25    1    3    3    0    0 -0.46277086208E+02  0.55833710972E+02 -0.24389257094E+03  0.28353142022E+03  0.12509000000E+03 0.  0.
         25    1    4    4    0    0 -0.74302755932E+01 -0.27662343683E+02 -0.38459326917E+03  0.40543791762E+03  0.12509000000E+03 0.  0.
         25    1    4    4    0    0  0.53707361802E+02 -0.28171367289E+02 -0.63527240566E+03  0.65030503930E+03  0.12509000000E+03 0.  0.
<mgrwt>
<rscale>  2 0.44336323E+03</rscale>
<asrwt>0</asrwt>
<pdfrwt beam="1">  1       21 0.55526582E-02 0.44336323E+03</pdfrwt>
<pdfrwt beam="2">  1       21 0.19139941E+00 0.44336323E+03</pdfrwt>
<totfact> 0.30678336E+04</totfact>
</mgrwt>
</event>
<event>
 7    0  0.4705418E-002  0.4558974E+03  0.7546771E-02  0.1025978E+00
         21   -1    0    0  502  501  0.00000000000E+00  0.00000000000E+00  0.14778505493E+03  0.14778505493E+03  0.00000000000E+00 0. -1.
         21   -1    0    0  501  502 -0.00000000000E+00 -0.00000000000E+00 -0.35159587865E+03  0.35159587865E+03  0.00000000000E+00 0. -1.
      99926    2    1    2    0    0  0.14210854715E-13  0.71054273576E-14 -0.20381082371E+03  0.49938093358E+03  0.45589742811E+03 0.  0.
      99925    2    3    3    0    0  0.10223855015E+03  0.45814643099E+02 -0.10553213960E+03  0.30480983987E+03  0.26309751677E+03 0.  0.
         25    1    3    3    0    0 -0.10223855015E+03 -0.45814643099E+02 -0.98278684107E+02  0.19457109371E+03  0.12509000000E+03 0.  0.
         25    1    4    4    0    0  0.44501307085E+02  0.63284908175E+02 -0.53742012983E+02  0.15659201127E+03  0.12509000000E+03 0.  0.
         25    1    4    4    0    0  0.57737243061E+02 -0.17470265076E+02 -0.51790126622E+02  0.14821782860E+03  0.12509000000E+03 0.  0.
<mgrwt>
<rscale>  2 0.45589743E+03</rscale>
<asrwt>0</asrwt>
<pdfrwt beam="1">  1       21 0.21733096E-01 0.45589743E+03</pdfrwt>
<pdfrwt beam="2">  1       21 0.51705276E-01 0.45589743E+03</pdfrwt>
<totfact> 0.64850946E+04</totfact>
</mgrwt>
</event>
<event>
 7    0  0.4705418E-002  0.4523481E+03  0.7546771E-02  0.1027024E+00
         21   -1    0    0  502  501  0.00000000000E+00  0.00000000000E+00  0.55270061612E+02  0.55270061612E+02  0.00000000000E+00 0.  1.
         21   -1    0    0  501  502 -0.00000000000E+00 -0.00000000000E+00 -0.92554088371E+03  0.92554088371E+03  0.00000000000E+00 0.  1.
      99926    2    1    2    0    0  0.00000000000E+00  0.00000000000E+00 -0.87027082210E+03  0.98081094532E+03  0.45234810342E+03 0.  0.
      99925    2    3    3    0    0  0.97630645485E+02  0.51607082701E+02 -0.53389564442E+03  0.60532352586E+03  0.26301516667E+03 0.  0.
         25    1    4    4    0    0  0.65883280531E+02  0.40458578192E+02 -0.35674272696E+03  0.38586316816E+03  0.12509000000E+03 0.  0.
         25    1    4    4    0    0  0.31747364954E+02  0.11148504508E+02 -0.17715291746E+03  0.21946035770E+03  0.12509000000E+03 0.  0.
         25    1    3    3    0    0 -0.97630645485E+02 -0.51607082701E+02 -0.33637517767E+03  0.37548741947E+03  0.12509000000E+03 0.  0.
<mgrwt>
<rscale>  2 0.45234810E+03</rscale>
<asrwt>0</asrwt>
<pdfrwt beam="1">  1       21 0.81279514E-02 0.45234810E+03</pdfrwt>
<pdfrwt beam="2">  1       21 0.13610893E+00 0.45234810E+03</pdfrwt>
<totfact> 0.40755882E+04</totfact>
</mgrwt>
</event>
<event>
 7    0  0.4705418E-002  0.4523422E+03  0.7546771E-02  0.1027026E+00
         21   -1    0    0  502  501  0.00000000000E+00  0.00000000000E+00  0.45678028889E+02  0.45678028889E+02  0.00000000000E+00 0.  1.
         21   -1    0    0  501  502 -0.00000000000E+00 -0.00000000000E+00 -0.11198680906E+04  0.11198680906E+04  0.00000000000E+00 0.  1.
      99926    2    1    2    0    0  0.00000000000E+00  0.00000000000E+00 -0.10741900617E+04  0.11655461195E+04  0.45234220229E+03 0.  0.
      99925    2    3    3    0    0 -0.46532120669E+02  0.10035829367E+03 -0.66678481255E+03  0.72524670942E+03  0.26295204489E+03 0.  0.
         25    1    4    4    0    0  0.51377257084E+01  0.20678870845E+02 -0.26356576459E+03  0.29252082368E+03  0.12509000000E+03 0.  0.
         25    1    3    3    0    0  0.46532120669E+02 -0.10035829367E+03 -0.40740524914E+03  0.44029941005E+03  0.12509000000E+03 0.  0.
         25    1    4    4    0    0 -0.51669846378E+02  0.79679422828E+02 -0.40321904796E+03  0.43272588573E+03  0.12509000000E+03 0.  0.
<mgrwt>
<rscale>  2 0.45234220E+03</rscale>
<asrwt>0</asrwt>
<pdfrwt beam="1">  1       21 0.67173568E-02 0.45234220E+03</pdfrwt>
<pdfrwt beam="2">  1       21 0.16468649E+00 0.45234220E+03</pdfrwt>
<totfact> 0.33965553E+04</totfact>
</mgrwt>
</event>
<event>
 7    0  0.4705418E-002  0.4504983E+03  0.7546771E-02  0.1027574E+00
         21   -1    0    0  502  501  0.00000000000E+00  0.00000000000E+00  0.76098926437E+02  0.76098926437E+02  0.00000000000E+00 0.  1.
         21   -1    0    0  501  502 -0.00000000000E+00 -0.00000000000E+00 -0.66672649036E+03  0.66672649036E+03  0.00000000000E+00 0.  1.
      99926    2    1    2    0    0  0.00000000000E+00  0.00000000000E+00 -0.59062756392E+03  0.74282541679E+03  0.45049825812E+03 0.  0.
      99925    2    3    3    0    0  0.76508118363E+02 -0.41447789045E+02 -0.48130118533E+03  0.55528561689E+03  0.26290658785E+03 0.  0.
         25    1    4    4    0    0  0.36410504061E+02 -0.26990282451E+02 -0.16144164569E+03  0.20920113101E+03  0.12509000000E+03 0.  0.
         25    1    4    4    0    0  0.40097614301E+02 -0.14457506594E+02 -0.31985953964E+03  0.34608448588E+03  0.12509000000E+03 0.  0.
         25    1    3    3    0    0 -0.76508118363E+02  0.41447789045E+02 -0.10932637859E+03  0.18753979991E+03  0.12509000000E+03 0.  0.
<mgrwt>
<rscale>  2 0.45049826E+03</rscale>
<asrwt>0</asrwt>
<pdfrwt beam="1">  1       21 0.11191019E-01 0.45049826E+03</pdfrwt>
<pdfrwt beam="2">  1       21 0.98048011E-01 0.45049826E+03</pdfrwt>
<totfact> 0.52471037E+04</totfact>
</mgrwt>
</event>
<event>
 7    0  0.4705418E-002  0.4591795E+03  0.7546771E-02  0.1025019E+00
         21   -1    0    0  502  501  0.00000000000E+00  0.00000000000E+00  0.12359949675E+03  0.12359949675E+03  0.00000000000E+00 0. -1.
         21   -1    0    0  501  502 -0.00000000000E+00 -0.00000000000E+00 -0.42646982660E+03  0.42646982660E+03  0.00000000000E+00 0. -1.
      99926    2    1    2    0    0  0.00000000000E+00  0.66613381478E-15 -0.30287032986E+03  0.55006932335E+03  0.45917951151E+03 0.  0.
      99925    2    3    3    0    0  0.11493475495E+03  0.10535092778E+01 -0.21673073315E+03  0.35959978249E+03  0.26292334452E+03 0.  0.
         25    1    4    4    0    0  0.59961045932E+02  0.22515639520E+02 -0.66755370899E+02  0.15558299617E+03  0.12509000000E+03 0.  0.
         25    1    3    3    0    0 -0.11493475495E+03 -0.10535092778E+01 -0.86139596701E+02  0.19046954086E+03  0.12509000000E+03 0.  0.
         25    1    4    4    0    0  0.54973709018E+02 -0.21462130242E+02 -0.14997536226E+03  0.20401678632E+03  0.12509000000E+03 0.  0.
<mgrwt>
<rscale>  2 0.45917951E+03</rscale>
<asrwt>0</asrwt>
<pdfrwt beam="1">  1       21 0.18176397E-01 0.45917951E+03</pdfrwt>
<pdfrwt beam="2">  1       21 0.62716150E-01 0.45917951E+03</pdfrwt>
<totfact> 0.59857848E+04</totfact>
</mgrwt>
</event>
<event>
 7    0  0.4705418E-002  0.4623904E+03  0.7546771E-02  0.1024090E+00
         21   -1    0    0  502  501  0.00000000000E+00  0.00000000000E+00  0.11460605283E+03  0.11460605283E+03  0.00000000000E+00 0. -1.
         21   -1    0    0  501  502 -0.00000000000E+00 -0.00000000000E+00 -0.46639083633E+03  0.46639083633E+03  0.00000000000E+00 0. -1.
      99926    2    1    2    0    0  0.00000000000E+00  0.35527136788E-14 -0.35178478350E+03  0.58099688916E+03  0.46239036680E+03 0.  0.
      99925    2    3    3    0    0  0.74175880363E+02  0.20893479419E+02 -0.10461249162E+03  0.29345515535E+03  0.26312270158E+03 0.  0.
         25    1    4    4    0    0  0.36576573928E+02  0.45137741358E+02 -0.30220923681E+02  0.14119516204E+03  0.12509000000E+03 0.  0.
         25    1    4    4    0    0  0.37599306435E+02 -0.24244261939E+02 -0.74391567939E+02  0.15225999331E+03  0.12509000000E+03 0.  0.
         25    1    3    3    0    0 -0.74175880363E+02 -0.20893479419E+02 -0.24717229189E+03  0.28754173382E+03  0.12509000000E+03 0.  0.
<mgrwt>
<rscale>  2 0.46239037E+03</rscale>
<asrwt>0</asrwt>
<pdfrwt beam="1">  1       21 0.16853831E-01 0.46239037E+03</pdfrwt>
<pdfrwt beam="2">  1       21 0.68586890E-01 0.46239037E+03</pdfrwt>
<totfact> 0.56489933E+04</totfact>
</mgrwt>
</event>
<event>
 7    0  0.4705418E-002  0.4492813E+03  0.7546771E-02  0.1027937E+00
         21   -1    0    0  502  501  0.00000000000E+00  0.00000000000E+00  0.65084160535E+03  0.65084160535E+03  0.00000000000E+00 0.  1.
         21   -1    0    0  501  502 -0.00000000000E+00 -0.00000000000E+00 -0.77535650847E+02  0.77535650847E+02  0.00000000000E+00 0.  1.
      99926    2    1    2    0    0  0.00000000000E+00  0.00000000000E+00  0.57330595450E+03  0.72837725619E+03  0.44928132598E+03 0.  0.
      99925    2    3    3    0    0  0.36389376519E+02  0.37506681561E+02  0.20850477255E+03  0.33920075595E+03  0.26239659826E+03 0.  0.
         25    1    4    4    0    0  0.43546222944E+02  0.16934527227E+02  0.14539682264E+03  0.19741022232E+03  0.12509000000E+03 0.  0.
         25    1    3    3    0    0 -0.36389376519E+02 -0.37506681561E+02  0.36480118196E+03  0.38917650024E+03  0.12509000000E+03 0.  0.
         25    1    4    4    0    0 -0.71568464255E+01  0.20572154334E+02  0.63107949909E+02  0.14179053363E+03  0.12509000000E+03 0.  0.
<mgrwt>
<rscale>  2 0.44928133E+03</rscale>
<asrwt>0</asrwt>
<pdfrwt beam="1">  1       21 0.95711998E-01 0.44928133E+03</pdfrwt>
<pdfrwt beam="2">  1       21 0.11402302E-01 0.44928133E+03</pdfrwt>
<totfact> 0.53766650E+04</totfact>
</mgrwt>
</event>
<event>
 7    0  0.4705418E-002  0.4676969E+03  0.7546771E-02  0.1022572E+00
         21   -1    0    0  502  501  0.00000000000E+00  0.00000000000E+00  0.20282484282E+04  0.20282484282E+04  0.00000000000E+00 0. -1.
         21   -1    0    0  501  502 -0.00000000000E+00 -0.00000000000E+00 -0.26961738105E+02  0.26961738105E+02  0.00000000000E+00 0. -1.
      99926    2    1    2    0    0  0.14210854715E-13  0.14210854715E-13  0.20012866901E+04  0.20552101663E+04  0.46769692294E+03 0.  0.
      99925    2    3    3    0    0 -0.74841848676E+02 -0.91358217127E+02  0.14217748124E+04  0.14507028044E+04  0.26295890033E+03 0.  0.
         25    1    3    3    0    0  0.74841848676E+02  0.91358217127E+02  0.57951187764E+03  0.60450736189E+03  0.12509000000E+03 0.  0.
         25    1    4    4    0    0 -0.77060031712E+02 -0.58287308604E+02  0.83491096388E+03  0.84974083375E+03  0.12509000000E+03 0.  0.
         25    1    4    4    0    0  0.22181830360E+01 -0.33070908524E+02  0.58686384856E+03  0.60096197066E+03  0.12509000000E+03 0.  0.
<mgrwt>
<rscale>  2 0.46769692E+03</rscale>
<asrwt>0</asrwt>
<pdfrwt beam="1">  1       21 0.29827172E+00 0.46769692E+03</pdfrwt>
<pdfrwt beam="2">  1       21 0.39649629E-02 0.46769692E+03</pdfrwt>
<totfact> 0.11639085E+04</totfact>
</mgrwt>
</event>
<event>
 7    0  0.4705418E-002  0.4484878E+03  0.7546771E-02  0.1028174E+00
         21   -1    0    0  502  501  0.00000000000E+00  0.00000000000E+00  0.60434851834E+03  0.60434851834E+03  0.00000000000E+00 0. -1.
         21   -1    0    0  501  502 -0.00000000000E+00 -0.00000000000E+00 -0.83205853349E+02  0.83205853349E+02  0.00000000000E+00 0. -1.
      99926    2    1    2    0    0  0.00000000000E+00  0.00000000000E+00  0.52114266499E+03  0.68755437169E+03  0.44848783345E+03 0.  0.
      99925    2    3    3    0    0  0.29184440520E+02  0.54240185235E+02  0.46390146658E+03  0.53683014617E+03  0.26303670064E+03 0.  0.
         25    1    4    4    0    0  0.15981224420E+02 -0.11735095099E+02  0.19096008819E+03  0.22914269653E+03  0.12509000000E+03 0.  0.
         25    1    4    4    0    0  0.13203216099E+02  0.65975280335E+02  0.27294137839E+03  0.30768744965E+03  0.12509000000E+03 0.  0.
         25    1    3    3    0    0 -0.29184440520E+02 -0.54240185235E+02  0.57241198414E+02  0.15072422552E+03  0.12509000000E+03 0.  0.
<mgrwt>
<rscale>  2 0.44848783E+03</rscale>
<asrwt>0</asrwt>
<pdfrwt beam="1">  1       21 0.88874780E-01 0.44848783E+03</pdfrwt>
<pdfrwt beam="2">  1       21 0.12236155E-01 0.44848783E+03</pdfrwt>
<totfact> 0.56421399E+04</totfact>
</mgrwt>
</event>
<event>
 7    0  0.4705418E-002  0.4644058E+03  0.7546771E-02  0.1023511E+00
         21   -1    0    0  502  501  0.00000000000E+00  0.00000000000E+00  0.48351027154E+03  0.48351027154E+03  0.00000000000E+00 0.  1.
         21   -1    0    0  501  502 -0.00000000000E+00 -0.00000000000E+00 -0.11151405700E+03  0.11151405700E+03  0.00000000000E+00 0.  1.
      99926    2    1    2    0    0  0.14210854715E-13  0.00000000000E+00  0.37199621454E+03  0.59502432853E+03  0.46440582244E+03 0.  0.
      99925    2    3    3    0    0 -0.72281506386E+02 -0.61858270192E+02  0.13519733015E+03  0.31081968130E+03  0.26320998167E+03 0.  0.
         25    1    4    4    0    0 -0.27650942659E+02 -0.36604232925E+02  0.23155900352E+02  0.13523368042E+03  0.12509000000E+03 0.  0.
         25    1    3    3    0    0  0.72281506386E+02  0.61858270192E+02  0.23679888439E+03  0.28420464723E+03  0.12509000000E+03 0.  0.
         25    1    4    4    0    0 -0.44630563728E+02 -0.25254037267E+02  0.11204142979E+03  0.17558600089E+03  0.12509000000E+03 0.  0.
<mgrwt>
<rscale>  2 0.46440582E+03</rscale>
<asrwt>0</asrwt>
<pdfrwt beam="1">  1       21 0.71104451E-01 0.46440582E+03</pdfrwt>
<pdfrwt beam="2">  1       21 0.16399126E-01 0.46440582E+03</pdfrwt>
<totfact> 0.54797387E+04</totfact>
</mgrwt>
</event>
<event>
 7    0  0.4705418E-002  0.4553924E+03  0.7546771E-02  0.1026126E+00
         21   -1    0    0  502  501  0.00000000000E+00  0.00000000000E+00  0.11118614883E+04  0.11118614883E+04  0.00000000000E+00 0. -1.
         21   -1    0    0  501  502 -0.00000000000E+00 -0.00000000000E+00 -0.46629503573E+02  0.46629503573E+02  0.00000000000E+00 0. -1.
      99926    2    1    2    0    0  0.00000000000E+00  0.00000000000E+00  0.10652319848E+04  0.11584909919E+04  0.45539235497E+03 0.  0.
      99925    2    3    3    0    0 -0.33173028802E+02 -0.89807839741E+02  0.82715038334E+03  0.87301550267E+03  0.26232120258E+03 0.  0.
         25    1    4    4    0    0  0.19763302306E+02 -0.57703610364E+02  0.38672874707E+03  0.41100721001E+03  0.12509000000E+03 0.  0.
         25    1    4    4    0    0 -0.52936331108E+02 -0.32104229377E+02  0.44042163627E+03  0.46200829266E+03  0.12509000000E+03 0.  0.
         25    1    3    3    0    0  0.33173028802E+02  0.89807839741E+02  0.23808160141E+03  0.28547548923E+03  0.12509000000E+03 0.  0.
<mgrwt>
<rscale>  2 0.45539235E+03</rscale>
<asrwt>0</asrwt>
<pdfrwt beam="1">  1       21 0.16350903E+00 0.45539235E+03</pdfrwt>
<pdfrwt beam="2">  1       21 0.68572806E-02 0.45539235E+03</pdfrwt>
<totfact> 0.33397899E+04</totfact>
</mgrwt>
</event>
<event>
 7    0  0.4705418E-002  0.4401614E+03  0.7546771E-02  0.1030697E+00
         21   -1    0    0  502  501  0.00000000000E+00  0.00000000000E+00  0.13619924645E+03  0.13619924645E+03  0.00000000000E+00 0. -1.
         21   -1    0    0  501  502 -0.00000000000E+00 -0.00000000000E+00 -0.35562248002E+03  0.35562248002E+03  0.00000000000E+00 0. -1.
      99926    2    1    2    0    0  0.00000000000E+00  0.00000000000E+00 -0.21942323357E+03  0.49182172648E+03  0.44016139677E+03 0.  0.
      99925    2    3    3    0    0 -0.74772973492E+02 -0.62137889136E+02 -0.12176500358E+03  0.30571220814E+03  0.26302304705E+03 0.  0.
         25    1    3    3    0    0  0.74772973492E+02  0.62137889136E+02 -0.97658229990E+02  0.18610951834E+03  0.12509000000E+03 0.  0.
         25    1    4    4    0    0 -0.61647692415E+02 -0.14207204245E+02 -0.31576117716E+02  0.14369008992E+03  0.12509000000E+03 0.  0.
         25    1    4    4    0    0 -0.13125281077E+02 -0.47930684891E+02 -0.90188885864E+02  0.16202211821E+03  0.12509000000E+03 0.  0.
<mgrwt>
<rscale>  2 0.44016140E+03</rscale>
<asrwt>0</asrwt>
<pdfrwt beam="1">  1       21 0.20029301E-01 0.44016140E+03</pdfrwt>
<pdfrwt beam="2">  1       21 0.52297424E-01 0.44016140E+03</pdfrwt>
<totfact> 0.74212746E+04</totfact>
</mgrwt>
</event>
<event>
 7    0  0.4705418E-002  0.4584063E+03  0.7546771E-02  0.1025244E+00
         21   -1    0    0  502  501  0.00000000000E+00  0.00000000000E+00  0.52341695996E+02  0.52341695996E+02  0.00000000000E+00 0.  1.
         21   -1    0    0  501  502 -0.00000000000E+00 -0.00000000000E+00 -0.10036754677E+04  0.10036754677E+04  0.00000000000E+00 0.  1.
      99926    2    1    2    0    0  0.00000000000E+00  0.00000000000E+00 -0.95133377167E+03  0.10560171637E+04  0.45840626613E+03 0.  0.
      99925    2    3    3    0    0 -0.55684680902E+02  0.62949690976E+02 -0.41147152869E+03  0.49551542702E+03  0.26298911044E+03 0.  0.
         25    1    4    4    0    0 -0.86295358660E+01  0.63717285958E+02 -0.18272784886E+03  0.23058910700E+03  0.12509000000E+03 0.  0.
         25    1    4    4    0    0 -0.47055145036E+02 -0.76759498158E+00 -0.22874367982E+03  0.26492632001E+03  0.12509000000E+03 0.  0.
         25    1    3    3    0    0  0.55684680902E+02 -0.62949690976E+02 -0.53986224298E+03  0.56050173664E+03  0.12509000000E+03 0.  0.
<mgrwt>
<rscale>  2 0.45840627E+03</rscale>
<asrwt>0</asrwt>
<pdfrwt beam="1">  1       21 0.76973082E-02 0.45840627E+03</pdfrwt>
<pdfrwt beam="2">  1       21 0.14759933E+00 0.45840627E+03</pdfrwt>
<totfact> 0.36088367E+04</totfact>
</mgrwt>
</event>
<event>
 7    0  0.4705418E-002  0.4544132E+03  0.7546771E-02  0.1026414E+00
         21   -1    0    0  502  501  0.00000000000E+00  0.00000000000E+00  0.51864412740E+02  0.51864412740E+02  0.00000000000E+00 0. -1.
         21   -1    0    0  501  502 -0.00000000000E+00 -0.00000000000E+00 -0.99534236314E+03  0.99534236314E+03  0.00000000000E+00 0. -1.
      99926    2    1    2    0    0 -0.71054273576E-14 -0.14210854715E-13 -0.94347795040E+03  0.10472067759E+04  0.45441323545E+03 0.  0.
      99925    2    3    3    0    0 -0.56209848538E+02 -0.82317070685E+02 -0.71631691687E+03  0.76938436776E+03  0.26250091954E+03 0.  0.
         25    1    4    4    0    0 -0.40192367290E+02 -0.73405580976E+01 -0.38997695340E+03  0.41158090634E+03  0.12509000000E+03 0.  0.
         25    1    4    4    0    0 -0.16017481247E+02 -0.74976512588E+02 -0.32633996347E+03  0.35780346141E+03  0.12509000000E+03 0.  0.
         25    1    3    3    0    0  0.56209848538E+02  0.82317070685E+02 -0.22716103353E+03  0.27782240812E+03  0.12509000000E+03 0.  0.
<mgrwt>
<rscale>  2 0.45441324E+03</rscale>
<asrwt>0</asrwt>
<pdfrwt beam="1">  1       21 0.76271201E-02 0.45441324E+03</pdfrwt>
<pdfrwt beam="2">  1       21 0.14637387E+00 0.45441324E+03</pdfrwt>
<totfact> 0.37551739E+04</totfact>
</mgrwt>
</event>
<event>
 7    0  0.4705418E-002  0.4467952E+03  0.7546771E-02  0.1028682E+00
         21   -1    0    0  502  501  0.00000000000E+00  0.00000000000E+00  0.45839187067E+02  0.45839187067E+02  0.00000000000E+00 0.  1.
         21   -1    0    0  501  502 -0.00000000000E+00 -0.00000000000E+00 -0.10887296702E+04  0.10887296702E+04  0.00000000000E+00 0.  1.
      99926    2    1    2    0    0 -0.35527136788E-14  0.14210854715E-13 -0.10428904831E+04  0.11345688572E+04  0.44679517910E+03 0.  0.
      99925    2    3    3    0    0  0.19461099815E+02 -0.94337755266E+02 -0.76922353392E+03  0.81862668903E+03  0.26299517940E+03 0.  0.
         25    1    4    4    0    0  0.62154788288E+01 -0.86485158258E+02 -0.37364267946E+03  0.40345343571E+03  0.12509000000E+03 0.  0.
         25    1    3    3    0    0 -0.19461099815E+02  0.94337755266E+02 -0.27366694918E+03  0.31594216820E+03  0.12509000000E+03 0.  0.
         25    1    4    4    0    0  0.13245620986E+02 -0.78525970076E+01 -0.39558085446E+03  0.41517325331E+03  0.12509000000E+03 0.  0.
<mgrwt>
<rscale>  2 0.44679518E+03</rscale>
<asrwt>0</asrwt>
<pdfrwt beam="1">  1       21 0.67410580E-02 0.44679518E+03</pdfrwt>
<pdfrwt beam="2">  1       21 0.16010728E+00 0.44679518E+03</pdfrwt>
<totfact> 0.36586279E+04</totfact>
</mgrwt>
</event>
<event>
 7    0  0.4705418E-002  0.4448198E+03  0.7546771E-02  0.1029278E+00
         21   -1    0    0  502  501  0.00000000000E+00  0.00000000000E+00  0.45688107548E+03  0.45688107548E+03  0.00000000000E+00 0. -1.
         21   -1    0    0  501  502 -0.00000000000E+00 -0.00000000000E+00 -0.10826925299E+03  0.10826925299E+03  0.00000000000E+00 0. -1.
      99926    2    1    2    0    0 -0.66613381478E-15  0.00000000000E+00  0.34861182249E+03  0.56515032848E+03  0.44481984106E+03 0.  0.
      99925    2    3    3    0    0 -0.74968192456E+00  0.90941398746E+02  0.28412521651E+03  0.39758860708E+03  0.26282819824E+03 0.  0.
         25    1    3    3    0    0  0.74968192456E+00 -0.90941398746E+02  0.64486605973E+02  0.16756172140E+03  0.12509000000E+03 0.  0.
         25    1    4    4    0    0 -0.18747459231E+02  0.98302824588E+01  0.14765927505E+03  0.19467632442E+03  0.12509000000E+03 0.  0.
         25    1    4    4    0    0  0.17997777306E+02  0.81111116287E+02  0.13646594147E+03  0.20291228266E+03  0.12509000000E+03 0.  0.
<mgrwt>
<rscale>  2 0.44481984E+03</rscale>
<asrwt>0</asrwt>
<pdfrwt beam="1">  1       21 0.67188393E-01 0.44481984E+03</pdfrwt>
<pdfrwt beam="2">  1       21 0.15921949E-01 0.44481984E+03</pdfrwt>
<totfact> 0.66034419E+04</totfact>
</mgrwt>
</event>
<event>
 7    0  0.4705418E-002  0.4532771E+03  0.7546771E-02  0.1026749E+00
         21   -1    0    0  502  501  0.00000000000E+00  0.00000000000E+00  0.14428506360E+03  0.14428506360E+03  0.00000000000E+00 0. -1.
         21   -1    0    0  501  502 -0.00000000000E+00 -0.00000000000E+00 -0.35599693368E+03  0.35599693368E+03  0.00000000000E+00 0. -1.
      99926    2    1    2    0    0  0.35527136788E-14  0.00000000000E+00 -0.21171187008E+03  0.50028199727E+03  0.45327713473E+03 0.  0.
      99925    2    3    3    0    0 -0.10115405981E+02 -0.94434244467E+02 -0.69228074413E+02  0.28822236393E+03  0.26317191495E+03 0.  0.
         25    1    4    4    0    0 -0.29470968586E+02 -0.53778257119E+02 -0.21924985602E+01  0.13933037744E+03  0.12509000000E+03 0.  0.
         25    1    4    4    0    0  0.19355562605E+02 -0.40655987348E+02 -0.67035575852E+02  0.14889198649E+03  0.12509000000E+03 0.  0.
         25    1    3    3    0    0  0.10115405981E+02  0.94434244467E+02 -0.14248379567E+03  0.21205963334E+03  0.12509000000E+03 0.  0.
<mgrwt>
<rscale>  2 0.45327713E+03</rscale>
<asrwt>0</asrwt>
<pdfrwt beam="1">  1       21 0.21218392E-01 0.45327713E+03</pdfrwt>
<pdfrwt beam="2">  1       21 0.52352491E-01 0.45327713E+03</pdfrwt>
<totfact> 0.66150910E+04</totfact>
</mgrwt>
</event>
<event>
 7    0  0.4705418E-002  0.4495128E+03  0.7546771E-02  0.1027867E+00
         21   -1    0    0  502  501  0.00000000000E+00  0.00000000000E+00  0.26429309902E+03  0.26429309902E+03  0.00000000000E+00 0. -1.
         21   -1    0    0  501  502 -0.00000000000E+00 -0.00000000000E+00 -0.19113419007E+03  0.19113419007E+03  0.00000000000E+00 0. -1.
      99926    2    1    2    0    0  0.00000000000E+00 -0.14210854715E-13  0.73158908952E+02  0.45542728909E+03  0.44951283596E+03 0.  0.
      99925    2    3    3    0    0 -0.41388223143E+02 -0.90636639552E+02  0.88990758720E+02  0.29472215224E+03  0.26270478952E+03 0.  0.
         25    1    3    3    0    0  0.41388223143E+02  0.90636639552E+02 -0.15831849768E+02  0.16070513685E+03  0.12509000000E+03 0.  0.
         25    1    4    4    0    0  0.90991228798E+01 -0.67041264645E+02  0.28630918678E+02  0.14506744227E+03  0.12509000000E+03 0.  0.
         25    1    4    4    0    0 -0.50487346023E+02 -0.23595374907E+02  0.60359840042E+02  0.14965470997E+03  0.12509000000E+03 0.  0.
<mgrwt>
<rscale>  2 0.44951284E+03</rscale>
<asrwt>0</asrwt>
<pdfrwt beam="1">  1       21 0.38866632E-01 0.44951284E+03</pdfrwt>
<pdfrwt beam="2">  1       21 0.28107969E-01 0.44951284E+03</pdfrwt>
<totfact> 0.71597035E+04</totfact>
</mgrwt>
</event>
<event>
 7    0  0.4705418E-002  0.4585007E+03  0.7546771E-02  0.1025217E+00
         21   -1    0    0  502  501  0.00000000000E+00  0.00000000000E+00  0.98112136496E+02  0.98112136496E+02  0.00000000000E+00 0. -1.
         21   -1    0    0  501  502 -0.00000000000E+00 -0.00000000000E+00 -0.53566983509E+03  0.53566983509E+03  0.00000000000E+00 0. -1.
      99926    2    1    2    0    0  0.00000000000E+00  0.00000000000E+00 -0.43755769859E+03  0.63378197158E+03  0.45850065202E+03 0.  0.
      99925    2    3    3    0    0  0.73099208215E+01  0.94690922613E+02 -0.18134466991E+03  0.33326170616E+03  0.26297845866E+03 0.  0.
         25    1    3    3    0    0 -0.73099208215E+01 -0.94690922613E+02 -0.25621302868E+03  0.30052026543E+03  0.12509000000E+03 0.  0.
         25    1    4    4    0    0  0.12574917575E+02  0.66836081675E+02 -0.53316932398E+02  0.15203747481E+03  0.12509000000E+03 0.  0.
         25    1    4    4    0    0 -0.52649967534E+01  0.27854840938E+02 -0.12802773752E+03  0.18122423135E+03  0.12509000000E+03 0.  0.
<mgrwt>
<rscale>  2 0.45850065E+03</rscale>
<asrwt>0</asrwt>
<pdfrwt beam="1">  1       21 0.14428256E-01 0.45850065E+03</pdfrwt>
<pdfrwt beam="2">  1       21 0.78774974E-01 0.45850065E+03</pdfrwt>
<totfact> 0.55107055E+04</totfact>
</mgrwt>
</event>
<event>
 7    0  0.4705418E-002  0.4670087E+03  0.7546771E-02  0.1022768E+00
         21   -1    0    0  502  501  0.00000000000E+00  0.00000000000E+00  0.17282675764E+04  0.17282675764E+04  0.00000000000E+00 0.  1.
         21   -1    0    0  501  502 -0.00000000000E+00 -0.00000000000E+00 -0.31548519744E+02  0.31548519744E+02  0.00000000000E+00 0.  1.
      99926    2    1    2    0    0  0.00000000000E+00 -0.71054273576E-14  0.16967190567E+04  0.17598160962E+04  0.46700870980E+03 0.  0.
      99925    2    3    3    0    0 -0.11360161141E+03  0.50091364891E+02  0.10586933554E+04  0.10978955763E+04  0.26292319195E+03 0.  0.
         25    1    4    4    0    0 -0.76490690618E+02  0.43453898726E+02  0.44794985849E+03  0.47333460774E+03  0.12509000000E+03 0.  0.
         25    1    4    4    0    0 -0.37110920797E+02  0.66374661647E+01  0.61074349688E+03  0.62456096859E+03  0.12509000000E+03 0.  0.
         25    1    3    3    0    0  0.11360161141E+03 -0.50091364891E+02  0.63802570129E+03  0.66192051982E+03  0.12509000000E+03 0.  0.
<mgrwt>
<rscale>  2 0.46700871E+03</rscale>
<asrwt>0</asrwt>
<pdfrwt beam="1">  1       21 0.25415693E+00 0.46700871E+03</pdfrwt>
<pdfrwt beam="2">  1       21 0.46394894E-02 0.46700871E+03</pdfrwt>
<totfact> 0.16456064E+04</totfact>
</mgrwt>
</event>
<event>
 7    0  0.4705418E-002  0.4519231E+03  0.7546771E-02  0.1027150E+00
         21   -1    0    0  502  501  0.00000000000E+00  0.00000000000E+00  0.76631763149E+02  0.76631763149E+02  0.00000000000E+00 0. -1.
         21   -1    0    0  501  502 -0.00000000000E+00 -0.00000000000E+00 -0.66628542350E+03  0.66628542350E+03  0.00000000000E+00 0. -1.
      99926    2    1    2    0    0  0.00000000000E+00  0.00000000000E+00 -0.58965366035E+03  0.74291718665E+03  0.45192312073E+03 0.  0.
      99925    2    3    3    0    0  0.45514324418E+02  0.72949584991E+02 -0.25780557111E+03  0.37800095227E+03  0.26273144415E+03 0.  0.
         25    1    4    4    0    0  0.26853308589E+02 -0.46988101059E+01 -0.12092913459E+03  0.17610946224E+03  0.12509000000E+03 0.  0.
         25    1    3    3    0    0 -0.45514324418E+02 -0.72949584991E+02 -0.33184808924E+03  0.36491623437E+03  0.12509000000E+03 0.  0.
         25    1    4    4    0    0  0.18661015830E+02  0.77648395097E+02 -0.13687643652E+03  0.20189149003E+03  0.12509000000E+03 0.  0.
<mgrwt>
<rscale>  2 0.45192312E+03</rscale>
<asrwt>0</asrwt>
<pdfrwt beam="1">  1       21 0.11269376E-01 0.45192312E+03</pdfrwt>
<pdfrwt beam="2">  1       21 0.97983159E-01 0.45192312E+03</pdfrwt>
<totfact> 0.51877406E+04</totfact>
</mgrwt>
</event>
<event>
 7    0  0.4705418E-002  0.4620854E+03  0.7546771E-02  0.1024178E+00
         21   -1    0    0  502  501  0.00000000000E+00  0.00000000000E+00  0.65987609978E+02  0.65987609978E+02  0.00000000000E+00 0.  1.
         21   -1    0    0  501  502 -0.00000000000E+00 -0.00000000000E+00 -0.80895073762E+03  0.80895073762E+03  0.00000000000E+00 0.  1.
      99926    2    1    2    0    0  0.00000000000E+00  0.00000000000E+00 -0.74296312764E+03  0.87493834759E+03  0.46208538503E+03 0.  0.
      99925    2    3    3    0    0 -0.78508430874E+02 -0.85471933583E+02 -0.52035361496E+03  0.59445389458E+03  0.26294205261E+03 0.  0.
         25    1    3    3    0    0  0.78508430874E+02  0.85471933583E+02 -0.22260951268E+03  0.28048445302E+03  0.12509000000E+03 0.  0.
         25    1    4    4    0    0 -0.30330831133E+02 -0.18292746051E+01 -0.21333126295E+03  0.24916067389E+03  0.12509000000E+03 0.  0.
         25    1    4    4    0    0 -0.48177599741E+02 -0.83642658978E+02 -0.30702235201E+03  0.34529322069E+03  0.12509000000E+03 0.  0.
<mgrwt>
<rscale>  2 0.46208539E+03</rscale>
<asrwt>0</asrwt>
<pdfrwt beam="1">  1       21 0.97040599E-02 0.46208539E+03</pdfrwt>
<pdfrwt beam="2">  1       21 0.11896335E+00 0.46208539E+03</pdfrwt>
<totfact> 0.41957587E+04</totfact>
</mgrwt>
</event>
<event>
 7    0  0.4705418E-002  0.4493384E+03  0.7546771E-02  0.1027920E+00
         21   -1    0    0  502  501  0.00000000000E+00  0.00000000000E+00  0.88240124919E+03  0.88240124919E+03  0.00000000000E+00 0. -1.
         21   -1    0    0  501  502 -0.00000000000E+00 -0.00000000000E+00 -0.57203277465E+02  0.57203277465E+02  0.00000000000E+00 0. -1.
      99926    2    1    2    0    0  0.00000000000E+00  0.00000000000E+00  0.82519797173E+03  0.93960452666E+03  0.44933837358E+03 0.  0.
      99925    2    3    3    0    0 -0.74628075515E+02  0.41589206850E+02  0.38641755841E+03  0.47541192547E+03  0.26343681909E+03 0.  0.
         25    1    4    4    0    0 -0.33284023338E+02  0.19881385967E+02  0.12100189493E+03  0.17830328767E+03  0.12509000000E+03 0.  0.
         25    1    4    4    0    0 -0.41344052177E+02  0.21707820883E+02  0.26541566347E+03  0.29710863780E+03  0.12509000000E+03 0.  0.
         25    1    3    3    0    0  0.74628075515E+02 -0.41589206850E+02  0.43878041332E+03  0.46419260119E+03  0.12509000000E+03 0.  0.
<mgrwt>
<rscale>  2 0.44933837E+03</rscale>
<asrwt>0</asrwt>
<pdfrwt beam="1">  1       21 0.12976488E+00 0.44933837E+03</pdfrwt>
<pdfrwt beam="2">  1       21 0.84122472E-02 0.44933837E+03</pdfrwt>
<totfact> 0.43457130E+04</totfact>
</mgrwt>
</event>
<event>
 7    0  0.4705418E-002  0.4474465E+03  0.7546771E-02  0.1028486E+00
         21   -1    0    0  502  501  0.00000000000E+00  0.00000000000E+00  0.54008697124E+02  0.54008697124E+02  0.00000000000E+00 0.  1.
         21   -1    0    0  501  502 -0.00000000000E+00 -0.00000000000E+00 -0.92674142899E+03  0.92674142899E+03  0.00000000000E+00 0.  1.
      99926    2    1    2    0    0  0.00000000000E+00  0.00000000000E+00 -0.87273273187E+03  0.98075012612E+03  0.44744652038E+03 0.  0.
      99925    2    3    3    0    0 -0.65826671084E+02  0.80786341102E+02 -0.50744135788E+03  0.58081903262E+03  0.26266791474E+03 0.  0.
         25    1    4    4    0    0  0.31796577494E+01  0.23494325299E+02 -0.20175881052E+03  0.23857120377E+03  0.12509000000E+03 0.  0.
         25    1    4    4    0    0 -0.69006328834E+02  0.57292015802E+02 -0.30568254736E+03  0.34224782885E+03  0.12509000000E+03 0.  0.
         25    1    3    3    0    0  0.65826671084E+02 -0.80786341102E+02 -0.36529137399E+03  0.39993109350E+03  0.12509000000E+03 0.  0.
<mgrwt>
<rscale>  2 0.44744652E+03</rscale>
<asrwt>0</asrwt>
<pdfrwt beam="1">  1       21 0.79424561E-02 0.44744652E+03</pdfrwt>
<pdfrwt beam="2">  1       21 0.13628549E+00 0.44744652E+03</pdfrwt>
<totfact> 0.42366655E+04</totfact>
</mgrwt>
</event>
<event>
 7    0  0.4705418E-002  0.4477311E+03  0.7546771E-02  0.1028401E+00
         21   -1    0    0  502  501  0.00000000000E+00  0.00000000000E+00  0.37972385632E+02  0.37972385632E+02  0.00000000000E+00 0.  1.
         21   -1    0    0  501  502 -0.00000000000E+00 -0.00000000000E+00 -0.13197956617E+04  0.13197956617E+04  0.00000000000E+00 0.  1.
      99926    2    1    2    0    0  0.00000000000E+00 -0.17763568394E-14 -0.12818232761E+04  0.13577680474E+04  0.44773112388E+03 0.  0.
      99925    2    3    3    0    0  0.10442160639E+03 -0.45221129125E+01 -0.75976642890E+03  0.81085381168E+03  0.26327657709E+03 0.  0.
         25    1    3    3    0    0 -0.10442160639E+03  0.45221129125E+01 -0.52205684719E+03  0.54691423567E+03  0.12509000000E+03 0.  0.
         25    1    4    4    0    0  0.53900105356E+02 -0.35764781773E+02 -0.31542282538E+03  0.34543220441E+03  0.12509000000E+03 0.  0.
         25    1    4    4    0    0  0.50521501032E+02  0.31242668860E+02 -0.44434360352E+03  0.46542160727E+03  0.12509000000E+03 0.  0.
<mgrwt>
<rscale>  2 0.44773112E+03</rscale>
<asrwt>0</asrwt>
<pdfrwt beam="1">  1       21 0.55841737E-02 0.44773112E+03</pdfrwt>
<pdfrwt beam="2">  1       21 0.19408762E+00 0.44773112E+03</pdfrwt>
<totfact> 0.29088609E+04</totfact>
</mgrwt>
</event>
<event>
 7    0  0.4705418E-002  0.4545658E+03  0.7546771E-02  0.1026369E+00
         21   -1    0    0  502  501  0.00000000000E+00  0.00000000000E+00  0.12315783127E+03  0.12315783127E+03  0.00000000000E+00 0.  1.
         21   -1    0    0  501  502 -0.00000000000E+00 -0.00000000000E+00 -0.41944159235E+03  0.41944159235E+03  0.00000000000E+00 0.  1.
      99926    2    1    2    0    0  0.00000000000E+00  0.71054273576E-14 -0.29628376109E+03  0.54259942362E+03  0.45456580099E+03 0.  0.
      99925    2    3    3    0    0 -0.77474223736E+02 -0.63599953090E+02 -0.24845147655E+03  0.37531928457E+03  0.26284828285E+03 0.  0.
         25    1    4    4    0    0 -0.13477047177E+02 -0.62699125446E+01 -0.14272617483E+03  0.19036599404E+03  0.12509000000E+03 0.  0.
         25    1    3    3    0    0  0.77474223736E+02  0.63599953090E+02 -0.47832284540E+02  0.16728013905E+03  0.12509000000E+03 0.  0.
         25    1    4    4    0    0 -0.63997176559E+02 -0.57330040545E+02 -0.10572530172E+03  0.18495329053E+03  0.12509000000E+03 0.  0.
<mgrwt>
<rscale>  2 0.45456580E+03</rscale>
<asrwt>0</asrwt>
<pdfrwt beam="1">  1       21 0.18111446E-01 0.45456580E+03</pdfrwt>
<pdfrwt beam="2">  1       21 0.61682587E-01 0.45456580E+03</pdfrwt>
<totfact> 0.62572936E+04</totfact>
</mgrwt>
</event>
<event>
 7    0  0.4705418E-002  0.4597663E+03  0.7546771E-02  0.1024849E+00
         21   -1    0    0  502  501  0.00000000000E+00  0.00000000000E+00  0.10185832065E+03  0.10185832065E+03  0.00000000000E+00 0. -1.
         21   -1    0    0  501  502 -0.00000000000E+00 -0.00000000000E+00 -0.51882124479E+03  0.51882124479E+03  0.00000000000E+00 0. -1.
      99926    2    1    2    0    0  0.00000000000E+00 -0.17763568394E-14 -0.41696292413E+03  0.62067956544E+03  0.45976629156E+03 0.  0.
      99925    2    3    3    0    0 -0.37020415891E+02 -0.11197431099E+02 -0.41124330057E+03  0.48962188406E+03  0.26289283640E+03 0.  0.
         25    1    3    3    0    0  0.37020415891E+02  0.11197431099E+02 -0.57196235655E+01  0.13105768138E+03  0.12509000000E+03 0.  0.
         25    1    4    4    0    0 -0.15898559310E+02  0.19547635474E+02 -0.26149773819E+03  0.29096984280E+03  0.12509000000E+03 0.  0.
         25    1    4    4    0    0 -0.21121856581E+02 -0.30745066572E+02 -0.14974556237E+03  0.19865204126E+03  0.12509000000E+03 0.  0.
<mgrwt>
<rscale>  2 0.45976629E+03</rscale>
<asrwt>0</asrwt>
<pdfrwt beam="1">  1       21 0.14979165E-01 0.45976629E+03</pdfrwt>
<pdfrwt beam="2">  1       21 0.76297241E-01 0.45976629E+03</pdfrwt>
<totfact> 0.55311728E+04</totfact>
</mgrwt>
</event>
<event>
 7    0  0.4705418E-002  0.4631494E+03  0.7546771E-02  0.1023872E+00
         21   -1    0    0  502  501  0.00000000000E+00  0.00000000000E+00  0.11390282136E+03  0.11390282136E+03  0.00000000000E+00 0.  1.
         21   -1    0    0  501  502 -0.00000000000E+00 -0.00000000000E+00 -0.47081215511E+03  0.47081215511E+03  0.00000000000E+00 0.  1.
      99926    2    1    2    0    0 -0.71054273576E-14  0.71054273576E-14 -0.35690933375E+03  0.58471497647E+03  0.46314936165E+03 0.  0.
      99925    2    3    3    0    0 -0.60807163337E+02  0.50181906440E+02 -0.33826599885E+03  0.43568203755E+03  0.26301942327E+03 0.  0.
         25    1    4    4    0    0 -0.30199209440E+02  0.47582675196E+02 -0.22813380636E+03  0.26621165439E+03  0.12509000000E+03 0.  0.
         25    1    3    3    0    0  0.60807163337E+02 -0.50181906440E+02 -0.18643334895E+02  0.14903293892E+03  0.12509000000E+03 0.  0.
         25    1    4    4    0    0 -0.30607953897E+02  0.25992312434E+01 -0.11013219249E+03  0.16947038316E+03  0.12509000000E+03 0.  0.
<mgrwt>
<rscale>  2 0.46314936E+03</rscale>
<asrwt>0</asrwt>
<pdfrwt beam="1">  1       21 0.16750415E-01 0.46314936E+03</pdfrwt>
<pdfrwt beam="2">  1       21 0.69237081E-01 0.46314936E+03</pdfrwt>
<totfact> 0.55937560E+04</totfact>
</mgrwt>
</event>
<event>
 7    0  0.4705418E-002  0.4472110E+03  0.7546771E-02  0.1028557E+00
         21   -1    0    0  502  501  0.00000000000E+00  0.00000000000E+00  0.42873535447E+02  0.42873535447E+02  0.00000000000E+00 0. -1.
         21   -1    0    0  501  502 -0.00000000000E+00 -0.00000000000E+00 -0.11662071110E+04  0.11662071110E+04  0.00000000000E+00 0. -1.
      99926    2    1    2    0    0  0.14210854715E-13  0.00000000000E+00 -0.11233335756E+04  0.12090806465E+04  0.44721101021E+03 0.  0.
      99925    2    3    3    0    0 -0.10121182639E+03 -0.29943475078E+02 -0.70244404803E+03  0.75748796717E+03  0.26309681543E+03 0.  0.
         25    1    3    3    0    0  0.10121182639E+03  0.29943475078E+02 -0.42088952756E+03  0.45159267931E+03  0.12509000000E+03 0.  0.
         25    1    4    4    0    0 -0.22468660915E+02 -0.45021493159E+02 -0.34264610953E+03  0.36821955414E+03  0.12509000000E+03 0.  0.
         25    1    4    4    0    0 -0.78743165478E+02  0.15078018081E+02 -0.35979793849E+03  0.38926841303E+03  0.12509000000E+03 0.  0.
<mgrwt>
<rscale>  2 0.44721101E+03</rscale>
<asrwt>0</asrwt>
<pdfrwt beam="1">  1       21 0.63049327E-02 0.44721101E+03</pdfrwt>
<pdfrwt beam="2">  1       21 0.17150102E+00 0.44721101E+03</pdfrwt>
<totfact> 0.33878690E+04</totfact>
</mgrwt>
</event>
<event>
 7    0  0.4705418E-002  0.4610856E+03  0.7546771E-02  0.1024467E+00
         21   -1    0    0  502  501  0.00000000000E+00  0.00000000000E+00  0.77420341311E+02  0.77420341311E+02  0.00000000000E+00 0.  1.
         21   -1    0    0  501  502 -0.00000000000E+00 -0.00000000000E+00 -0.68651189597E+03  0.68651189597E+03  0.00000000000E+00 0.  1.
      99926    2    1    2    0    0  0.00000000000E+00  0.00000000000E+00 -0.60909155466E+03  0.76393223728E+03  0.46108561157E+03 0.  0.
      99925    2    3    3    0    0  0.67525301110E+02 -0.94159075583E+02 -0.33901996884E+03  0.44453942683E+03  0.26316376066E+03 0.  0.
         25    1    3    3    0    0 -0.67525301110E+02  0.94159075583E+02 -0.27007158582E+03  0.31939281045E+03  0.12509000000E+03 0.  0.
         25    1    4    4    0    0  0.63086656381E+01 -0.32197280181E+02 -0.20041268014E+03  0.23851460034E+03  0.12509000000E+03 0.  0.
         25    1    4    4    0    0  0.61216635472E+02 -0.61961795402E+02 -0.13860728870E+03  0.20602482649E+03  0.12509000000E+03 0.  0.
<mgrwt>
<rscale>  2 0.46108561E+03</rscale>
<asrwt>0</asrwt>
<pdfrwt beam="1">  1       21 0.11385344E-01 0.46108561E+03</pdfrwt>
<pdfrwt beam="2">  1       21 0.10095763E+00 0.46108561E+03</pdfrwt>
<totfact> 0.47259895E+04</totfact>
</mgrwt>
</event>
<event>
 7    0  0.4705418E-002  0.4570445E+03  0.7546771E-02  0.1025642E+00
         21   -1    0    0  502  501  0.00000000000E+00  0.00000000000E+00  0.53156296684E+02  0.53156296684E+02  0.00000000000E+00 0.  1.
         21   -1    0    0  501  502 -0.00000000000E+00 -0.00000000000E+00 -0.98243138321E+03  0.98243138321E+03  0.00000000000E+00 0.  1.
      99926    2    1    2    0    0  0.14210854715E-13 -0.35527136788E-14 -0.92927508652E+03  0.10355876799E+04  0.45704447958E+03 0.  0.
      99925    2    3    3    0    0 -0.11352830177E+03  0.18065743988E+02 -0.57326689908E+03  0.64112046448E+03  0.26303130230E+03 0.  0.
         25    1    4    4    0    0 -0.92602647490E+02  0.31774907908E+02 -0.29651788876E+03  0.33638558464E+03  0.12509000000E+03 0.  0.
         25    1    4    4    0    0 -0.20925654277E+02 -0.13709163919E+02 -0.27674901032E+03  0.30473487985E+03  0.12509000000E+03 0.  0.
         25    1    3    3    0    0  0.11352830177E+03 -0.18065743988E+02 -0.35600818744E+03  0.39446721541E+03  0.12509000000E+03 0.  0.
<mgrwt>
<rscale>  2 0.45704448E+03</rscale>
<asrwt>0</asrwt>
<pdfrwt beam="1">  1       21 0.78171032E-02 0.45704448E+03</pdfrwt>
<pdfrwt beam="2">  1       21 0.14447519E+00 0.45704448E+03</pdfrwt>
<totfact> 0.37213229E+04</totfact>
</mgrwt>
</event>
<event>
 7    0  0.4705418E-002  0.4506904E+03  0.7546771E-02  0.1027516E+00
         21   -1    0    0  502  501  0.00000000000E+00  0.00000000000E+00  0.34622934437E+02  0.34622934437E+02  0.00000000000E+00 0. -1.
         21   -1    0    0  501  502 -0.00000000000E+00 -0.00000000000E+00 -0.14666709129E+04  0.14666709129E+04  0.00000000000E+00 0. -1.
      99926    2    1    2    0    0  0.00000000000E+00  0.26645352591E-14 -0.14320479785E+04  0.15012938473E+04  0.45069036315E+03 0.  0.
      99925    2    3    3    0    0 -0.38289497739E+02  0.64186208447E+01 -0.56382093746E+03  0.62324317274E+03  0.26273697593E+03 0.  0.
         25    1    4    4    0    0 -0.29266402141E+02 -0.23330871119E+02 -0.21710748104E+03  0.25334564978E+03  0.12509000000E+03 0.  0.
         25    1    3    3    0    0  0.38289497739E+02 -0.64186208447E+01 -0.86822704102E+03  0.87805067461E+03  0.12509000000E+03 0.  0.
         25    1    4    4    0    0 -0.90230955979E+01  0.29749491963E+02 -0.34671345642E+03  0.36989752295E+03  0.12509000000E+03 0.  0.
<mgrwt>
<rscale>  2 0.45069036E+03</rscale>
<asrwt>0</asrwt>
<pdfrwt beam="1">  1       21 0.50916085E-02 0.45069036E+03</pdfrwt>
<pdfrwt beam="2">  1       21 0.21568688E+00 0.45069036E+03</pdfrwt>
<totfact> 0.24559311E+04</totfact>
</mgrwt>
</event>
<event>
 7    0  0.4705418E-002  0.4509806E+03  0.7546771E-02  0.1027430E+00
         21   -1    0    0  502  501  0.00000000000E+00  0.00000000000E+00  0.21896101461E+03  0.21896101461E+03  0.00000000000E+00 0.  1.
         21   -1    0    0  501  502 -0.00000000000E+00 -0.00000000000E+00 -0.23221430930E+03  0.23221430930E+03  0.00000000000E+00 0.  1.
      99926    2    1    2    0    0  0.14210854715E-13  0.00000000000E+00 -0.13253294690E+02  0.45117532391E+03  0.45098062384E+03 0.  0.
      99925    2    3    3    0    0 -0.10124196956E+03 -0.90807019682E+01 -0.49080863699E+02  0.28605864289E+03  0.26284638183E+03 0.  0.
         25    1    3    3    0    0  0.10124196956E+03  0.90807019682E+01  0.35827569009E+02  0.16511668102E+03  0.12509000000E+03 0.  0.
         25    1    4    4    0    0 -0.88925769796E+02 -0.15890780465E+02 -0.42328342073E+02  0.15999845649E+03  0.12509000000E+03 0.  0.
         25    1    4    4    0    0 -0.12316199769E+02  0.68100784969E+01 -0.67525216256E+01  0.12606018640E+03  0.12509000000E+03 0.  0.
<mgrwt>
<rscale>  2 0.45098062E+03</rscale>
<asrwt>0</asrwt>
<pdfrwt beam="1">  1       21 0.32200149E-01 0.45098062E+03</pdfrwt>
<pdfrwt beam="2">  1       21 0.34149163E-01 0.45098062E+03</pdfrwt>
<totfact> 0.71079235E+04</totfact>
</mgrwt>
</event>
<event>
 7    0  0.4705418E-002  0.4558664E+03  0.7546771E-02  0.1025987E+00
         21   -1    0    0  502  501  0.00000000000E+00  0.00000000000E+00  0.81364806655E+03  0.81364806655E+03  0.00000000000E+00 0. -1.
         21   -1    0    0  501  502 -0.00000000000E+00 -0.00000000000E+00 -0.63852597785E+02  0.63852597785E+02  0.00000000000E+00 0. -1.
      99926    2    1    2    0    0  0.00000000000E+00 -0.71054273576E-14  0.74979546877E+03  0.87750066433E+03  0.45586639592E+03 0.  0.
      99925    2    3    3    0    0 -0.97015338976E+02 -0.52484538114E+02  0.52668067844E+03  0.59894309309E+03  0.26300891425E+03 0.  0.
         25    1    4    4    0    0 -0.15751052152E+02 -0.95451957843E+01  0.28386918303E+03  0.31075460991E+03  0.12509000000E+03 0.  0.
         25    1    4    4    0    0 -0.81264286824E+02 -0.42939342330E+02  0.24281149542E+03  0.28818848318E+03  0.12509000000E+03 0.  0.
         25    1    3    3    0    0  0.97015338976E+02  0.52484538114E+02  0.22311479032E+03  0.27855757125E+03  0.12509000000E+03 0.  0.
<mgrwt>
<rscale>  2 0.45586640E+03</rscale>
<asrwt>0</asrwt>
<pdfrwt beam="1">  1       21 0.11965412E+00 0.45586640E+03</pdfrwt>
<pdfrwt beam="2">  1       21 0.93900884E-02 0.45586640E+03</pdfrwt>
<totfact> 0.43922007E+04</totfact>
</mgrwt>
</event>
<event>
 7    0  0.4705418E-002  0.4301198E+03  0.7546771E-02  0.1033822E+00
         21   -1    0    0  502  501  0.00000000000E+00  0.00000000000E+00  0.21086355905E+03  0.21086355905E+03  0.00000000000E+00 0. -1.
         21   -1    0    0  501  502 -0.00000000000E+00 -0.00000000000E+00 -0.21933977112E+03  0.21933977112E+03  0.00000000000E+00 0. -1.
      99926    2    1    2    0    0  0.00000000000E+00  0.00000000000E+00 -0.84762120660E+01  0.43020333017E+03  0.43011981949E+03 0.  0.
      99925    2    3    3    0    0 -0.45782850312E+02 -0.53899198162E+02  0.46655510447E+02  0.27629359080E+03  0.26298330502E+03 0.  0.
         25    1    3    3    0    0  0.45782850312E+02  0.53899198162E+02 -0.55131722513E+02  0.15390973937E+03  0.12509000000E+03 0.  0.
         25    1    4    4    0    0  0.51037811439E+01 -0.49463184524E+02  0.42493760387E+01  0.13467821094E+03  0.12509000000E+03 0.  0.
         25    1    4    4    0    0 -0.50886631456E+02 -0.44360136386E+01  0.42406134408E+02  0.14161537986E+03  0.12509000000E+03 0.  0.
<mgrwt>
<rscale>  2 0.43011982E+03</rscale>
<asrwt>0</asrwt>
<pdfrwt beam="1">  1       21 0.31009347E-01 0.43011982E+03</pdfrwt>
<pdfrwt beam="2">  1       21 0.32255849E-01 0.43011982E+03</pdfrwt>
<totfact> 0.86303926E+04</totfact>
</mgrwt>
</event>
<event>
 7    0  0.4705418E-002  0.4531932E+03  0.7546771E-02  0.1026774E+00
         21   -1    0    0  502  501  0.00000000000E+00  0.00000000000E+00  0.82339017207E+02  0.82339017207E+02  0.00000000000E+00 0. -1.
         21   -1    0    0  501  502 -0.00000000000E+00 -0.00000000000E+00 -0.62359284170E+03  0.62359284170E+03  0.00000000000E+00 0. -1.
      99926    2    1    2    0    0  0.00000000000E+00  0.35527136788E-14 -0.54125382450E+03  0.70593185891E+03  0.45319321144E+03 0.  0.
      99925    2    3    3    0    0 -0.68452189955E+02 -0.19299327850E+02 -0.20723543189E+03  0.34223698534E+03  0.26290961096E+03 0.  0.
         25    1    4    4    0    0 -0.32217187466E+02 -0.49780603792E+02 -0.99267137272E+02  0.17034532082E+03  0.12509000000E+03 0.  0.
         25    1    3    3    0    0  0.68452189955E+02  0.19299327850E+02 -0.33401839260E+03  0.36369487357E+03  0.12509000000E+03 0.  0.
         25    1    4    4    0    0 -0.36235002488E+02  0.30481275942E+02 -0.10796829462E+03  0.17189166452E+03  0.12509000000E+03 0.  0.
<mgrwt>
<rscale>  2 0.45319321E+03</rscale>
<asrwt>0</asrwt>
<pdfrwt beam="1">  1       21 0.12108680E-01 0.45319321E+03</pdfrwt>
<pdfrwt beam="2">  1       21 0.91704826E-01 0.45319321E+03</pdfrwt>
<totfact> 0.53336310E+04</totfact>
</mgrwt>
</event>
<event>
 7    0  0.4705418E-002  0.4495540E+03  0.7546771E-02  0.1027855E+00
         21   -1    0    0  502  501  0.00000000000E+00  0.00000000000E+00  0.91212725528E+03  0.91212725528E+03  0.00000000000E+00 0.  1.
         21   -1    0    0  501  502 -0.00000000000E+00 -0.00000000000E+00 -0.55392171964E+02  0.55392171964E+02  0.00000000000E+00 0.  1.
      99926    2    1    2    0    0  0.00000000000E+00  0.00000000000E+00  0.85673508331E+03  0.96751942724E+03  0.44955404470E+03 0.  0.
      99925    2    3    3    0    0 -0.44629087129E+02 -0.17211107927E+02  0.75055792560E+03  0.79661280193E+03  0.26261526778E+03 0.  0.
         25    1    4    4    0    0 -0.27850816499E+02 -0.23888080409E+02  0.48963507633E+03  0.50669154763E+03  0.12509000000E+03 0.  0.
         25    1    4    4    0    0 -0.16778270630E+02  0.66769724816E+01  0.26092284927E+03  0.28992125431E+03  0.12509000000E+03 0.  0.
         25    1    3    3    0    0  0.44629087129E+02  0.17211107927E+02  0.10617715772E+03  0.17090662531E+03  0.12509000000E+03 0.  0.
<mgrwt>
<rscale>  2 0.44955404E+03</rscale>
<asrwt>0</asrwt>
<pdfrwt beam="1">  1       21 0.13413635E+00 0.44955404E+03</pdfrwt>
<pdfrwt beam="2">  1       21 0.81459082E-02 0.44955404E+03</pdfrwt>
<totfact> 0.42208091E+04</totfact>
</mgrwt>
</event>
<event>
 7    0  0.4705418E-002  0.4441209E+03  0.7546771E-02  0.1029490E+00
         21   -1    0    0  502  501  0.00000000000E+00  0.00000000000E+00  0.75725503272E+02  0.75725503272E+02  0.00000000000E+00 0. -1.
         21   -1    0    0  501  502 -0.00000000000E+00 -0.00000000000E+00 -0.65117874542E+03  0.65117874542E+03  0.00000000000E+00 0. -1.
      99926    2    1    2    0    0  0.00000000000E+00  0.00000000000E+00 -0.57545324214E+03  0.72690424869E+03  0.44412087641E+03 0.  0.
      99925    2    3    3    0    0  0.76870334232E+02  0.16288324098E+02 -0.26036064167E+03  0.37890250622E+03  0.26382776143E+03 0.  0.
         25    1    3    3    0    0 -0.76870334232E+02 -0.16288324098E+02 -0.31509260047E+03  0.34800174246E+03  0.12509000000E+03 0.  0.
         25    1    4    4    0    0  0.73979726053E+02  0.22947043078E+02 -0.16750505806E+03  0.22294622497E+03  0.12509000000E+03 0.  0.
         25    1    4    4    0    0  0.28906081790E+01 -0.66587189794E+01 -0.92855583611E+02  0.15595628125E+03  0.12509000000E+03 0.  0.
<mgrwt>
<rscale>  2 0.44412088E+03</rscale>
<asrwt>0</asrwt>
<pdfrwt beam="1">  1       21 0.11136103E-01 0.44412088E+03</pdfrwt>
<pdfrwt beam="2">  1       21 0.95761580E-01 0.44412088E+03</pdfrwt>
<totfact> 0.56115500E+04</totfact>
</mgrwt>
</event>
<event>
 7    0  0.4705418E-002  0.4597268E+03  0.7546771E-02  0.1024860E+00
         21   -1    0    0  502  501  0.00000000000E+00  0.00000000000E+00  0.39611885918E+03  0.39611885918E+03  0.00000000000E+00 0.  1.
         21   -1    0    0  501  502 -0.00000000000E+00 -0.00000000000E+00 -0.13338718443E+03  0.13338718443E+03  0.00000000000E+00 0.  1.
      99926    2    1    2    0    0  0.00000000000E+00 -0.14210854715E-13  0.26273167475E+03  0.52950604360E+03  0.45972678549E+03 0.  0.
      99925    2    3    3    0    0  0.52767136154E+02  0.70117382751E+02  0.74619139632E+02  0.28715371333E+03  0.26303691957E+03 0.  0.
         25    1    4    4    0    0 -0.13706096978E+02  0.22964297247E+02  0.31100771411E+02  0.13164338998E+03  0.12509000000E+03 0.  0.
         25    1    3    3    0    0 -0.52767136154E+02 -0.70117382751E+02  0.18811253512E+03  0.24235233028E+03  0.12509000000E+03 0.  0.
         25    1    4    4    0    0  0.66473233131E+02  0.47153085504E+02  0.43518368220E+02  0.15551032335E+03  0.12509000000E+03 0.  0.
<mgrwt>
<rscale>  2 0.45972679E+03</rscale>
<asrwt>0</asrwt>
<pdfrwt beam="1">  1       21 0.58252773E-01 0.45972679E+03</pdfrwt>
<pdfrwt beam="2">  1       21 0.19615762E-01 0.45972679E+03</pdfrwt>
<totfact> 0.60925024E+04</totfact>
</mgrwt>
</event>
<event>
 7    0  0.4705418E-002  0.4535634E+03  0.7546771E-02  0.1026665E+00
         21   -1    0    0  502  501  0.00000000000E+00  0.00000000000E+00  0.55362435298E+02  0.55362435298E+02  0.00000000000E+00 0.  1.
         21   -1    0    0  501  502 -0.00000000000E+00 -0.00000000000E+00 -0.92896805356E+03  0.92896805356E+03  0.00000000000E+00 0.  1.
      99926    2    1    2    0    0 -0.71054273576E-14 -0.14210854715E-13 -0.87360561826E+03  0.98433048886E+03  0.45356337488E+03 0.  0.
      99925    2    3    3    0    0 -0.47830420377E+02 -0.67207209963E+02 -0.38736306260E+03  0.47552415122E+03  0.26318912961E+03 0.  0.
         25    1    4    4    0    0 -0.45026585661E+02 -0.27370485775E+02 -0.13722397289E+03  0.19301415426E+03  0.12509000000E+03 0.  0.
         25    1    3    3    0    0  0.47830420377E+02  0.67207209963E+02 -0.48624255566E+03  0.50880633764E+03  0.12509000000E+03 0.  0.
         25    1    4    4    0    0 -0.28038347159E+01 -0.39836724188E+02 -0.25013908971E+03  0.28250999696E+03  0.12509000000E+03 0.  0.
<mgrwt>
<rscale>  2 0.45356337E+03</rscale>
<asrwt>0</asrwt>
<pdfrwt beam="1">  1       21 0.81415346E-02 0.45356337E+03</pdfrwt>
<pdfrwt beam="2">  1       21 0.13661295E+00 0.45356337E+03</pdfrwt>
<totfact> 0.40230642E+04</totfact>
</mgrwt>
</event>
<event>
 7    0  0.4705418E-002  0.4576754E+03  0.7546771E-02  0.1025458E+00
         21   -1    0    0  502  501  0.00000000000E+00  0.00000000000E+00  0.20211073779E+03  0.20211073779E+03  0.00000000000E+00 0. -1.
         21   -1    0    0  501  502 -0.00000000000E+00 -0.00000000000E+00 -0.25909897669E+03  0.25909897669E+03  0.00000000000E+00 0. -1.
      99926    2    1    2    0    0  0.00000000000E+00  0.17763568394E-14 -0.56988238896E+02  0.46120971448E+03  0.45767536678E+03 0.  0.
      99925    2    3    3    0    0 -0.10555917927E+03 -0.10847599747E+02  0.10336076963E+02  0.28389507224E+03  0.26311436070E+03 0.  0.
         25    1    4    4    0    0 -0.86364655699E+02  0.11753345474E+02 -0.13828475952E+02  0.15308732714E+03  0.12509000000E+03 0.  0.
         25    1    4    4    0    0 -0.19194523571E+02 -0.22600945221E+02  0.24164552915E+02  0.13080774510E+03  0.12509000000E+03 0.  0.
         25    1    3    3    0    0  0.10555917927E+03  0.10847599747E+02 -0.67324315859E+02  0.17731464224E+03  0.12509000000E+03 0.  0.
<mgrwt>
<rscale>  2 0.45767537E+03</rscale>
<asrwt>0</asrwt>
<pdfrwt beam="1">  1       21 0.29722168E-01 0.45767537E+03</pdfrwt>
<pdfrwt beam="2">  1       21 0.38102790E-01 0.45767537E+03</pdfrwt>
<totfact> 0.66658851E+04</totfact>
</mgrwt>
</event>
<event>
 7    0  0.4705418E-002  0.4575023E+03  0.7546771E-02  0.1025508E+00
         21   -1    0    0  502  501  0.00000000000E+00  0.00000000000E+00  0.13003949578E+03  0.13003949578E+03  0.00000000000E+00 0. -1.
         21   -1    0    0  501  502 -0.00000000000E+00 -0.00000000000E+00 -0.40239376723E+03  0.40239376723E+03  0.00000000000E+00 0. -1.
      99926    2    1    2    0    0  0.14210854715E-13  0.00000000000E+00 -0.27235427145E+03  0.53243326300E+03  0.45750227363E+03 0.  0.
      99925    2    3    3    0    0 -0.72472515801E+02 -0.74784533197E+02 -0.22908694306E+03  0.36401544400E+03  0.26302361878E+03 0.  0.
         25    1    4    4    0    0 -0.43966638110E+02 -0.39444165331E+02 -0.65272618410E+02  0.15296055132E+03  0.12509000000E+03 0.  0.
         25    1    3    3    0    0  0.72472515801E+02  0.74784533197E+02 -0.43267328388E+02  0.16841781900E+03  0.12509000000E+03 0.  0.
         25    1    4    4    0    0 -0.28505877691E+02 -0.35340367866E+02 -0.16381432465E+03  0.21105489268E+03  0.12509000000E+03 0.  0.
<mgrwt>
<rscale>  2 0.45750227E+03</rscale>
<asrwt>0</asrwt>
<pdfrwt beam="1">  1       21 0.19123455E-01 0.45750227E+03</pdfrwt>
<pdfrwt beam="2">  1       21 0.59175554E-01 0.45750227E+03</pdfrwt>
<totfact> 0.61807185E+04</totfact>
</mgrwt>
</event>
<event>
 6    0  0.4705418E-002  0.4491237E+03  0.7546771E-02  0.1027984E+00
         21   -1    0    0  502  501  0.00000000000E+00  0.00000000000E+00  0.69742490997E+03  0.69742490997E+03  0.00000000000E+00 0.  1.
         21   -1    0    0  501  502 -0.00000000000E+00 -0.00000000000E+00 -0.72306025126E+02  0.72306025126E+02  0.00000000000E+00 0.  1.
      99926    2    1    2    0    0  0.00000000000E+00  0.00000000000E+00  0.62511888484E+03  0.76973093510E+03  0.44912369371E+03 0.  0.
         25    1    3    3    0    0 -0.79609986672E+01 -0.23489622821E+02  0.18822982987E+03  0.22736120345E+03  0.12509000000E+03 0.  0.
         25    1    3    3    0    0  0.24840926206E+02 -0.47308668659E+02  0.81326908808E+02  0.15848266764E+03  0.12509000000E+03 0.  0.
         25    1    3    3    0    0 -0.16879927539E+02  0.70798291480E+02  0.35556214617E+03  0.38388706401E+03  0.12509000000E+03 0.  0.
<mgrwt>
<rscale>  2 0.44912369E+03</rscale>
<asrwt>0</asrwt>
<pdfrwt beam="1">  1       21 0.10256248E+00 0.44912369E+03</pdfrwt>
<pdfrwt beam="2">  1       21 0.10633239E-01 0.44912369E+03</pdfrwt>
<totfact> 0.51603298E+04</totfact>
</mgrwt>
</event>
<event>
 7    0  0.4705418E-002  0.4389646E+03  0.7546771E-02  0.1031065E+00
         21   -1    0    0  502  501  0.00000000000E+00  0.00000000000E+00  0.24150802080E+03  0.24150802080E+03  0.00000000000E+00 0. -1.
         21   -1    0    0  501  502 -0.00000000000E+00 -0.00000000000E+00 -0.19946533702E+03  0.19946533702E+03  0.00000000000E+00 0. -1.
      99926    2    1    2    0    0  0.00000000000E+00  0.00000000000E+00  0.42042683772E+02  0.44097335782E+03  0.43896459430E+03 0.  0.
      99925    2    3    3    0    0 -0.87408101007E+02  0.39482105055E+02  0.43717259522E+02  0.28333667096E+03  0.26300086994E+03 0.  0.
         25    1    3    3    0    0  0.87408101007E+02 -0.39482105055E+02 -0.16745757496E+01  0.15763668686E+03  0.12509000000E+03 0.  0.
         25    1    4    4    0    0 -0.10180498249E+02  0.42211282854E+02  0.29149273430E+02  0.13558253275E+03  0.12509000000E+03 0.  0.
         25    1    4    4    0    0 -0.77227602758E+02 -0.27291777991E+01  0.14567986092E+02  0.14775413821E+03  0.12509000000E+03 0.  0.
<mgrwt>
<rscale>  2 0.43896459E+03</rscale>
<asrwt>0</asrwt>
<pdfrwt beam="1">  1       21 0.35515885E-01 0.43896459E+03</pdfrwt>
<pdfrwt beam="2">  1       21 0.29333138E-01 0.43896459E+03</pdfrwt>
<totfact> 0.79249998E+04</totfact>
</mgrwt>
</event>
<event>
 7    0  0.4705418E-002  0.4546580E+03  0.7546771E-02  0.1026342E+00
         21   -1    0    0  502  501  0.00000000000E+00  0.00000000000E+00  0.28019137218E+03  0.28019137218E+03  0.00000000000E+00 0.  1.
         21   -1    0    0  501  502 -0.00000000000E+00 -0.00000000000E+00 -0.18443989169E+03  0.18443989169E+03  0.00000000000E+00 0.  1.
      99926    2    1    2    0    0 -0.88817841970E-15  0.00000000000E+00  0.95751480494E+02  0.46463126387E+03  0.45465796523E+03 0.  0.
      99925    2    3    3    0    0  0.46799969832E+01  0.30935754828E+02 -0.50488165208E+02  0.26966340659E+03  0.26304063323E+03 0.  0.
         25    1    4    4    0    0  0.25406481226E+02  0.27140808756E+02  0.63664993801E+01  0.13065279638E+03  0.12509000000E+03 0.  0.
         25    1    3    3    0    0 -0.46799969832E+01 -0.30935754828E+02  0.14623964570E+03  0.19496785728E+03  0.12509000000E+03 0.  0.
         25    1    4    4    0    0 -0.20726484242E+02  0.37949460725E+01 -0.56854664588E+02  0.13901061021E+03  0.12509000000E+03 0.  0.
<mgrwt>
<rscale>  2 0.45465797E+03</rscale>
<asrwt>0</asrwt>
<pdfrwt beam="1">  1       21 0.41204613E-01 0.45465797E+03</pdfrwt>
<pdfrwt beam="2">  1       21 0.27123514E-01 0.45465797E+03</pdfrwt>
<totfact> 0.68022174E+04</totfact>
</mgrwt>
</event>
<event>
 7    0  0.4705418E-002  0.4395899E+03  0.7546771E-02  0.1030873E+00
         21   -1    0    0  502  501  0.00000000000E+00  0.00000000000E+00  0.16919254178E+03  0.16919254178E+03  0.00000000000E+00 0.  1.
         21   -1    0    0  501  502 -0.00000000000E+00 -0.00000000000E+00 -0.28553166936E+03  0.28553166936E+03  0.00000000000E+00 0.  1.
      99926    2    1    2    0    0  0.17763568394E-14  0.00000000000E+00 -0.11633912758E+03  0.45472421115E+03  0.43958994028E+03 0.  0.
      99925    2    3    3    0    0  0.14097936788E+02  0.94912776985E+02 -0.94951190313E+02  0.29562631984E+03  0.26300571360E+03 0.  0.
         25    1    4    4    0    0  0.22667270709E+02  0.73824139455E+02 -0.80657490810E+02  0.16768108913E+03  0.12509000000E+03 0.  0.
         25    1    4    4    0    0 -0.85693339211E+01  0.21088637530E+02 -0.14293699504E+02  0.12794523071E+03  0.12509000000E+03 0.  0.
         25    1    3    3    0    0 -0.14097936788E+02 -0.94912776985E+02 -0.21387937264E+02  0.15909789130E+03  0.12509000000E+03 0.  0.
<mgrwt>
<rscale>  2 0.43958994E+03</rscale>
<asrwt>0</asrwt>
<pdfrwt beam="1">  1       21 0.24881257E-01 0.43958994E+03</pdfrwt>
<pdfrwt beam="2">  1       21 0.41989951E-01 0.43958994E+03</pdfrwt>
<totfact> 0.77656021E+04</totfact>
</mgrwt>
</event>
<event>
 7    0  0.4705418E-002  0.4319898E+03  0.7546771E-02  0.1033233E+00
         21   -1    0    0  502  501  0.00000000000E+00  0.00000000000E+00  0.83163982277E+03  0.83163982277E+03  0.00000000000E+00 0.  1.
         21   -1    0    0  501  502 -0.00000000000E+00 -0.00000000000E+00 -0.56098547986E+02  0.56098547986E+02  0.00000000000E+00 0.  1.
      99926    2    1    2    0    0  0.00000000000E+00  0.00000000000E+00  0.77554127479E+03  0.88773837076E+03  0.43198975222E+03 0.  0.
      99925    2    3    3    0    0  0.53699324664E+02  0.71994001380E+02  0.50596303284E+03  0.57727631135E+03  0.26302584538E+03 0.  0.
         25    1    4    4    0    0  0.14676700135E+02  0.68242298452E+02  0.31017173510E+03  0.34165249916E+03  0.12509000000E+03 0.  0.
         25    1    4    4    0    0  0.39022624529E+02  0.37517029282E+01  0.19579129774E+03  0.23562381219E+03  0.12509000000E+03 0.  0.
         25    1    3    3    0    0 -0.53699324664E+02 -0.71994001380E+02  0.26957824195E+03  0.31046205941E+03  0.12509000000E+03 0.  0.
<mgrwt>
<rscale>  2 0.43198975E+03</rscale>
<asrwt>0</asrwt>
<pdfrwt beam="1">  1       21 0.12229997E+00 0.43198975E+03</pdfrwt>
<pdfrwt beam="2">  1       21 0.82497870E-02 0.43198975E+03</pdfrwt>
<totfact> 0.52625802E+04</totfact>
</mgrwt>
</event>
<event>
 7    0  0.4705418E-002  0.4586176E+03  0.7546771E-02  0.1025183E+00
         21   -1    0    0  502  501  0.00000000000E+00  0.00000000000E+00  0.30507783627E+03  0.30507783627E+03  0.00000000000E+00 0. -1.
         21   -1    0    0  501  502 -0.00000000000E+00 -0.00000000000E+00 -0.17235775851E+03  0.17235775851E+03  0.00000000000E+00 0. -1.
      99926    2    1    2    0    0  0.00000000000E+00  0.00000000000E+00  0.13272007776E+03  0.47743559479E+03  0.45861762736E+03 0.  0.
      99925    2    3    3    0    0 -0.22056860834E+02 -0.10071847921E+03  0.26128852040E+02  0.28342550571E+03  0.26271007444E+03 0.  0.
         25    1    4    4    0    0 -0.23545508606E+02 -0.39850097305E+02 -0.24053486177E+02  0.13553043764E+03  0.12509000000E+03 0.  0.
         25    1    4    4    0    0  0.14886477723E+01 -0.60868381905E+02  0.50182338217E+02  0.14789506806E+03  0.12509000000E+03 0.  0.
         25    1    3    3    0    0  0.22056860834E+02  0.10071847921E+03  0.10659122572E+03  0.19401008908E+03  0.12509000000E+03 0.  0.
<mgrwt>
<rscale>  2 0.45861763E+03</rscale>
<asrwt>0</asrwt>
<pdfrwt beam="1">  1       21 0.44864388E-01 0.45861763E+03</pdfrwt>
<pdfrwt beam="2">  1       21 0.25346729E-01 0.45861763E+03</pdfrwt>
<totfact> 0.65000983E+04</totfact>
</mgrwt>
</event>
<event>
 7    0  0.4705418E-002  0.4475906E+03  0.7546771E-02  0.1028443E+00
         21   -1    0    0  502  501  0.00000000000E+00  0.00000000000E+00  0.22087720232E+03  0.22087720232E+03  0.00000000000E+00 0.  1.
         21   -1    0    0  501  502 -0.00000000000E+00 -0.00000000000E+00 -0.22675198112E+03  0.22675198112E+03  0.00000000000E+00 0.  1.
      99926    2    1    2    0    0  0.71054273576E-14  0.14210854715E-13 -0.58747788001E+01  0.44762918343E+03  0.44759063086E+03 0.  0.
      99925    2    3    3    0    0 -0.45112906809E+02 -0.90367070738E+02 -0.35789938507E+02  0.28409384562E+03  0.26311026507E+03 0.  0.
         25    1    3    3    0    0  0.45112906809E+02  0.90367070738E+02  0.29915159707E+02  0.16353533782E+03  0.12509000000E+03 0.  0.
         25    1    4    4    0    0  0.18300746322E+02 -0.39795483959E+02 -0.22297533300E+02  0.13439972452E+03  0.12509000000E+03 0.  0.
         25    1    4    4    0    0 -0.63413653131E+02 -0.50571586779E+02 -0.13492405208E+02  0.14969412110E+03  0.12509000000E+03 0.  0.
<mgrwt>
<rscale>  2 0.44759063E+03</rscale>
<asrwt>0</asrwt>
<pdfrwt beam="1">  1       21 0.32481942E-01 0.44759063E+03</pdfrwt>
<pdfrwt beam="2">  1       21 0.33345879E-01 0.44759063E+03</pdfrwt>
<totfact> 0.73329399E+04</totfact>
</mgrwt>
</event>
<event>
 7    0  0.4705418E-002  0.4568598E+03  0.7546771E-02  0.1025696E+00
         21   -1    0    0  502  501  0.00000000000E+00  0.00000000000E+00  0.17071319881E+03  0.17071319881E+03  0.00000000000E+00 0. -1.
         21   -1    0    0  501  502 -0.00000000000E+00 -0.00000000000E+00 -0.30566014315E+03  0.30566014315E+03  0.00000000000E+00 0. -1.
      99926    2    1    2    0    0  0.00000000000E+00  0.00000000000E+00 -0.13494694435E+03  0.47637334196E+03  0.45685980688E+03 0.  0.
      99925    2    3    3    0    0 -0.86953397811E+02  0.72936684960E+02 -0.10314169374E+03  0.30450206609E+03  0.26306395774E+03 0.  0.
         25    1    4    4    0    0 -0.23149914187E+02  0.67856024148E+02 -0.35151503591E+02  0.14840314971E+03  0.12509000000E+03 0.  0.
         25    1    4    4    0    0 -0.63803483624E+02  0.50806608115E+01 -0.67990190153E+02  0.15609891638E+03  0.12509000000E+03 0.  0.
         25    1    3    3    0    0  0.86953397811E+02 -0.72936684960E+02 -0.31805250602E+02  0.17187127587E+03  0.12509000000E+03 0.  0.
<mgrwt>
<rscale>  2 0.45685981E+03</rscale>
<asrwt>0</asrwt>
<pdfrwt beam="1">  1       21 0.25104883E-01 0.45685981E+03</pdfrwt>
<pdfrwt beam="2">  1       21 0.44950020E-01 0.45685981E+03</pdfrwt>
<totfact> 0.65985765E+04</totfact>
</mgrwt>
</event>
<event>
 7    0  0.4705418E-002  0.4199574E+03  0.7546771E-02  0.1037080E+00
         21   -1    0    0  502  501  0.00000000000E+00  0.00000000000E+00  0.80067539913E+03  0.80067539913E+03  0.00000000000E+00 0. -1.
         21   -1    0    0  501  502 -0.00000000000E+00 -0.00000000000E+00 -0.55067320331E+02  0.55067320331E+02  0.00000000000E+00 0. -1.
      99926    2    1    2    0    0  0.00000000000E+00  0.00000000000E+00  0.74560807880E+03  0.85574271947E+03  0.41995737253E+03 0.  0.
      99925    2    3    3    0    0 -0.51205971518E+02 -0.42755446778E+02  0.55963842299E+03  0.62190024956E+03  0.26289670247E+03 0.  0.
         25    1    3    3    0    0  0.51205971518E+02  0.42755446778E+02  0.18596965581E+03  0.23384246990E+03  0.12509000000E+03 0.  0.
         25    1    4    4    0    0 -0.99272148141E+01 -0.11445707714E+01  0.34014051860E+03  0.36255060355E+03  0.12509000000E+03 0.  0.
         25    1    4    4    0    0 -0.41278756704E+02 -0.41610876007E+02  0.21949790439E+03  0.25934964601E+03  0.12509000000E+03 0.  0.
<mgrwt>
<rscale>  2 0.41995737E+03</rscale>
<asrwt>0</asrwt>
<pdfrwt beam="1">  1       21 0.11774638E+00 0.41995737E+03</pdfrwt>
<pdfrwt beam="2">  1       21 0.80981358E-02 0.41995737E+03</pdfrwt>
<totfact> 0.60063176E+04</totfact>
</mgrwt>
</event>
<event>
 6    0  0.4705418E-002  0.4538283E+03  0.7546771E-02  0.1026587E+00
         21   -1    0    0  502  501  0.00000000000E+00  0.00000000000E+00  0.48873170090E+02  0.48873170090E+02  0.00000000000E+00 0.  1.
         21   -1    0    0  501  502 -0.00000000000E+00 -0.00000000000E+00 -0.10535437345E+04  0.10535437345E+04  0.00000000000E+00 0.  1.
      99926    2    1    2    0    0  0.00000000000E+00  0.00000000000E+00 -0.10046705644E+04  0.11024169046E+04  0.45382825885E+03 0.  0.
         25    1    3    3    0    0 -0.19802291673E+02 -0.48755388621E+02 -0.29775835700E+03  0.32722586379E+03  0.12509000000E+03 0.  0.
         25    1    3    3    0    0  0.85801236875E+02  0.71346309457E+02 -0.29787198355E+03  0.34180019720E+03  0.12509000000E+03 0.  0.
         25    1    3    3    0    0 -0.65998945201E+02 -0.22590920836E+02 -0.40904022383E+03  0.43339084356E+03  0.12509000000E+03 0.  0.
<mgrwt>
<rscale>  2 0.45382826E+03</rscale>
<asrwt>0</asrwt>
<pdfrwt beam="1">  1       21 0.71872315E-02 0.45382826E+03</pdfrwt>
<pdfrwt beam="2">  1       21 0.15493289E+00 0.45382826E+03</pdfrwt>
<totfact> 0.35736039E+04</totfact>
</mgrwt>
</event>
<event>
 7    0  0.4705418E-002  0.4520095E+03  0.7546771E-02  0.1027124E+00
         21   -1    0    0  502  501  0.00000000000E+00  0.00000000000E+00  0.13594498212E+03  0.13594498212E+03  0.00000000000E+00 0.  1.
         21   -1    0    0  501  502 -0.00000000000E+00 -0.00000000000E+00 -0.37572655441E+03  0.37572655441E+03  0.00000000000E+00 0.  1.
      99926    2    1    2    0    0  0.00000000000E+00  0.00000000000E+00 -0.23978157229E+03  0.51167153653E+03  0.45200946770E+03 0.  0.
      99925    2    3    3    0    0  0.18626966829E+02 -0.96694312240E+02 -0.95013355192E+02  0.29649231195E+03  0.26302737398E+03 0.  0.
         25    1    4    4    0    0 -0.14663177567E+02 -0.37654076838E+02 -0.12559181626E+02  0.13205332037E+03  0.12509000000E+03 0.  0.
         25    1    3    3    0    0 -0.18626966829E+02  0.96694312240E+02 -0.14476821710E+03  0.21517922459E+03  0.12509000000E+03 0.  0.
         25    1    4    4    0    0  0.33290144395E+02 -0.59040235401E+02 -0.82454173567E+02  0.16443899157E+03  0.12509000000E+03 0.  0.
<mgrwt>
<rscale>  2 0.45200947E+03</rscale>
<asrwt>0</asrwt>
<pdfrwt beam="1">  1       21 0.19991909E-01 0.45200947E+03</pdfrwt>
<pdfrwt beam="2">  1       21 0.55253905E-01 0.45200947E+03</pdfrwt>
<totfact> 0.66010907E+04</totfact>
</mgrwt>
</event>
<event>
 7    0  0.4705418E-002  0.4515080E+03  0.7546771E-02  0.1027273E+00
         21   -1    0    0  502  501  0.00000000000E+00  0.00000000000E+00  0.13282099122E+03  0.13282099122E+03  0.00000000000E+00 0.  1.
         21   -1    0    0  501  502 -0.00000000000E+00 -0.00000000000E+00 -0.38371093045E+03  0.38371093045E+03  0.00000000000E+00 0.  1.
      99926    2    1    2    0    0  0.00000000000E+00  0.14210854715E-13 -0.25088993923E+03  0.51653192167E+03  0.45150798941E+03 0.  0.
      99925    2    3    3    0    0  0.27093017554E+02 -0.88736568524E+02 -0.90695957523E+02  0.29310893702E+03  0.26282861727E+03 0.  0.
         25    1    4    4    0    0  0.43002670992E+01 -0.85121666484E+02 -0.54176750204E+02  0.16076945843E+03  0.12509000000E+03 0.  0.
         25    1    4    4    0    0  0.22792750455E+02 -0.36149020397E+01 -0.36519207318E+02  0.13233947859E+03  0.12509000000E+03 0.  0.
         25    1    3    3    0    0 -0.27093017554E+02  0.88736568524E+02 -0.16019398171E+03  0.22342298465E+03  0.12509000000E+03 0.  0.
<mgrwt>
<rscale>  2 0.45150799E+03</rscale>
<asrwt>0</asrwt>
<pdfrwt beam="1">  1       21 0.19532499E-01 0.45150799E+03</pdfrwt>
<pdfrwt beam="2">  1       21 0.56428078E-01 0.45150799E+03</pdfrwt>
<totfact> 0.65932041E+04</totfact>
</mgrwt>
</event>
<event>
 7    0  0.4705418E-002  0.4557894E+03  0.7546771E-02  0.1026010E+00
         21   -1    0    0  502  501  0.00000000000E+00  0.00000000000E+00  0.73678616752E+03  0.73678616752E+03  0.00000000000E+00 0.  1.
         21   -1    0    0  501  502 -0.00000000000E+00 -0.00000000000E+00 -0.70489913716E+02  0.70489913716E+02  0.00000000000E+00 0.  1.
      99926    2    1    2    0    0 -0.14210854715E-13  0.00000000000E+00  0.66629625381E+03  0.80727608124E+03  0.45578939600E+03 0.  0.
      99925    2    3    3    0    0 -0.72036199712E+02  0.48219606049E+02  0.54777735667E+03  0.61438082066E+03  0.26436606408E+03 0.  0.
         25    1    3    3    0    0  0.72036199712E+02 -0.48219606049E+02  0.11851889714E+03  0.19289526058E+03  0.12509000000E+03 0.  0.
         25    1    4    4    0    0 -0.91040341534E+00  0.10053482593E+02  0.20047225321E+03  0.23651328452E+03  0.12509000000E+03 0.  0.
         25    1    4    4    0    0 -0.71125796297E+02  0.38166123455E+02  0.34730510346E+03  0.37786753614E+03  0.12509000000E+03 0.  0.
<mgrwt>
<rscale>  2 0.45578940E+03</rscale>
<asrwt>0</asrwt>
<pdfrwt beam="1">  1       21 0.10835090E+00 0.45578940E+03</pdfrwt>
<pdfrwt beam="2">  1       21 0.10366164E-01 0.45578940E+03</pdfrwt>
<totfact> 0.47122299E+04</totfact>
</mgrwt>
</event>
<event>
 7    0  0.4705418E-002  0.4554535E+03  0.7546771E-02  0.1026108E+00
         21   -1    0    0  502  501  0.00000000000E+00  0.00000000000E+00  0.12909301567E+03  0.12909301567E+03  0.00000000000E+00 0.  1.
         21   -1    0    0  501  502 -0.00000000000E+00 -0.00000000000E+00 -0.40172182221E+03  0.40172182221E+03  0.00000000000E+00 0.  1.
      99926    2    1    2    0    0 -0.71054273576E-14  0.14210854715E-13 -0.27262880654E+03  0.53081483788E+03  0.45545353875E+03 0.  0.
      99925    2    3    3    0    0  0.48625179037E+02 -0.96868858201E+02 -0.21070566852E+03  0.35409481398E+03  0.26313166821E+03 0.  0.
         25    1    4    4    0    0  0.10665311610E+02 -0.85221122615E+02 -0.94176095142E+02  0.17858620778E+03  0.12509000000E+03 0.  0.
         25    1    3    3    0    0 -0.48625179037E+02  0.96868858201E+02 -0.61923138021E+02  0.17672002390E+03  0.12509000000E+03 0.  0.
         25    1    4    4    0    0  0.37959867427E+02 -0.11647735586E+02 -0.11652957338E+03  0.17550860620E+03  0.12509000000E+03 0.  0.
<mgrwt>
<rscale>  2 0.45545354E+03</rscale>
<asrwt>0</asrwt>
<pdfrwt beam="1">  1       21 0.18984267E-01 0.45545354E+03</pdfrwt>
<pdfrwt beam="2">  1       21 0.59076739E-01 0.45545354E+03</pdfrwt>
<totfact> 0.62924898E+04</totfact>
</mgrwt>
</event>
<event>
 7    0  0.4705418E-002  0.4556867E+03  0.7546771E-02  0.1026040E+00
         21   -1    0    0  502  501  0.00000000000E+00  0.00000000000E+00  0.40015742144E+02  0.40015742144E+02  0.00000000000E+00 0.  1.
         21   -1    0    0  501  502 -0.00000000000E+00 -0.00000000000E+00 -0.12973044894E+04  0.12973044894E+04  0.00000000000E+00 0.  1.
      99926    2    1    2    0    0  0.00000000000E+00  0.00000000000E+00 -0.12572887472E+04  0.13373202315E+04  0.45568674297E+03 0.  0.
      99925    2    3    3    0    0 -0.40718523028E+02  0.37875706152E+02 -0.49885196094E+03  0.56662805293E+03  0.26290968830E+03 0.  0.
         25    1    4    4    0    0 -0.46057631893E+02  0.82528795644E+01 -0.31583756243E+03  0.34291440538E+03  0.12509000000E+03 0.  0.
         25    1    3    3    0    0  0.40718523028E+02 -0.37875706152E+02 -0.75843678630E+03  0.77069217859E+03  0.12509000000E+03 0.  0.
         25    1    4    4    0    0  0.53391088652E+01  0.29622826588E+02 -0.18301439851E+03  0.22371364755E+03  0.12509000000E+03 0.  0.
<mgrwt>
<rscale>  2 0.45568674E+03</rscale>
<asrwt>0</asrwt>
<pdfrwt beam="1">  1       21 0.58846673E-02 0.45568674E+03</pdfrwt>
<pdfrwt beam="2">  1       21 0.19078009E+00 0.45568674E+03</pdfrwt>
<totfact> 0.27900585E+04</totfact>
</mgrwt>
</event>
<event>
 7    0  0.4705418E-002  0.4531906E+03  0.7546771E-02  0.1026775E+00
         21   -1    0    0  502  501  0.00000000000E+00  0.00000000000E+00  0.13039719144E+03  0.13039719144E+03  0.00000000000E+00 0.  1.
         21   -1    0    0  501  502 -0.00000000000E+00 -0.00000000000E+00 -0.39376175568E+03  0.39376175568E+03  0.00000000000E+00 0.  1.
      99926    2    1    2    0    0  0.00000000000E+00 -0.88817841970E-15 -0.26336456424E+03  0.52415894712E+03  0.45319058700E+03 0.  0.
      99925    2    3    3    0    0 -0.11102892365E+03 -0.77572402812E+01 -0.16120848493E+03  0.32801876943E+03  0.26309796811E+03 0.  0.
         25    1    4    4    0    0 -0.29296124611E+02 -0.32261405892E+02 -0.93565866675E+02  0.16217626440E+03  0.12509000000E+03 0.  0.
         25    1    3    3    0    0  0.11102892365E+03  0.77572402812E+01 -0.10215607931E+03  0.19614017769E+03  0.12509000000E+03 0.  0.
         25    1    4    4    0    0 -0.81732799041E+02  0.24504165611E+02 -0.67642618253E+02  0.16584250503E+03  0.12509000000E+03 0.  0.
<mgrwt>
<rscale>  2 0.45319059E+03</rscale>
<asrwt>0</asrwt>
<pdfrwt beam="1">  1       21 0.19176057E-01 0.45319059E+03</pdfrwt>
<pdfrwt beam="2">  1       21 0.57906141E-01 0.45319059E+03</pdfrwt>
<totfact> 0.64524206E+04</totfact>
</mgrwt>
</event>
<event>
 7    0  0.4705418E-002  0.4557273E+03  0.7546771E-02  0.1026028E+00
         21   -1    0    0  502  501  0.00000000000E+00  0.00000000000E+00  0.29760498453E+03  0.29760498453E+03  0.00000000000E+00 0.  1.
         21   -1    0    0  501  502 -0.00000000000E+00 -0.00000000000E+00 -0.17446561223E+03  0.17446561223E+03  0.00000000000E+00 0.  1.
      99926    2    1    2    0    0 -0.88817841970E-15 -0.14210854715E-13  0.12313937230E+03  0.47207059676E+03  0.45572726857E+03 0.  0.
      99925    2    3    3    0    0  0.44316201835E+01 -0.77280071172E+02  0.16393090133E+03  0.31941639408E+03  0.26298601433E+03 0.  0.
         25    1    4    4    0    0 -0.26988711153E+02 -0.41979490140E+02  0.11476753244E+03  0.17694564907E+03  0.12509000000E+03 0.  0.
         25    1    4    4    0    0  0.31420331336E+02 -0.35300581032E+02  0.49163368894E+02  0.14247074501E+03  0.12509000000E+03 0.  0.
         25    1    3    3    0    0 -0.44316201835E+01  0.77280071172E+02 -0.40791529031E+02  0.15265420269E+03  0.12509000000E+03 0.  0.
<mgrwt>
<rscale>  2 0.45572727E+03</rscale>
<asrwt>0</asrwt>
<pdfrwt beam="1">  1       21 0.43765439E-01 0.45572727E+03</pdfrwt>
<pdfrwt beam="2">  1       21 0.25656708E-01 0.45572727E+03</pdfrwt>
<totfact> 0.66895229E+04</totfact>
</mgrwt>
</event>
<event>
 7    0  0.4705418E-002  0.4524271E+03  0.7546771E-02  0.1027001E+00
         21   -1    0    0  502  501  0.00000000000E+00  0.00000000000E+00  0.11733792110E+03  0.11733792110E+03  0.00000000000E+00 0.  1.
         21   -1    0    0  501  502 -0.00000000000E+00 -0.00000000000E+00 -0.43611286303E+03  0.43611286303E+03  0.00000000000E+00 0.  1.
      99926    2    1    2    0    0  0.00000000000E+00  0.00000000000E+00 -0.31877494193E+03  0.55345078412E+03  0.45242712877E+03 0.  0.
      99925    2    3    3    0    0 -0.65545787605E+02  0.66976051566E+02 -0.27311967096E+03  0.39061972559E+03  0.26307294350E+03 0.  0.
         25    1    3    3    0    0  0.65545787605E+02 -0.66976051566E+02 -0.45655270975E+02  0.16283105854E+03  0.12509000000E+03 0.  0.
         25    1    4    4    0    0  0.23049181689E+01  0.10841854761E+02 -0.13702507485E+03  0.18586618224E+03  0.12509000000E+03 0.  0.
         25    1    4    4    0    0 -0.67850705773E+02  0.56134196804E+02 -0.13609459610E+03  0.20475354335E+03  0.12509000000E+03 0.  0.
<mgrwt>
<rscale>  2 0.45242713E+03</rscale>
<asrwt>0</asrwt>
<pdfrwt beam="1">  1       21 0.17255577E-01 0.45242713E+03</pdfrwt>
<pdfrwt beam="2">  1       21 0.64134243E-01 0.45242713E+03</pdfrwt>
<totfact> 0.62909803E+04</totfact>
</mgrwt>
</event>
<event>
 7    0  0.4705418E-002  0.4581201E+03  0.7546771E-02  0.1025328E+00
         21   -1    0    0  502  501  0.00000000000E+00  0.00000000000E+00  0.23717750802E+04  0.23717750802E+04  0.00000000000E+00 0. -1.
         21   -1    0    0  501  502 -0.00000000000E+00 -0.00000000000E+00 -0.22122038285E+02  0.22122038285E+02  0.00000000000E+00 0. -1.
      99926    2    1    2    0    0 -0.14210854715E-13  0.00000000000E+00  0.23496530420E+04  0.23938971185E+04  0.45812006779E+03 0.  0.
      99925    2    3    3    0    0  0.71093129174E+02 -0.86401957499E+02  0.16357265814E+04  0.16605090695E+04  0.26300074051E+03 0.  0.
         25    1    4    4    0    0 -0.49580586699E+01 -0.45035019106E+02  0.70780347697E+03  0.72019858747E+03  0.12509000000E+03 0.  0.
         25    1    3    3    0    0 -0.71093129174E+02  0.86401957499E+02  0.71392646055E+03  0.73338804903E+03  0.12509000000E+03 0.  0.
         25    1    4    4    0    0  0.76051187844E+02 -0.41366938393E+02  0.92792310443E+03  0.94031048202E+03  0.12509000000E+03 0.  0.
<mgrwt>
<rscale>  2 0.45812007E+03</rscale>
<asrwt>0</asrwt>
<pdfrwt beam="1">  1       21 0.34879028E+00 0.45812007E+03</pdfrwt>
<pdfrwt beam="2">  1       21 0.32532425E-02 0.45812007E+03</pdfrwt>
<totfact> 0.80813985E+03</totfact>
</mgrwt>
</event>
<event>
 7    0  0.4705418E-002  0.4556273E+03  0.7546771E-02  0.1026057E+00
         21   -1    0    0  502  501  0.00000000000E+00  0.00000000000E+00  0.63309582859E+03  0.63309582859E+03  0.00000000000E+00 0.  1.
         21   -1    0    0  501  502 -0.00000000000E+00 -0.00000000000E+00 -0.81976639582E+02  0.81976639582E+02  0.00000000000E+00 0.  1.
      99926    2    1    2    0    0 -0.44408920985E-14  0.00000000000E+00  0.55111918901E+03  0.71507246817E+03  0.45562734142E+03 0.  0.
      99925    2    3    3    0    0  0.70258105222E+01 -0.10815369330E+03  0.39374350909E+03  0.48668421077E+03  0.26472813731E+03 0.  0.
         25    1    4    4    0    0 -0.38075879151E+02 -0.55292109837E+02  0.21636877016E+03  0.25878551502E+03  0.12509000000E+03 0.  0.
         25    1    4    4    0    0  0.45101689673E+02 -0.52861583458E+02  0.17737473892E+03  0.22789869575E+03  0.12509000000E+03 0.  0.
         25    1    3    3    0    0 -0.70258105222E+01  0.10815369330E+03  0.15737567992E+03  0.22838825740E+03  0.12509000000E+03 0.  0.
<mgrwt>
<rscale>  2 0.45562734E+03</rscale>
<asrwt>0</asrwt>
<pdfrwt beam="1">  1       21 0.93102325E-01 0.45562734E+03</pdfrwt>
<pdfrwt beam="2">  1       21 0.12055389E-01 0.45562734E+03</pdfrwt>
<totfact> 0.51835990E+04</totfact>
</mgrwt>
</event>
<event>
 7    0  0.4705418E-002  0.4521708E+03  0.7546771E-02  0.1027077E+00
         21   -1    0    0  502  501  0.00000000000E+00  0.00000000000E+00  0.51974425714E+03  0.51974425714E+03  0.00000000000E+00 0.  1.
         21   -1    0    0  501  502 -0.00000000000E+00 -0.00000000000E+00 -0.98345692879E+02  0.98345692879E+02  0.00000000000E+00 0.  1.
      99926    2    1    2    0    0  0.00000000000E+00  0.00000000000E+00  0.42139856426E+03  0.61808995002E+03  0.45217080440E+03 0.  0.
      99925    2    3    3    0    0  0.99742790343E+02 -0.40391834917E+02  0.30347619365E+03  0.41527644419E+03  0.26225293218E+03 0.  0.
         25    1    4    4    0    0  0.44738939712E+02 -0.29027611737E+02  0.20679353423E+03  0.24749797750E+03  0.12509000000E+03 0.  0.
         25    1    3    3    0    0 -0.99742790343E+02  0.40391834917E+02  0.11792237061E+03  0.20281350582E+03  0.12509000000E+03 0.  0.
         25    1    4    4    0    0  0.55003850631E+02 -0.11364223179E+02  0.96682659419E+02  0.16777846669E+03  0.12509000000E+03 0.  0.
<mgrwt>
<rscale>  2 0.45217080E+03</rscale>
<asrwt>0</asrwt>
<pdfrwt beam="1">  1       21 0.76432978E-01 0.45217080E+03</pdfrwt>
<pdfrwt beam="2">  1       21 0.14462602E-01 0.45217080E+03</pdfrwt>
<totfact> 0.58882938E+04</totfact>
</mgrwt>
</event>
<event>
 7    0  0.4705418E-002  0.4515566E+03  0.7546771E-02  0.1027259E+00
         21   -1    0    0  502  501  0.00000000000E+00  0.00000000000E+00  0.14009173284E+03  0.14009173284E+03  0.00000000000E+00 0. -1.
         21   -1    0    0  501  502 -0.00000000000E+00 -0.00000000000E+00 -0.36387475063E+03  0.36387475063E+03  0.00000000000E+00 0. -1.
      99926    2    1    2    0    0  0.00000000000E+00  0.17763568394E-14 -0.22378301779E+03  0.50396648347E+03  0.45155661596E+03 0.  0.
      99925    2    3    3    0    0 -0.86249503174E+02  0.10331812048E+02 -0.66120564024E+02  0.28476182895E+03  0.26300503246E+03 0.  0.
         25    1    4    4    0    0 -0.54318703596E+02 -0.26473720753E+02 -0.10068568823E+02  0.13928482914E+03  0.12509000000E+03 0.  0.
         25    1    4    4    0    0 -0.31930799578E+02  0.36805532801E+02 -0.56051995201E+02  0.14547699981E+03  0.12509000000E+03 0.  0.
         25    1    3    3    0    0  0.86249503174E+02 -0.10331812048E+02 -0.15766245377E+03  0.21920465453E+03  0.12509000000E+03 0.  0.
<mgrwt>
<rscale>  2 0.45155662E+03</rscale>
<asrwt>0</asrwt>
<pdfrwt beam="1">  1       21 0.20601726E-01 0.45155662E+03</pdfrwt>
<pdfrwt beam="2">  1       21 0.53510992E-01 0.45155662E+03</pdfrwt>
<totfact> 0.66799989E+04</totfact>
</mgrwt>
</event>
<event>
 7    0  0.4705418E-002  0.4551441E+03  0.7546771E-02  0.1026199E+00
         21   -1    0    0  502  501  0.00000000000E+00  0.00000000000E+00  0.35333901618E+03  0.35333901618E+03  0.00000000000E+00 0.  1.
         21   -1    0    0  501  502 -0.00000000000E+00 -0.00000000000E+00 -0.14657036840E+03  0.14657036840E+03  0.00000000000E+00 0.  1.
      99926    2    1    2    0    0  0.22204460493E-15  0.00000000000E+00  0.20676864778E+03  0.49990938458E+03  0.45514406410E+03 0.  0.
      99925    2    3    3    0    0 -0.18090007801E+01  0.11247613070E+03  0.11526847956E+03  0.30840496858E+03  0.26300693870E+03 0.  0.
         25    1    4    4    0    0 -0.37886082089E+02  0.39928950326E+02  0.47504985336E+02  0.14468554877E+03  0.12509000000E+03 0.  0.
         25    1    3    3    0    0  0.18090007801E+01 -0.11247613070E+03  0.91500168219E+02  0.19150441599E+03  0.12509000000E+03 0.  0.
         25    1    4    4    0    0  0.36077081309E+02  0.72547180373E+02  0.67763494222E+02  0.16371941982E+03  0.12509000000E+03 0.  0.
<mgrwt>
<rscale>  2 0.45514406E+03</rscale>
<asrwt>0</asrwt>
<pdfrwt beam="1">  1       21 0.51961620E-01 0.45514406E+03</pdfrwt>
<pdfrwt beam="2">  1       21 0.21554466E-01 0.45514406E+03</pdfrwt>
<totfact> 0.65202431E+04</totfact>
</mgrwt>
</event>
<event>
 7    0  0.4705418E-002  0.4054349E+03  0.7546771E-02  0.1041914E+00
         21   -1    0    0  502  501  0.00000000000E+00  0.00000000000E+00  0.87309751301E+03  0.87309751301E+03  0.00000000000E+00 0. -1.
         21   -1    0    0  501  502 -0.00000000000E+00 -0.00000000000E+00 -0.47067330416E+02  0.47067330416E+02  0.00000000000E+00 0. -1.
      99926    2    1    2    0    0  0.88817841970E-15  0.00000000000E+00  0.82603018259E+03  0.92016484343E+03  0.40543492267E+03 0.  0.
      99925    2    3    3    0    0 -0.60124513702E+01  0.30767143649E+02  0.65019720201E+03  0.70211092381E+03  0.26309804471E+03 0.  0.
         25    1    4    4    0    0 -0.11286546761E+02  0.55300687400E+02  0.34847248500E+03  0.37452120509E+03  0.12509000000E+03 0.  0.
         25    1    4    4    0    0  0.52740953911E+01 -0.24533543751E+02  0.30172471701E+03  0.32758971871E+03  0.12509000000E+03 0.  0.
         25    1    3    3    0    0  0.60124513702E+01 -0.30767143649E+02  0.17583298059E+03  0.21805391962E+03  0.12509000000E+03 0.  0.
<mgrwt>
<rscale>  2 0.40543492E+03</rscale>
<asrwt>0</asrwt>
<pdfrwt beam="1">  1       21 0.12839668E+00 0.40543492E+03</pdfrwt>
<pdfrwt beam="2">  1       21 0.69216668E-02 0.40543492E+03</pdfrwt>
<totfact> 0.63720161E+04</totfact>
</mgrwt>
</event>
<event>
 7    0  0.4705418E-002  0.4577516E+03  0.7546771E-02  0.1025435E+00
         21   -1    0    0  502  501  0.00000000000E+00  0.00000000000E+00  0.19819758761E+03  0.19819758761E+03  0.00000000000E+00 0. -1.
         21   -1    0    0  501  502 -0.00000000000E+00 -0.00000000000E+00 -0.26430252233E+03  0.26430252233E+03  0.00000000000E+00 0. -1.
      99926    2    1    2    0    0 -0.11102230246E-14  0.00000000000E+00 -0.66104934716E+02  0.46250010994E+03  0.45775155849E+03 0.  0.
      99925    2    3    3    0    0 -0.19617710863E+01  0.77229202953E+02  0.45625636997E+02  0.27783980806E+03  0.26295448629E+03 0.  0.
         25    1    3    3    0    0  0.19617710863E+01 -0.77229202953E+02 -0.11173057171E+03  0.18466030188E+03  0.12509000000E+03 0.  0.
         25    1    4    4    0    0 -0.19269163815E+02  0.75242273327E+02  0.33152375376E+02  0.15092809037E+03  0.12509000000E+03 0.  0.
         25    1    4    4    0    0  0.17307392729E+02  0.19869296257E+01  0.12473261622E+02  0.12691171769E+03  0.12509000000E+03 0.  0.
<mgrwt>
<rscale>  2 0.45775156E+03</rscale>
<asrwt>0</asrwt>
<pdfrwt beam="1">  1       21 0.29146704E-01 0.45775156E+03</pdfrwt>
<pdfrwt beam="2">  1       21 0.38868018E-01 0.45775156E+03</pdfrwt>
<totfact> 0.66526935E+04</totfact>
</mgrwt>
</event>
<event>
 7    0  0.4705418E-002  0.4505388E+03  0.7546771E-02  0.1027561E+00
         21   -1    0    0  502  501  0.00000000000E+00  0.00000000000E+00  0.57869840767E+02  0.57869840767E+02  0.00000000000E+00 0.  1.
         21   -1    0    0  501  502 -0.00000000000E+00 -0.00000000000E+00 -0.87690429581E+03  0.87690429581E+03  0.00000000000E+00 0.  1.
      99926    2    1    2    0    0  0.00000000000E+00  0.14210854715E-13 -0.81903445504E+03  0.93477413658E+03  0.45053884168E+03 0.  0.
      99925    2    3    3    0    0 -0.54521465273E+02 -0.70227947234E+02 -0.64775458219E+03  0.70479836026E+03  0.26315428009E+03 0.  0.
         25    1    4    4    0    0 -0.56051118213E+02 -0.62188065682E+01 -0.31497238640E+03  0.34356296905E+03  0.12509000000E+03 0.  0.
         25    1    4    4    0    0  0.15296529396E+01 -0.64009140665E+02 -0.33278219579E+03  0.36123539121E+03  0.12509000000E+03 0.  0.
         25    1    3    3    0    0  0.54521465273E+02  0.70227947234E+02 -0.17127987285E+03  0.22997577632E+03  0.12509000000E+03 0.  0.
<mgrwt>
<rscale>  2 0.45053884E+03</rscale>
<asrwt>0</asrwt>
<pdfrwt beam="1">  1       21 0.85102712E-02 0.45053884E+03</pdfrwt>
<pdfrwt beam="2">  1       21 0.12895651E+00 0.45053884E+03</pdfrwt>
<totfact> 0.43253114E+04</totfact>
</mgrwt>
</event>
<event>
 7    0  0.4705418E-002  0.4550494E+03  0.7546771E-02  0.1026227E+00
         21   -1    0    0  502  501  0.00000000000E+00  0.00000000000E+00  0.17418810353E+03  0.17418810353E+03  0.00000000000E+00 0.  1.
         21   -1    0    0  501  502 -0.00000000000E+00 -0.00000000000E+00 -0.29719308227E+03  0.29719308227E+03  0.00000000000E+00 0.  1.
      99926    2    1    2    0    0  0.00000000000E+00  0.00000000000E+00 -0.12300497874E+03  0.47138118580E+03  0.45504944515E+03 0.  0.
      99925    2    3    3    0    0 -0.43201783577E+02  0.96651831066E+02 -0.35874729237E+02  0.28578172720E+03  0.26301374270E+03 0.  0.
         25    1    4    4    0    0  0.16828393998E+01  0.81464944134E+02 -0.10712266285E+02  0.14967174022E+03  0.12509000000E+03 0.  0.
         25    1    3    3    0    0  0.43201783577E+02 -0.96651831066E+02 -0.87130249499E+02  0.18559945859E+03  0.12509000000E+03 0.  0.
         25    1    4    4    0    0 -0.44884622977E+02  0.15186886932E+02 -0.25162462952E+02  0.13610998698E+03  0.12509000000E+03 0.  0.
<mgrwt>
<rscale>  2 0.45504945E+03</rscale>
<asrwt>0</asrwt>
<pdfrwt beam="1">  1       21 0.25615898E-01 0.45504945E+03</pdfrwt>
<pdfrwt beam="2">  1       21 0.43704865E-01 0.45504945E+03</pdfrwt>
<totfact> 0.67306726E+04</totfact>
</mgrwt>
</event>
<event>
 7    0  0.4705418E-002  0.4552917E+03  0.7546771E-02  0.1026156E+00
         21   -1    0    0  502  501  0.00000000000E+00  0.00000000000E+00  0.24059180317E+03  0.24059180317E+03  0.00000000000E+00 0.  1.
         21   -1    0    0  501  502 -0.00000000000E+00 -0.00000000000E+00 -0.21539646142E+03  0.21539646142E+03  0.00000000000E+00 0.  1.
      99926    2    1    2    0    0  0.00000000000E+00  0.17763568394E-14  0.25195341754E+02  0.45598826459E+03  0.45529165619E+03 0.  0.
      99925    2    3    3    0    0  0.11229166311E+03 -0.11570806515E+02  0.51881738404E+01  0.28630887269E+03  0.26306377985E+03 0.  0.
         25    1    4    4    0    0  0.57171728296E+02  0.23020282689E+02  0.31271056551E+02  0.14291230531E+03  0.12509000000E+03 0.  0.
         25    1    4    4    0    0  0.55119934813E+02 -0.34591089205E+02 -0.26082882711E+02  0.14339656738E+03  0.12509000000E+03 0.  0.
         25    1    3    3    0    0 -0.11229166311E+03  0.11570806515E+02  0.20007167914E+02  0.16967939190E+03  0.12509000000E+03 0.  0.
<mgrwt>
<rscale>  2 0.45529166E+03</rscale>
<asrwt>0</asrwt>
<pdfrwt beam="1">  1       21 0.35381148E-01 0.45529166E+03</pdfrwt>
<pdfrwt beam="2">  1       21 0.31675950E-01 0.45529166E+03</pdfrwt>
<totfact> 0.68314374E+04</totfact>
</mgrwt>
</event>
<event>
 7    0  0.4705418E-002  0.4558170E+03  0.7546771E-02  0.1026001E+00
         21   -1    0    0  502  501  0.00000000000E+00  0.00000000000E+00  0.83903939911E+03  0.83903939911E+03  0.00000000000E+00 0.  1.
         21   -1    0    0  501  502 -0.00000000000E+00 -0.00000000000E+00 -0.61906855475E+02  0.61906855475E+02  0.00000000000E+00 0.  1.
      99926    2    1    2    0    0  0.00000000000E+00 -0.14210854715E-13  0.77713254363E+03  0.90094625458E+03  0.45581702828E+03 0.  0.
      99925    2    3    3    0    0 -0.64379197785E+02  0.82226651340E+02  0.39710190301E+03  0.48745296660E+03  0.26270624273E+03 0.  0.
         25    1    4    4    0    0 -0.35026524875E+02  0.65230672663E+02  0.15277470182E+03  0.21087796404E+03  0.12509000000E+03 0.  0.
         25    1    4    4    0    0 -0.29352672910E+02  0.16995978676E+02  0.24432720119E+03  0.27657500256E+03  0.12509000000E+03 0.  0.
         25    1    3    3    0    0  0.64379197785E+02 -0.82226651340E+02  0.38003064062E+03  0.41349328799E+03  0.12509000000E+03 0.  0.
<mgrwt>
<rscale>  2 0.45581703E+03</rscale>
<asrwt>0</asrwt>
<pdfrwt beam="1">  1       21 0.12338814E+00 0.45581703E+03</pdfrwt>
<pdfrwt beam="2">  1       21 0.91039498E-02 0.45581703E+03</pdfrwt>
<totfact> 0.42917608E+04</totfact>
</mgrwt>
</event>
<event>
 7    0  0.4705418E-002  0.4507585E+03  0.7546771E-02  0.1027496E+00
         21   -1    0    0  502  501  0.00000000000E+00  0.00000000000E+00  0.24936903232E+03  0.24936903232E+03  0.00000000000E+00 0.  1.
         21   -1    0    0  501  502 -0.00000000000E+00 -0.00000000000E+00 -0.20369728904E+03  0.20369728904E+03  0.00000000000E+00 0.  1.
      99926    2    1    2    0    0  0.00000000000E+00  0.00000000000E+00  0.45671743285E+02  0.45306632136E+03  0.45075845351E+03 0.  0.
      99925    2    3    3    0    0  0.60054849958E+02 -0.72358764828E+02  0.84537546785E+02  0.29181981866E+03  0.26300158535E+03 0.  0.
         25    1    3    3    0    0 -0.60054849958E+02  0.72358764828E+02 -0.38865803499E+02  0.16124650270E+03  0.12509000000E+03 0.  0.
         25    1    4    4    0    0  0.36849075596E+02 -0.75001955883E+02  0.30118512787E+02  0.15342027464E+03  0.12509000000E+03 0.  0.
         25    1    4    4    0    0  0.23205774362E+02  0.26431910550E+01  0.54419033998E+02  0.13839954402E+03  0.12509000000E+03 0.  0.
<mgrwt>
<rscale>  2 0.45075845E+03</rscale>
<asrwt>0</asrwt>
<pdfrwt beam="1">  1       21 0.36671916E-01 0.45075845E+03</pdfrwt>
<pdfrwt beam="2">  1       21 0.29955484E-01 0.45075845E+03</pdfrwt>
<totfact> 0.71062237E+04</totfact>
</mgrwt>
</event>
<event>
 7    0  0.4705418E-002  0.4696607E+03  0.7546771E-02  0.1022016E+00
         21   -1    0    0  502  501  0.00000000000E+00  0.00000000000E+00  0.42254513741E+03  0.42254513741E+03  0.00000000000E+00 0. -1.
         21   -1    0    0  501  502 -0.00000000000E+00 -0.00000000000E+00 -0.13050743425E+03  0.13050743425E+03  0.00000000000E+00 0. -1.
      99926    2    1    2    0    0  0.00000000000E+00  0.00000000000E+00  0.29203770316E+03  0.55305257166E+03  0.46966065085E+03 0.  0.
      99925    2    3    3    0    0 -0.24174518548E+02  0.12230386960E+03  0.15576958513E+03  0.32998497662E+03  0.26283697852E+03 0.  0.
         25    1    4    4    0    0 -0.93140934338E+01  0.39948958579E+02  0.11308789498E+03  0.17354841319E+03  0.12509000000E+03 0.  0.
         25    1    4    4    0    0 -0.14860425114E+02  0.82354911023E+02  0.42681690146E+02  0.15643656343E+03  0.12509000000E+03 0.  0.
         25    1    3    3    0    0  0.24174518548E+02 -0.12230386960E+03  0.13626811803E+03  0.22306759505E+03  0.12509000000E+03 0.  0.
<mgrwt>
<rscale>  2 0.46966065E+03</rscale>
<asrwt>0</asrwt>
<pdfrwt beam="1">  1       21 0.62138990E-01 0.46966065E+03</pdfrwt>
<pdfrwt beam="2">  1       21 0.19192270E-01 0.46966065E+03</pdfrwt>
<totfact> 0.55000399E+04</totfact>
</mgrwt>
</event>
<event>
 7    0  0.4705418E-002  0.4504074E+03  0.7546771E-02  0.1027601E+00
         21   -1    0    0  502  501  0.00000000000E+00  0.00000000000E+00  0.24507161738E+03  0.24507161738E+03  0.00000000000E+00 0. -1.
         21   -1    0    0  501  502 -0.00000000000E+00 -0.00000000000E+00 -0.20694647505E+03  0.20694647505E+03  0.00000000000E+00 0. -1.
      99926    2    1    2    0    0 -0.71054273576E-14  0.14210854715E-13  0.38125142327E+02  0.45201809243E+03  0.45040740381E+03 0.  0.
      99925    2    3    3    0    0  0.63003046972E+02 -0.82762425643E+02 -0.79463890075E+01  0.28293498527E+03  0.26300201096E+03 0.  0.
         25    1    3    3    0    0 -0.63003046972E+02  0.82762425643E+02  0.46071531334E+02  0.16908310716E+03  0.12509000000E+03 0.  0.
         25    1    4    4    0    0  0.33483670792E+02 -0.83818387167E+02 -0.66893990898E+01  0.15439862175E+03  0.12509000000E+03 0.  0.
         25    1    4    4    0    0  0.29519376180E+02  0.10559615241E+01 -0.12569899177E+01  0.12853636353E+03  0.12509000000E+03 0.  0.
<mgrwt>
<rscale>  2 0.45040740E+03</rscale>
<asrwt>0</asrwt>
<pdfrwt beam="1">  1       21 0.36039944E-01 0.45040740E+03</pdfrwt>
<pdfrwt beam="2">  1       21 0.30433305E-01 0.45040740E+03</pdfrwt>
<totfact> 0.71343428E+04</totfact>
</mgrwt>
</event>
<event>
 7    0  0.4705418E-002  0.4368763E+03  0.7546771E-02  0.1031710E+00
         21   -1    0    0  502  501  0.00000000000E+00  0.00000000000E+00  0.29895214170E+03  0.29895214170E+03  0.00000000000E+00 0.  1.
         21   -1    0    0  501  502 -0.00000000000E+00 -0.00000000000E+00 -0.15960821271E+03  0.15960821271E+03  0.00000000000E+00 0.  1.
      99926    2    1    2    0    0  0.00000000000E+00  0.71054273576E-14  0.13934392899E+03  0.45856035441E+03  0.43687626176E+03 0.  0.
      99925    2    3    3    0    0 -0.29747774262E+02  0.51767141417E+02  0.11287831615E+02  0.26985254011E+03  0.26292244343E+03 0.  0.
         25    1    3    3    0    0  0.29747774262E+02 -0.51767141417E+02  0.12805609737E+03  0.18870781430E+03  0.12509000000E+03 0.  0.
         25    1    4    4    0    0 -0.18632104055E+02  0.58034134914E+02  0.31044675640E+02  0.14257067055E+03  0.12509000000E+03 0.  0.
         25    1    4    4    0    0 -0.11115670207E+02 -0.62669934970E+01 -0.19756844025E+02  0.12728186956E+03  0.12509000000E+03 0.  0.
<mgrwt>
<rscale>  2 0.43687626E+03</rscale>
<asrwt>0</asrwt>
<pdfrwt beam="1">  1       21 0.43963550E-01 0.43687626E+03</pdfrwt>
<pdfrwt beam="2">  1       21 0.23471796E-01 0.43687626E+03</pdfrwt>
<totfact> 0.79068226E+04</totfact>
</mgrwt>
</event>
<event>
 7    0  0.4705418E-002  0.4576567E+03  0.7546771E-02  0.1025463E+00
         21   -1    0    0  502  501  0.00000000000E+00  0.00000000000E+00  0.90028782637E+03  0.90028782637E+03  0.00000000000E+00 0. -1.
         21   -1    0    0  501  502 -0.00000000000E+00 -0.00000000000E+00 -0.58161861810E+02  0.58161861810E+02  0.00000000000E+00 0. -1.
      99926    2    1    2    0    0 -0.71054273576E-14  0.28421709430E-13  0.84212596456E+03  0.95844968818E+03  0.45765671041E+03 0.  0.
      99925    2    3    3    0    0  0.39969552689E+02 -0.10774315797E+03  0.55362039757E+03  0.62365255033E+03  0.26313647731E+03 0.  0.
         25    1    4    4    0    0  0.46708918820E+02 -0.79475956779E+02  0.25539178276E+03  0.29894919569E+03  0.12509000000E+03 0.  0.
         25    1    3    3    0    0 -0.39969552689E+02  0.10774315797E+03  0.28850556699E+03  0.33479713786E+03  0.12509000000E+03 0.  0.
         25    1    4    4    0    0 -0.67393661304E+01 -0.28267201192E+02  0.29822861481E+03  0.32470335464E+03  0.12509000000E+03 0.  0.
<mgrwt>
<rscale>  2 0.45765671E+03</rscale>
<asrwt>0</asrwt>
<pdfrwt beam="1">  1       21 0.13239526E+00 0.45765671E+03</pdfrwt>
<pdfrwt beam="2">  1       21 0.85532155E-02 0.45765671E+03</pdfrwt>
<totfact> 0.39963908E+04</totfact>
</mgrwt>
</event>
<event>
 7    0  0.4705418E-002  0.4544838E+03  0.7546771E-02  0.1026393E+00
         21   -1    0    0  502  501  0.00000000000E+00  0.00000000000E+00  0.81497573393E+02  0.81497573393E+02  0.00000000000E+00 0.  1.
         21   -1    0    0  501  502 -0.00000000000E+00 -0.00000000000E+00 -0.63362466530E+03  0.63362466530E+03  0.00000000000E+00 0.  1.
      99926    2    1    2    0    0 -0.14210854715E-13  0.17763568394E-14 -0.55212709191E+03  0.71512223869E+03  0.45448376281E+03 0.  0.
      99925    2    3    3    0    0  0.10783907754E+03 -0.11350632050E+02 -0.39569365946E+03  0.48735694199E+03  0.26303082192E+03 0.  0.
         25    1    4    4    0    0  0.64113610154E+02 -0.22994720967E+02 -0.26512373092E+03  0.30096081638E+03  0.12509000000E+03 0.  0.
         25    1    3    3    0    0 -0.10783907754E+03  0.11350632050E+02 -0.15643343245E+03  0.22776529670E+03  0.12509000000E+03 0.  0.
         25    1    4    4    0    0  0.43725467389E+02  0.11644088916E+02 -0.13056992854E+03  0.18639612561E+03  0.12509000000E+03 0.  0.
<mgrwt>
<rscale>  2 0.45448376E+03</rscale>
<asrwt>0</asrwt>
<pdfrwt beam="1">  1       21 0.11984937E-01 0.45448376E+03</pdfrwt>
<pdfrwt beam="2">  1       21 0.93180099E-01 0.45448376E+03</pdfrwt>
<totfact> 0.52301699E+04</totfact>
</mgrwt>
</event>
<event>
 7    0  0.4705418E-002  0.4544447E+03  0.7546771E-02  0.1026405E+00
         21   -1    0    0  502  501  0.00000000000E+00  0.00000000000E+00  0.10105971468E+04  0.10105971468E+04  0.00000000000E+00 0. -1.
         21   -1    0    0  501  502 -0.00000000000E+00 -0.00000000000E+00 -0.51088606128E+02  0.51088606128E+02  0.00000000000E+00 0. -1.
      99926    2    1    2    0    0  0.14210854715E-13 -0.35527136788E-14  0.95950854063E+03  0.10616857529E+04  0.45444471428E+03 0.  0.
      99925    2    3    3    0    0  0.10205963561E+03 -0.28617485856E+02  0.51470609445E+03  0.58762683888E+03  0.26295970869E+03 0.  0.
         25    1    4    4    0    0  0.87050159905E+02 -0.35173314678E+01  0.23923152235E+03  0.28367116763E+03  0.12509000000E+03 0.  0.
         25    1    3    3    0    0 -0.10205963561E+03  0.28617485856E+02  0.44480244618E+03  0.47405891400E+03  0.12509000000E+03 0.  0.
         25    1    4    4    0    0  0.15009475705E+02 -0.25100154388E+02  0.27547457210E+03  0.30395567125E+03  0.12509000000E+03 0.  0.
<mgrwt>
<rscale>  2 0.45444471E+03</rscale>
<asrwt>0</asrwt>
<pdfrwt beam="1">  1       21 0.14861721E+00 0.45444471E+03</pdfrwt>
<pdfrwt beam="2">  1       21 0.75130310E-02 0.45444471E+03</pdfrwt>
<totfact> 0.37011642E+04</totfact>
</mgrwt>
</event>
<event>
 7    0  0.4705418E-002  0.4560391E+03  0.7546771E-02  0.1025936E+00
         21   -1    0    0  502  501  0.00000000000E+00  0.00000000000E+00  0.56190768567E+03  0.56190768567E+03  0.00000000000E+00 0. -1.
         21   -1    0    0  501  502 -0.00000000000E+00 -0.00000000000E+00 -0.92529263935E+02  0.92529263935E+02  0.00000000000E+00 0. -1.
      99926    2    1    2    0    0  0.00000000000E+00  0.00000000000E+00  0.46937842173E+03  0.65443694960E+03  0.45603905339E+03 0.  0.
      99925    2    3    3    0    0 -0.10064073733E+03  0.52670258974E+02  0.31107620392E+03  0.42289901652E+03  0.26300657661E+03 0.  0.
         25    1    3    3    0    0  0.10064073733E+03 -0.52670258974E+02  0.15830221782E+03  0.23153793308E+03  0.12509000000E+03 0.  0.
         25    1    4    4    0    0 -0.10384210533E+02  0.91861422570E+01  0.14751017333E+03  0.19390455481E+03  0.12509000000E+03 0.  0.
         25    1    4    4    0    0 -0.90256526793E+02  0.43484116717E+02  0.16356603058E+03  0.22899446172E+03  0.12509000000E+03 0.  0.
<mgrwt>
<rscale>  2 0.45603905E+03</rscale>
<asrwt>0</asrwt>
<pdfrwt beam="1">  1       21 0.82633482E-01 0.45603905E+03</pdfrwt>
<pdfrwt beam="2">  1       21 0.13607245E-01 0.45603905E+03</pdfrwt>
<totfact> 0.54994485E+04</totfact>
</mgrwt>
</event>
<event>
 7    0  0.4705418E-002  0.4509901E+03  0.7546771E-02  0.1027427E+00
         21   -1    0    0  502  501  0.00000000000E+00  0.00000000000E+00  0.68072412253E+02  0.68072412253E+02  0.00000000000E+00 0. -1.
         21   -1    0    0  501  502 -0.00000000000E+00 -0.00000000000E+00 -0.74696939566E+03  0.74696939566E+03  0.00000000000E+00 0. -1.
      99926    2    1    2    0    0  0.00000000000E+00  0.35527136788E-14 -0.67889698341E+03  0.81504180791E+03  0.45099006039E+03 0.  0.
      99925    2    3    3    0    0 -0.81122007163E+02  0.23696920068E+02 -0.30342224956E+03  0.41035537631E+03  0.26302879932E+03 0.  0.
         25    1    4    4    0    0 -0.48049436980E+02 -0.27397786740E+02 -0.13955984995E+03  0.19540687534E+03  0.12509000000E+03 0.  0.
         25    1    4    4    0    0 -0.33072570183E+02  0.51094706808E+02 -0.16386239961E+03  0.21494850097E+03  0.12509000000E+03 0.  0.
         25    1    3    3    0    0  0.81122007163E+02 -0.23696920068E+02 -0.37547473385E+03  0.40468643161E+03  0.12509000000E+03 0.  0.
<mgrwt>
<rscale>  2 0.45099006E+03</rscale>
<asrwt>0</asrwt>
<pdfrwt beam="1">  1       21 0.10010649E-01 0.45099006E+03</pdfrwt>
<pdfrwt beam="2">  1       21 0.10984844E+00 0.45099006E+03</pdfrwt>
<totfact> 0.48555761E+04</totfact>
</mgrwt>
</event>
<event>
 7    0  0.4705418E-002  0.4527039E+03  0.7546771E-02  0.1026919E+00
         21   -1    0    0  502  501  0.00000000000E+00  0.00000000000E+00  0.68747514773E+02  0.68747514773E+02  0.00000000000E+00 0. -1.
         21   -1    0    0  501  502 -0.00000000000E+00 -0.00000000000E+00 -0.74526642195E+03  0.74526642195E+03  0.00000000000E+00 0. -1.
      99926    2    1    2    0    0  0.71054273576E-14  0.00000000000E+00 -0.67651890718E+03  0.81401393672E+03  0.45270394013E+03 0.  0.
      99925    2    3    3    0    0 -0.46504799175E+02  0.83601723927E+01 -0.60747048062E+03  0.66352213582E+03  0.26269497725E+03 0.  0.
         25    1    3    3    0    0  0.46504799175E+02 -0.83601723927E+01 -0.69048426561E+02  0.15049180090E+03  0.12509000000E+03 0.  0.
         25    1    4    4    0    0 -0.52311711635E+02  0.11609134708E+02 -0.38309527607E+03  0.40654739678E+03  0.12509000000E+03 0.  0.
         25    1    4    4    0    0  0.58069124594E+01 -0.32489623155E+01 -0.22437520455E+03  0.25697473904E+03  0.12509000000E+03 0.  0.
<mgrwt>
<rscale>  2 0.45270394E+03</rscale>
<asrwt>0</asrwt>
<pdfrwt beam="1">  1       21 0.10109929E-01 0.45270394E+03</pdfrwt>
<pdfrwt beam="2">  1       21 0.10959800E+00 0.45270394E+03</pdfrwt>
<totfact> 0.47952586E+04</totfact>
</mgrwt>
</event>
<event>
 6    0  0.4705418E-002  0.3854051E+03  0.7546771E-02  0.1048954E+00
         21   -1    0    0  502  501  0.00000000000E+00  0.00000000000E+00  0.51322671985E+03  0.51322671985E+03  0.00000000000E+00 0.  1.
         21   -1    0    0  501  502 -0.00000000000E+00 -0.00000000000E+00 -0.72354500969E+02  0.72354500969E+02  0.00000000000E+00 0.  1.
      99926    2    1    2    0    0  0.00000000000E+00  0.00000000000E+00  0.44087221888E+03  0.58558122082E+03  0.38540505030E+03 0.  0.
         25    1    3    3    0    0  0.40208498062E+01 -0.10682395721E+02  0.10643980729E+03  0.16464270858E+03  0.12509000000E+03 0.  0.
         25    1    3    3    0    0  0.21634954816E+02 -0.28780183439E+01  0.17527285571E+03  0.21643575562E+03  0.12509000000E+03 0.  0.
         25    1    3    3    0    0 -0.25655804623E+02  0.13560414065E+02  0.15915955588E+03  0.20450275663E+03  0.12509000000E+03 0.  0.
<mgrwt>
<rscale>  2 0.38540505E+03</rscale>
<asrwt>0</asrwt>
<pdfrwt beam="1">  1       21 0.75474515E-01 0.38540505E+03</pdfrwt>
<pdfrwt beam="2">  1       21 0.10640368E-01 0.38540505E+03</pdfrwt>
<totfact> 0.10763637E+05</totfact>
</mgrwt>
</event>
<event>
 7    0  0.4705418E-002  0.4388972E+03  0.7546771E-02  0.1031086E+00
         21   -1    0    0  502  501  0.00000000000E+00  0.00000000000E+00  0.18323089752E+03  0.18323089752E+03  0.00000000000E+00 0. -1.
         21   -1    0    0  501  502 -0.00000000000E+00 -0.00000000000E+00 -0.26282517188E+03  0.26282517188E+03  0.00000000000E+00 0. -1.
      99926    2    1    2    0    0 -0.14210854715E-13  0.00000000000E+00 -0.79594274356E+02  0.44605606941E+03  0.43889721865E+03 0.  0.
      99925    2    3    3    0    0 -0.64797833672E+02  0.66876364171E+02 -0.79162720718E+02  0.29011088137E+03  0.26310906446E+03 0.  0.
         25    1    3    3    0    0  0.64797833672E+02 -0.66876364171E+02 -0.43155363844E+00  0.15594518804E+03  0.12509000000E+03 0.  0.
         25    1    4    4    0    0 -0.68927513879E+02  0.46060223466E+02 -0.24907003431E+02  0.15211973335E+03  0.12509000000E+03 0.  0.
         25    1    4    4    0    0  0.41296802066E+01  0.20816140705E+02 -0.54255717287E+02  0.13799114802E+03  0.12509000000E+03 0.  0.
<mgrwt>
<rscale>  2 0.43889722E+03</rscale>
<asrwt>0</asrwt>
<pdfrwt beam="1">  1       21 0.26945720E-01 0.43889722E+03</pdfrwt>
<pdfrwt beam="2">  1       21 0.38650761E-01 0.43889722E+03</pdfrwt>
<totfact> 0.78857349E+04</totfact>
</mgrwt>
</event>
<event>
 7    0  0.4705418E-002  0.4519164E+03  0.7546771E-02  0.1027152E+00
         21   -1    0    0  502  501  0.00000000000E+00  0.00000000000E+00  0.10393779945E+04  0.10393779945E+04  0.00000000000E+00 0. -1.
         21   -1    0    0  501  502 -0.00000000000E+00 -0.00000000000E+00 -0.49122744945E+02  0.49122744945E+02  0.00000000000E+00 0. -1.
      99926    2    1    2    0    0 -0.71054273576E-14  0.00000000000E+00  0.99025524955E+03  0.10885007394E+04  0.45191636450E+03 0.  0.
      99925    2    3    3    0    0 -0.59765292952E+02 -0.71396195076E+02  0.48262180495E+03  0.55745598700E+03  0.26299061565E+03 0.  0.
         25    1    4    4    0    0 -0.48947904998E+02 -0.68327969420E+02  0.30125347734E+03  0.33684681165E+03  0.12509000000E+03 0.  0.
         25    1    4    4    0    0 -0.10817387954E+02 -0.30682256557E+01  0.18136832761E+03  0.22060917536E+03  0.12509000000E+03 0.  0.
         25    1    3    3    0    0  0.59765292952E+02  0.71396195076E+02  0.50763344460E+03  0.53104475244E+03  0.12509000000E+03 0.  0.
<mgrwt>
<rscale>  2 0.45191636E+03</rscale>
<asrwt>0</asrwt>
<pdfrwt beam="1">  1       21 0.15284969E+00 0.45191636E+03</pdfrwt>
<pdfrwt beam="2">  1       21 0.72239337E-02 0.45191636E+03</pdfrwt>
<totfact> 0.36772308E+04</totfact>
</mgrwt>
</event>
<event>
 7    0  0.4705418E-002  0.4506340E+03  0.7546771E-02  0.1027533E+00
         21   -1    0    0  502  501  0.00000000000E+00  0.00000000000E+00  0.92983755765E+02  0.92983755765E+02  0.00000000000E+00 0. -1.
         21   -1    0    0  501  502 -0.00000000000E+00 -0.00000000000E+00 -0.54598505294E+03  0.54598505294E+03  0.00000000000E+00 0. -1.
      99926    2    1    2    0    0 -0.71054273576E-14 -0.71054273576E-14 -0.45300129718E+03  0.63896880871E+03  0.45063395706E+03 0.  0.
      99925    2    3    3    0    0 -0.40743202215E+02  0.34483157263E+02 -0.42066657059E+03  0.49917560678E+03  0.26337582677E+03 0.  0.
         25    1    4    4    0    0 -0.39332323430E+02  0.10673919089E+01 -0.15071724453E+03  0.19977829434E+03  0.12509000000E+03 0.  0.
         25    1    3    3    0    0  0.40743202215E+02 -0.34483157263E+02 -0.32334726584E+02  0.13979320193E+03  0.12509000000E+03 0.  0.
         25    1    4    4    0    0 -0.14108787850E+01  0.33415765354E+02 -0.26994932606E+03  0.29939731244E+03  0.12509000000E+03 0.  0.
<mgrwt>
<rscale>  2 0.45063396E+03</rscale>
<asrwt>0</asrwt>
<pdfrwt beam="1">  1       21 0.13674081E-01 0.45063396E+03</pdfrwt>
<pdfrwt beam="2">  1       21 0.80291922E-01 0.45063396E+03</pdfrwt>
<totfact> 0.58325264E+04</totfact>
</mgrwt>
</event>
<event>
 7    0  0.4705418E-002  0.4604418E+03  0.7546771E-02  0.1024653E+00
         21   -1    0    0  502  501  0.00000000000E+00  0.00000000000E+00  0.10958842416E+03  0.10958842416E+03  0.00000000000E+00 0. -1.
         21   -1    0    0  501  502 -0.00000000000E+00 -0.00000000000E+00 -0.48364282826E+03  0.48364282826E+03  0.00000000000E+00 0. -1.
      99926    2    1    2    0    0  0.00000000000E+00  0.71054273576E-14 -0.37405440410E+03  0.59323125242E+03  0.46044176790E+03 0.  0.
      99925    2    3    3    0    0 -0.89181506163E+02  0.38067962623E+02 -0.32138932298E+03  0.42642708674E+03  0.26295713065E+03 0.  0.
         25    1    4    4    0    0 -0.58185911333E+02  0.58372845227E+02 -0.17105834685E+03  0.22737954056E+03  0.12509000000E+03 0.  0.
         25    1    4    4    0    0 -0.30995594830E+02 -0.20304882604E+02 -0.15033097613E+03  0.19904754618E+03  0.12509000000E+03 0.  0.
         25    1    3    3    0    0  0.89181506163E+02 -0.38067962623E+02 -0.52665081120E+02  0.16680416568E+03  0.12509000000E+03 0.  0.
<mgrwt>
<rscale>  2 0.46044177E+03</rscale>
<asrwt>0</asrwt>
<pdfrwt beam="1">  1       21 0.16115945E-01 0.46044177E+03</pdfrwt>
<pdfrwt beam="2">  1       21 0.71123945E-01 0.46044177E+03</pdfrwt>
<totfact> 0.56622167E+04</totfact>
</mgrwt>
</event>
<event>
 7    0  0.4705418E-002  0.4299447E+03  0.7546771E-02  0.1033877E+00
         21   -1    0    0  502  501  0.00000000000E+00  0.00000000000E+00  0.68194664512E+03  0.68194664512E+03  0.00000000000E+00 0.  1.
         21   -1    0    0  501  502 -0.00000000000E+00 -0.00000000000E+00 -0.67766471374E+02  0.67766471374E+02  0.00000000000E+00 0.  1.
      99926    2    1    2    0    0 -0.31086244690E-14  0.00000000000E+00  0.61418017374E+03  0.74971311649E+03  0.42994473042E+03 0.  0.
      99925    2    3    3    0    0  0.18014038712E+01 -0.78904635127E+02  0.46267484472E+03  0.53798083429E+03  0.26291857986E+03 0.  0.
         25    1    4    4    0    0 -0.33341704821E+02 -0.58467179777E+02  0.21805059361E+03  0.26023767957E+03  0.12509000000E+03 0.  0.
         25    1    3    3    0    0 -0.18014038712E+01  0.78904635127E+02  0.15150532903E+03  0.21173228220E+03  0.12509000000E+03 0.  0.
         25    1    4    4    0    0  0.35143108693E+02 -0.20437455350E+02  0.24462425110E+03  0.27774315472E+03  0.12509000000E+03 0.  0.
<mgrwt>
<rscale>  2 0.42994473E+03</rscale>
<asrwt>0</asrwt>
<pdfrwt beam="1">  1       21 0.10028627E+00 0.42994473E+03</pdfrwt>
<pdfrwt beam="2">  1       21 0.99656579E-02 0.42994473E+03</pdfrwt>
<totfact> 0.61535540E+04</totfact>
</mgrwt>
</event>
<event>
 7    0  0.4705418E-002  0.4669622E+03  0.7546771E-02  0.1022781E+00
         21   -1    0    0  502  501  0.00000000000E+00  0.00000000000E+00  0.87318521915E+02  0.87318521915E+02  0.00000000000E+00 0.  1.
         21   -1    0    0  501  502 -0.00000000000E+00 -0.00000000000E+00 -0.62430546375E+03  0.62430546375E+03  0.00000000000E+00 0.  1.
      99926    2    1    2    0    0  0.00000000000E+00  0.00000000000E+00 -0.53698694183E+03  0.71162398566E+03  0.46696222681E+03 0.  0.
      99925    2    3    3    0    0 -0.10430832960E+03  0.61056124731E+02 -0.37558962981E+03  0.47433791692E+03  0.26328845667E+03 0.  0.
         25    1    3    3    0    0  0.10430832960E+03 -0.61056124731E+02 -0.16139731202E+03  0.23728606874E+03  0.12509000000E+03 0.  0.
         25    1    4    4    0    0 -0.42537934513E+02 -0.10891397530E+02 -0.17988994043E+03  0.22346363727E+03  0.12509000000E+03 0.  0.
         25    1    4    4    0    0 -0.61770395085E+02  0.71947522261E+02 -0.19569968938E+03  0.25087427965E+03  0.12509000000E+03 0.  0.
<mgrwt>
<rscale>  2 0.46696223E+03</rscale>
<asrwt>0</asrwt>
<pdfrwt beam="1">  1       21 0.12840960E-01 0.46696223E+03</pdfrwt>
<pdfrwt beam="2">  1       21 0.91809624E-01 0.46696223E+03</pdfrwt>
<totfact> 0.47632664E+04</totfact>
</mgrwt>
</event>
<event>
 7    0  0.4705418E-002  0.4466440E+03  0.7546771E-02  0.1028728E+00
         21   -1    0    0  502  501  0.00000000000E+00  0.00000000000E+00  0.28105512225E+03  0.28105512225E+03  0.00000000000E+00 0.  1.
         21   -1    0    0  501  502 -0.00000000000E+00 -0.00000000000E+00 -0.17744819157E+03  0.17744819157E+03  0.00000000000E+00 0.  1.
      99926    2    1    2    0    0  0.00000000000E+00 -0.17763568394E-14  0.10360693067E+03  0.45850331382E+03  0.44664403354E+03 0.  0.
      99925    2    3    3    0    0  0.89042864421E+02  0.11618759413E+02  0.12191037691E+03  0.30343509812E+03  0.26295834556E+03 0.  0.
         25    1    3    3    0    0 -0.89042864421E+02 -0.11618759413E+02 -0.18303446239E+02  0.15506821570E+03  0.12509000000E+03 0.  0.
         25    1    4    4    0    0  0.57529875551E+02 -0.36800990715E+01  0.21835096553E+02  0.13945432676E+03  0.12509000000E+03 0.  0.
         25    1    4    4    0    0  0.31512988870E+02  0.15298858484E+02  0.10007528036E+03  0.16398077137E+03  0.12509000000E+03 0.  0.
<mgrwt>
<rscale>  2 0.44664403E+03</rscale>
<asrwt>0</asrwt>
<pdfrwt beam="1">  1       21 0.41331635E-01 0.44664403E+03</pdfrwt>
<pdfrwt beam="2">  1       21 0.26095322E-01 0.44664403E+03</pdfrwt>
<totfact> 0.73021810E+04</totfact>
</mgrwt>
</event>
<event>
 7    0  0.4705418E-002  0.4516139E+03  0.7546771E-02  0.1027242E+00
         21   -1    0    0  502  501  0.00000000000E+00  0.00000000000E+00  0.30134087659E+03  0.30134087659E+03  0.00000000000E+00 0. -1.
         21   -1    0    0  501  502 -0.00000000000E+00 -0.00000000000E+00 -0.16920629992E+03  0.16920629992E+03  0.00000000000E+00 0. -1.
      99926    2    1    2    0    0 -0.71054273576E-14  0.00000000000E+00  0.13213457667E+03  0.47054717651E+03  0.45161388261E+03 0.  0.
      99925    2    3    3    0    0  0.63321668192E+02  0.87280164416E+02  0.10251843123E+03  0.30276134596E+03  0.26367962208E+03 0.  0.
         25    1    4    4    0    0  0.44057724586E+02  0.49465130812E+01  0.61683839597E+02  0.14634874531E+03  0.12509000000E+03 0.  0.
         25    1    3    3    0    0 -0.63321668192E+02 -0.87280164416E+02  0.29616145440E+02  0.16778583055E+03  0.12509000000E+03 0.  0.
         25    1    4    4    0    0  0.19263943606E+02  0.82333651335E+02  0.40834591637E+02  0.15641260064E+03  0.12509000000E+03 0.  0.
<mgrwt>
<rscale>  2 0.45161388E+03</rscale>
<asrwt>0</asrwt>
<pdfrwt beam="1">  1       21 0.44314835E-01 0.45161388E+03</pdfrwt>
<pdfrwt beam="2">  1       21 0.24883279E-01 0.45161388E+03</pdfrwt>
<totfact> 0.69236584E+04</totfact>
</mgrwt>
</event>
<event>
 7    0  0.4705418E-002  0.4497964E+03  0.7546771E-02  0.1027783E+00
         21   -1    0    0  502  501  0.00000000000E+00  0.00000000000E+00  0.72113428093E+02  0.72113428093E+02  0.00000000000E+00 0. -1.
         21   -1    0    0  501  502 -0.00000000000E+00 -0.00000000000E+00 -0.70138384846E+03  0.70138384846E+03  0.00000000000E+00 0. -1.
      99926    2    1    2    0    0  0.00000000000E+00  0.00000000000E+00 -0.62927042037E+03  0.77349727655E+03  0.44979637047E+03 0.  0.
      99925    2    3    3    0    0  0.68110345540E+02 -0.55978839309E+02 -0.29298647510E+03  0.40402867226E+03  0.26386633698E+03 0.  0.
         25    1    3    3    0    0 -0.68110345540E+02  0.55978839309E+02 -0.33628394526E+03  0.36946860430E+03  0.12509000000E+03 0.  0.
         25    1    4    4    0    0 -0.43408326516E+01 -0.15314142859E+02 -0.15762701635E+03  0.20185923358E+03  0.12509000000E+03 0.  0.
         25    1    4    4    0    0  0.72451178191E+02 -0.40664696449E+02 -0.13535945875E+03  0.20216943867E+03  0.12509000000E+03 0.  0.
<mgrwt>
<rscale>  2 0.44979637E+03</rscale>
<asrwt>0</asrwt>
<pdfrwt beam="1">  1       21 0.10604916E-01 0.44979637E+03</pdfrwt>
<pdfrwt beam="2">  1       21 0.10314469E+00 0.44979637E+03</pdfrwt>
<totfact> 0.51130210E+04</totfact>
</mgrwt>
</event>
<event>
 7    0  0.4705418E-002  0.4396907E+03  0.7546771E-02  0.1030842E+00
         21   -1    0    0  502  501  0.00000000000E+00  0.00000000000E+00  0.29952971299E+03  0.29952971299E+03  0.00000000000E+00 0. -1.
         21   -1    0    0  501  502 -0.00000000000E+00 -0.00000000000E+00 -0.16135951110E+03  0.16135951110E+03  0.00000000000E+00 0. -1.
      99926    2    1    2    0    0 -0.17763568394E-14  0.14210854715E-13  0.13817020189E+03  0.46088922409E+03  0.43969065511E+03 0.  0.
      99925    2    3    3    0    0  0.12262733897E+02 -0.83826677575E+02  0.36476845378E+02  0.27877296075E+03  0.26307131519E+03 0.  0.
         25    1    4    4    0    0 -0.21568184669E+02 -0.38487280559E+02  0.47865579429E+02  0.14101446432E+03  0.12509000000E+03 0.  0.
         25    1    4    4    0    0  0.33830918566E+02 -0.45339397016E+02 -0.11388734051E+02  0.13775849642E+03  0.12509000000E+03 0.  0.
         25    1    3    3    0    0 -0.12262733897E+02  0.83826677575E+02  0.10169335651E+03  0.18211626334E+03  0.12509000000E+03 0.  0.
<mgrwt>
<rscale>  2 0.43969066E+03</rscale>
<asrwt>0</asrwt>
<pdfrwt beam="1">  1       21 0.44048487E-01 0.43969066E+03</pdfrwt>
<pdfrwt beam="2">  1       21 0.23729340E-01 0.43969066E+03</pdfrwt>
<totfact> 0.77062762E+04</totfact>
</mgrwt>
</event>
<event>
 7    0  0.4705418E-002  0.4567295E+03  0.7546771E-02  0.1025734E+00
         21   -1    0    0  502  501  0.00000000000E+00  0.00000000000E+00  0.41713174149E+02  0.41713174149E+02  0.00000000000E+00 0.  1.
         21   -1    0    0  501  502 -0.00000000000E+00 -0.00000000000E+00 -0.12502158021E+04  0.12502158021E+04  0.00000000000E+00 0.  1.
      99926    2    1    2    0    0  0.00000000000E+00 -0.71054273576E-14 -0.12085026279E+04  0.12919289762E+04  0.45672954569E+03 0.  0.
      99925    2    3    3    0    0 -0.64233684203E+02  0.63241630585E+02 -0.55105173593E+03  0.61664040567E+03  0.26165225819E+03 0.  0.
         25    1    3    3    0    0  0.64233684203E+02 -0.63241630585E+02 -0.65745089200E+03  0.67528857055E+03  0.12509000000E+03 0.  0.
         25    1    4    4    0    0 -0.29240699274E+01  0.29023645332E+02 -0.31823897864E+03  0.34318286350E+03  0.12509000000E+03 0.  0.
         25    1    4    4    0    0 -0.61309614275E+02  0.34217985254E+02 -0.23281275729E+03  0.27345754217E+03  0.12509000000E+03 0.  0.
<mgrwt>
<rscale>  2 0.45672955E+03</rscale>
<asrwt>0</asrwt>
<pdfrwt beam="1">  1       21 0.61342909E-02 0.45672955E+03</pdfrwt>
<pdfrwt beam="2">  1       21 0.18385525E+00 0.45672955E+03</pdfrwt>
<totfact> 0.28958526E+04</totfact>
</mgrwt>
</event>
<event>
 7    0  0.4705418E-002  0.4491917E+03  0.7546771E-02  0.1027963E+00
         21   -1    0    0  502  501  0.00000000000E+00  0.00000000000E+00  0.14979776541E+03  0.14979776541E+03  0.00000000000E+00 0. -1.
         21   -1    0    0  501  502 -0.00000000000E+00 -0.00000000000E+00 -0.33674261394E+03  0.33674261394E+03  0.00000000000E+00 0. -1.
      99926    2    1    2    0    0  0.00000000000E+00  0.00000000000E+00 -0.18694484853E+03  0.48654037935E+03  0.44919167885E+03 0.  0.
      99925    2    3    3    0    0  0.93680539800E+02 -0.23208369922E+02 -0.16996743369E+03  0.32763659498E+03  0.26294892638E+03 0.  0.
         25    1    4    4    0    0  0.80202783600E+02 -0.33978016318E+02 -0.10915870929E+03  0.18748366330E+03  0.12509000000E+03 0.  0.
         25    1    3    3    0    0 -0.93680539800E+02  0.23208369922E+02 -0.16977414836E+02  0.15890378437E+03  0.12509000000E+03 0.  0.
         25    1    4    4    0    0  0.13477756200E+02  0.10769646395E+02 -0.60808724397E+02  0.14015293168E+03  0.12509000000E+03 0.  0.
<mgrwt>
<rscale>  2 0.44919168E+03</rscale>
<asrwt>0</asrwt>
<pdfrwt beam="1">  1       21 0.22029083E-01 0.44919168E+03</pdfrwt>
<pdfrwt beam="2">  1       21 0.49520973E-01 0.44919168E+03</pdfrwt>
<totfact> 0.69370962E+04</totfact>
</mgrwt>
</event>
<event>
 7    0  0.4705418E-002  0.4210328E+03  0.7546771E-02  0.1036731E+00
         21   -1    0    0  502  501  0.00000000000E+00  0.00000000000E+00  0.57303374197E+03  0.57303374197E+03  0.00000000000E+00 0.  1.
         21   -1    0    0  501  502 -0.00000000000E+00 -0.00000000000E+00 -0.77337790165E+02  0.77337790165E+02  0.00000000000E+00 0.  1.
      99926    2    1    2    0    0  0.00000000000E+00  0.00000000000E+00  0.49569595180E+03  0.65037153213E+03  0.42103284097E+03 0.  0.
      99925    2    3    3    0    0  0.57889075050E+02 -0.50415613754E+02  0.31338986401E+03  0.41632902132E+03  0.26310410109E+03 0.  0.
         25    1    4    4    0    0 -0.10503516429E+02 -0.12976499716E+02  0.15680966445E+03  0.20128460539E+03  0.12509000000E+03 0.  0.
         25    1    4    4    0    0  0.68392591478E+02 -0.37439114038E+02  0.15658019956E+03  0.21504441593E+03  0.12509000000E+03 0.  0.
         25    1    3    3    0    0 -0.57889075050E+02  0.50415613754E+02  0.18230608779E+03  0.23404251081E+03  0.12509000000E+03 0.  0.
<mgrwt>
<rscale>  2 0.42103284E+03</rscale>
<asrwt>0</asrwt>
<pdfrwt beam="1">  1       21 0.84269666E-01 0.42103284E+03</pdfrwt>
<pdfrwt beam="2">  1       21 0.11373205E-01 0.42103284E+03</pdfrwt>
<totfact> 0.73460630E+04</totfact>
</mgrwt>
</event>
<event>
 7    0  0.4705418E-002  0.4558076E+03  0.7546771E-02  0.1026004E+00
         21   -1    0    0  502  501  0.00000000000E+00  0.00000000000E+00  0.13037248032E+03  0.13037248032E+03  0.00000000000E+00 0. -1.
         21   -1    0    0  501  502 -0.00000000000E+00 -0.00000000000E+00 -0.39839799289E+03  0.39839799289E+03  0.00000000000E+00 0. -1.
      99926    2    1    2    0    0  0.00000000000E+00  0.00000000000E+00 -0.26802551257E+03  0.52877047321E+03  0.45580756679E+03 0.  0.
      99925    2    3    3    0    0 -0.10629755494E+03 -0.38960266928E+02 -0.18240737697E+03  0.33957468618E+03  0.26309968403E+03 0.  0.
         25    1    3    3    0    0  0.10629755494E+03  0.38960266928E+02 -0.85618135607E+02  0.18919578703E+03  0.12509000000E+03 0.  0.
         25    1    4    4    0    0 -0.84086907571E+02 -0.74536776061E+01 -0.12776961000E+03  0.19773403014E+03  0.12509000000E+03 0.  0.
         25    1    4    4    0    0 -0.22210647364E+02 -0.31506589322E+02 -0.54637766963E+02  0.14184065604E+03  0.12509000000E+03 0.  0.
<mgrwt>
<rscale>  2 0.45580757E+03</rscale>
<asrwt>0</asrwt>
<pdfrwt beam="1">  1       21 0.19172424E-01 0.45580757E+03</pdfrwt>
<pdfrwt beam="2">  1       21 0.58587939E-01 0.45580757E+03</pdfrwt>
<totfact> 0.62886341E+04</totfact>
</mgrwt>
</event>
<event>
 7    0  0.4705418E-002  0.4418505E+03  0.7546771E-02  0.1030181E+00
         21   -1    0    0  502  501  0.00000000000E+00  0.00000000000E+00  0.29208474657E+03  0.29208474657E+03  0.00000000000E+00 0.  1.
         21   -1    0    0  501  502 -0.00000000000E+00 -0.00000000000E+00 -0.16710203903E+03  0.16710203903E+03  0.00000000000E+00 0.  1.
      99926    2    1    2    0    0  0.00000000000E+00  0.00000000000E+00  0.12498270755E+03  0.45918678560E+03  0.44185045761E+03 0.  0.
      99925    2    3    3    0    0  0.27545487010E+02  0.10285816115E+02  0.17936513349E+03  0.31965360597E+03  0.26294871141E+03 0.  0.
         25    1    4    4    0    0  0.15941091452E+02  0.11167084738E+02  0.13827712542E+03  0.18747504819E+03  0.12509000000E+03 0.  0.
         25    1    4    4    0    0  0.11604395557E+02 -0.88126862251E+00  0.41088008067E+02  0.13217855778E+03  0.12509000000E+03 0.  0.
         25    1    3    3    0    0 -0.27545487010E+02 -0.10285816115E+02 -0.54382425940E+02  0.13953317963E+03  0.12509000000E+03 0.  0.
<mgrwt>
<rscale>  2 0.44185046E+03</rscale>
<asrwt>0</asrwt>
<pdfrwt beam="1">  1       21 0.42953639E-01 0.44185046E+03</pdfrwt>
<pdfrwt beam="2">  1       21 0.24573829E-01 0.44185046E+03</pdfrwt>
<totfact> 0.75858001E+04</totfact>
</mgrwt>
</event>
<event>
 7    0  0.4705418E-002  0.4564444E+03  0.7546771E-02  0.1025817E+00
         21   -1    0    0  502  501  0.00000000000E+00  0.00000000000E+00  0.29381774913E+03  0.29381774913E+03  0.00000000000E+00 0. -1.
         21   -1    0    0  501  502 -0.00000000000E+00 -0.00000000000E+00 -0.17727105370E+03  0.17727105370E+03  0.00000000000E+00 0. -1.
      99926    2    1    2    0    0 -0.14210854715E-13  0.00000000000E+00  0.11654669543E+03  0.47108880283E+03  0.45644444124E+03 0.  0.
      99925    2    3    3    0    0 -0.84415766967E+02  0.46312708638E+02  0.13708416014E+03  0.31190279763E+03  0.26309769957E+03 0.  0.
         25    1    4    4    0    0 -0.79966441700E+01  0.73197994588E+01  0.84579504153E+02  0.15138932064E+03  0.12509000000E+03 0.  0.
         25    1    3    3    0    0  0.84415766967E+02 -0.46312708638E+02 -0.20537464708E+02  0.15918600520E+03  0.12509000000E+03 0.  0.
         25    1    4    4    0    0 -0.76419122797E+02  0.38992909179E+02  0.52504655986E+02  0.16051347699E+03  0.12509000000E+03 0.  0.
<mgrwt>
<rscale>  2 0.45644444E+03</rscale>
<asrwt>0</asrwt>
<pdfrwt beam="1">  1       21 0.43208493E-01 0.45644444E+03</pdfrwt>
<pdfrwt beam="2">  1       21 0.26069273E-01 0.45644444E+03</pdfrwt>
<totfact> 0.66588522E+04</totfact>
</mgrwt>
</event>
<event>
 7    0  0.4705418E-002  0.4528606E+03  0.7546771E-02  0.1026872E+00
         21   -1    0    0  502  501  0.00000000000E+00  0.00000000000E+00  0.25353937350E+03  0.25353937350E+03  0.00000000000E+00 0. -1.
         21   -1    0    0  501  502 -0.00000000000E+00 -0.00000000000E+00 -0.20221976465E+03  0.20221976465E+03  0.00000000000E+00 0. -1.
      99926    2    1    2    0    0  0.00000000000E+00  0.00000000000E+00  0.51319608843E+02  0.45575913815E+03  0.45286056326E+03 0.  0.
      99925    2    3    3    0    0  0.77539950914E+02  0.59877494726E+02 -0.20454690099E+02  0.28141231010E+03  0.26301470599E+03 0.  0.
         25    1    4    4    0    0  0.37701349931E+02  0.69025124671E+02 -0.24358093550E+02  0.14975541541E+03  0.12509000000E+03 0.  0.
         25    1    4    4    0    0  0.39838600984E+02 -0.91476299447E+01  0.39034034504E+01  0.13165689469E+03  0.12509000000E+03 0.  0.
         25    1    3    3    0    0 -0.77539950914E+02 -0.59877494726E+02  0.71774298942E+02  0.17434682805E+03  0.12509000000E+03 0.  0.
<mgrwt>
<rscale>  2 0.45286056E+03</rscale>
<asrwt>0</asrwt>
<pdfrwt beam="1">  1       21 0.37285202E-01 0.45286056E+03</pdfrwt>
<pdfrwt beam="2">  1       21 0.29738201E-01 0.45286056E+03</pdfrwt>
<totfact> 0.69671823E+04</totfact>
</mgrwt>
</event>
<event>
 7    0  0.4705418E-002  0.4466763E+03  0.7546771E-02  0.1028718E+00
         21   -1    0    0  502  501  0.00000000000E+00  0.00000000000E+00  0.83494786263E+02  0.83494786263E+02  0.00000000000E+00 0.  1.
         21   -1    0    0  501  502 -0.00000000000E+00 -0.00000000000E+00 -0.59740174005E+03  0.59740174005E+03  0.00000000000E+00 0.  1.
      99926    2    1    2    0    0 -0.14210854715E-13  0.00000000000E+00 -0.51390695379E+03  0.68089652631E+03  0.44667630606E+03 0.  0.
      99925    2    3    3    0    0 -0.64633740449E+02  0.82890089902E+02 -0.32227324327E+03  0.42906468854E+03  0.26303645416E+03 0.  0.
         25    1    3    3    0    0  0.64633740449E+02 -0.82890089902E+02 -0.19163371051E+03  0.25183183777E+03  0.12509000000E+03 0.  0.
         25    1    4    4    0    0 -0.16635633780E+02  0.45611533596E+02 -0.21496366227E+03  0.25340489440E+03  0.12509000000E+03 0.  0.
         25    1    4    4    0    0 -0.47998106668E+02  0.37278556306E+02 -0.10730958100E+03  0.17565979414E+03  0.12509000000E+03 0.  0.
<mgrwt>
<rscale>  2 0.44667631E+03</rscale>
<asrwt>0</asrwt>
<pdfrwt beam="1">  1       21 0.12278645E-01 0.44667631E+03</pdfrwt>
<pdfrwt beam="2">  1       21 0.87853196E-01 0.44667631E+03</pdfrwt>
<totfact> 0.57638552E+04</totfact>
</mgrwt>
</event>
<event>
 7    0  0.4705418E-002  0.4618314E+03  0.7546771E-02  0.1024251E+00
         21   -1    0    0  502  501  0.00000000000E+00  0.00000000000E+00  0.23513565834E+03  0.23513565834E+03  0.00000000000E+00 0.  1.
         21   -1    0    0  501  502 -0.00000000000E+00 -0.00000000000E+00 -0.22677145376E+03  0.22677145376E+03  0.00000000000E+00 0.  1.
      99926    2    1    2    0    0 -0.14210854715E-13  0.00000000000E+00  0.83642045800E+01  0.46190711211E+03  0.46183137648E+03 0.  0.
      99925    2    3    3    0    0  0.96422048221E+02 -0.18180587692E+02  0.73391532156E+02  0.29014039070E+03  0.26299692806E+03 0.  0.
         25    1    4    4    0    0  0.79865383202E+02  0.76068850736E+01  0.61410551743E+02  0.16079523656E+03  0.12509000000E+03 0.  0.
         25    1    4    4    0    0  0.16556665019E+02 -0.25787472766E+02  0.11980980413E+02  0.12934515414E+03  0.12509000000E+03 0.  0.
         25    1    3    3    0    0 -0.96422048221E+02  0.18180587692E+02 -0.65027327576E+02  0.17176672141E+03  0.12509000000E+03 0.  0.
<mgrwt>
<rscale>  2 0.46183138E+03</rscale>
<asrwt>0</asrwt>
<pdfrwt beam="1">  1       21 0.34578773E-01 0.46183138E+03</pdfrwt>
<pdfrwt beam="2">  1       21 0.33348743E-01 0.46183138E+03</pdfrwt>
<totfact> 0.64457046E+04</totfact>
</mgrwt>
</event>
<event>
 7    0  0.4705418E-002  0.4595377E+03  0.7546771E-02  0.1024915E+00
         21   -1    0    0  502  501  0.00000000000E+00  0.00000000000E+00  0.76978670331E+03  0.76978670331E+03  0.00000000000E+00 0.  1.
         21   -1    0    0  501  502 -0.00000000000E+00 -0.00000000000E+00 -0.68582263548E+02  0.68582263548E+02  0.00000000000E+00 0.  1.
      99926    2    1    2    0    0  0.00000000000E+00  0.00000000000E+00  0.70120443976E+03  0.83836896686E+03  0.45953765705E+03 0.  0.
      99925    2    3    3    0    0 -0.56696208891E+02 -0.70978534982E+02  0.30396092619E+03  0.41210340444E+03  0.26302957774E+03 0.  0.
         25    1    4    4    0    0 -0.10578365898E+01 -0.28785517431E+02  0.99321731337E+02  0.16230230882E+03  0.12509000000E+03 0.  0.
         25    1    4    4    0    0 -0.55638372301E+02 -0.42193017550E+02  0.20463919485E+03  0.24980109562E+03  0.12509000000E+03 0.  0.
         25    1    3    3    0    0  0.56696208891E+02  0.70978534982E+02  0.39724351357E+03  0.42626556242E+03  0.12509000000E+03 0.  0.
<mgrwt>
<rscale>  2 0.45953766E+03</rscale>
<asrwt>0</asrwt>
<pdfrwt beam="1">  1       21 0.11320392E+00 0.45953766E+03</pdfrwt>
<pdfrwt beam="2">  1       21 0.10085627E-01 0.45953766E+03</pdfrwt>
<totfact> 0.44363663E+04</totfact>
</mgrwt>
</event>
<event>
 7    0  0.4705418E-002  0.4536210E+03  0.7546771E-02  0.1026648E+00
         21   -1    0    0  502  501  0.00000000000E+00  0.00000000000E+00  0.27552167175E+03  0.27552167175E+03  0.00000000000E+00 0. -1.
         21   -1    0    0  501  502 -0.00000000000E+00 -0.00000000000E+00 -0.18671131668E+03  0.18671131668E+03  0.00000000000E+00 0. -1.
      99926    2    1    2    0    0  0.35527136788E-14 -0.14210854715E-13  0.88810355061E+02  0.46223298843E+03  0.45362104936E+03 0.  0.
      99925    2    3    3    0    0 -0.20299675939E+02 -0.79006427553E+02 -0.21970312077E+02  0.27629225392E+03  0.26306011200E+03 0.  0.
         25    1    4    4    0    0 -0.35996498984E+02 -0.16944572193E+02 -0.32975213253E+02  0.13534304288E+03  0.12509000000E+03 0.  0.
         25    1    3    3    0    0  0.20299675939E+02  0.79006427553E+02  0.11078066714E+03  0.18594073451E+03  0.12509000000E+03 0.  0.
         25    1    4    4    0    0  0.15696823045E+02 -0.62061855360E+02  0.11004901176E+02  0.14094921105E+03  0.12509000000E+03 0.  0.
<mgrwt>
<rscale>  2 0.45362105E+03</rscale>
<asrwt>0</asrwt>
<pdfrwt beam="1">  1       21 0.40517893E-01 0.45362105E+03</pdfrwt>
<pdfrwt beam="2">  1       21 0.27457547E-01 0.45362105E+03</pdfrwt>
<totfact> 0.68766811E+04</totfact>
</mgrwt>
</event>
<event>
 7    0  0.4705418E-002  0.4540834E+03  0.7546771E-02  0.1026511E+00
         21   -1    0    0  502  501  0.00000000000E+00  0.00000000000E+00  0.48324335415E+02  0.48324335415E+02  0.00000000000E+00 0. -1.
         21   -1    0    0  501  502 -0.00000000000E+00 -0.00000000000E+00 -0.10667077718E+04  0.10667077718E+04  0.00000000000E+00 0. -1.
      99926    2    1    2    0    0  0.00000000000E+00  0.00000000000E+00 -0.10183834364E+04  0.11150321073E+04  0.45408344676E+03 0.  0.
      99925    2    3    3    0    0  0.82167702543E+02  0.76188723837E+02 -0.62504651301E+03  0.68734332274E+03  0.26306167890E+03 0.  0.
         25    1    3    3    0    0 -0.82167702543E+02 -0.76188723837E+02 -0.39333692341E+03  0.42768878452E+03  0.12509000000E+03 0.  0.
         25    1    4    4    0    0  0.72159465031E+02  0.20875280228E+02 -0.37066047718E+03  0.39834590893E+03  0.12509000000E+03 0.  0.
         25    1    4    4    0    0  0.10008237512E+02  0.55313443609E+02 -0.25438603584E+03  0.28899741381E+03  0.12509000000E+03 0.  0.
<mgrwt>
<rscale>  2 0.45408345E+03</rscale>
<asrwt>0</asrwt>
<pdfrwt beam="1">  1       21 0.71065199E-02 0.45408345E+03</pdfrwt>
<pdfrwt beam="2">  1       21 0.15686879E+00 0.45408345E+03</pdfrwt>
<totfact> 0.35222531E+04</totfact>
</mgrwt>
</event>
<event>
 7    0  0.4705418E-002  0.4555028E+03  0.7546771E-02  0.1026094E+00
         21   -1    0    0  502  501  0.00000000000E+00  0.00000000000E+00  0.12990832222E+04  0.12990832222E+04  0.00000000000E+00 0. -1.
         21   -1    0    0  501  502 -0.00000000000E+00 -0.00000000000E+00 -0.39928702701E+02  0.39928702701E+02  0.00000000000E+00 0. -1.
      99926    2    1    2    0    0 -0.17763568394E-14  0.00000000000E+00  0.12591545195E+04  0.13390119249E+04  0.45550283319E+03 0.  0.
      99925    2    3    3    0    0 -0.10546991692E+02  0.96248081987E+02  0.96738845134E+03  0.10071235718E+04  0.26283557729E+03 0.  0.
         25    1    4    4    0    0 -0.19213883767E+02  0.11554935192E+02  0.38681723756E+03  0.40715816734E+03  0.12509000000E+03 0.  0.
         25    1    3    3    0    0  0.10546991692E+02 -0.96248081987E+02  0.29176606814E+03  0.33188835312E+03  0.12509000000E+03 0.  0.
         25    1    4    4    0    0  0.86668920746E+01  0.84693146795E+02  0.58057121379E+03  0.59996540443E+03  0.12509000000E+03 0.  0.
<mgrwt>
<rscale>  2 0.45550283E+03</rscale>
<asrwt>0</asrwt>
<pdfrwt beam="1">  1       21 0.19104162E+00 0.45550283E+03</pdfrwt>
<pdfrwt beam="2">  1       21 0.58718689E-02 0.45550283E+03</pdfrwt>
<totfact> 0.27893271E+04</totfact>
</mgrwt>
</event>
<event>
 7    0  0.4705418E-002  0.4494084E+03  0.7546771E-02  0.1027899E+00
         21   -1    0    0  502  501  0.00000000000E+00  0.00000000000E+00  0.40537562513E+03  0.40537562513E+03  0.00000000000E+00 0.  1.
         21   -1    0    0  501  502 -0.00000000000E+00 -0.00000000000E+00 -0.12455600991E+03  0.12455600991E+03  0.00000000000E+00 0.  1.
      99926    2    1    2    0    0  0.00000000000E+00  0.17763568394E-14  0.28081961522E+03  0.52993163504E+03  0.44940836833E+03 0.  0.
      99925    2    3    3    0    0  0.44112746040E+02 -0.14189404394E+02  0.64809223192E+02  0.27605120822E+03  0.26430429544E+03 0.  0.
         25    1    4    4    0    0  0.48716605984E+02 -0.15787466989E+02  0.17850361406E+00  0.13516690340E+03  0.12509000000E+03 0.  0.
         25    1    4    4    0    0 -0.46038599437E+01  0.15980625954E+01  0.64630719578E+02  0.14088430482E+03  0.12509000000E+03 0.  0.
         25    1    3    3    0    0 -0.44112746040E+02  0.14189404394E+02  0.21601039203E+03  0.25388042682E+03  0.12509000000E+03 0.  0.
<mgrwt>
<rscale>  2 0.44940837E+03</rscale>
<asrwt>0</asrwt>
<pdfrwt beam="1">  1       21 0.59614062E-01 0.44940837E+03</pdfrwt>
<pdfrwt beam="2">  1       21 0.18317060E-01 0.44940837E+03</pdfrwt>
<totfact> 0.66089520E+04</totfact>
</mgrwt>
</event>
<event>
 7    0  0.4705418E-002  0.4519951E+03  0.7546771E-02  0.1027129E+00
         21   -1    0    0  502  501  0.00000000000E+00  0.00000000000E+00  0.86548606220E+02  0.86548606220E+02  0.00000000000E+00 0.  1.
         21   -1    0    0  501  502 -0.00000000000E+00 -0.00000000000E+00 -0.59012964900E+03  0.59012964900E+03  0.00000000000E+00 0.  1.
      99926    2    1    2    0    0  0.00000000000E+00  0.00000000000E+00 -0.50358104278E+03  0.67667825522E+03  0.45199512657E+03 0.  0.
      99925    2    3    3    0    0 -0.95241712157E+02 -0.13669757985E+02 -0.39865706056E+03  0.48716731579E+03  0.26295759283E+03 0.  0.
         25    1    4    4    0    0 -0.14140069430E+02  0.18111646607E+02 -0.16850328656E+03  0.21111333210E+03  0.12509000000E+03 0.  0.
         25    1    3    3    0    0  0.95241712157E+02  0.13669757985E+02 -0.10492398223E+03  0.18951093943E+03  0.12509000000E+03 0.  0.
         25    1    4    4    0    0 -0.81101642727E+02 -0.31781404592E+02 -0.23015377399E+03  0.27605398370E+03  0.12509000000E+03 0.  0.
<mgrwt>
<rscale>  2 0.45199513E+03</rscale>
<asrwt>0</asrwt>
<pdfrwt beam="1">  1       21 0.12727736E-01 0.45199513E+03</pdfrwt>
<pdfrwt beam="2">  1       21 0.86783773E-01 0.45199513E+03</pdfrwt>
<totfact> 0.55489585E+04</totfact>
</mgrwt>
</event>
<event>
 7    0  0.4705418E-002  0.4594236E+03  0.7546771E-02  0.1024949E+00
         21   -1    0    0  502  501  0.00000000000E+00  0.00000000000E+00  0.25800463793E+03  0.25800463793E+03  0.00000000000E+00 0.  1.
         21   -1    0    0  501  502 -0.00000000000E+00 -0.00000000000E+00 -0.20452153735E+03  0.20452153735E+03  0.00000000000E+00 0.  1.
      99926    2    1    2    0    0  0.00000000000E+00 -0.35527136788E-14  0.53483100581E+02  0.46252617528E+03  0.45942357447E+03 0.  0.
      99925    2    3    3    0    0 -0.11321861994E+03  0.29730281734E+02  0.37476902434E+02  0.29046208248E+03  0.26317552620E+03 0.  0.
         25    1    4    4    0    0 -0.46443145961E+02  0.46633213499E+02  0.42418948914E+02  0.14757539678E+03  0.12509000000E+03 0.  0.
         25    1    3    3    0    0  0.11321861994E+03 -0.29730281734E+02  0.16006198147E+02  0.17206409280E+03  0.12509000000E+03 0.  0.
         25    1    4    4    0    0 -0.66775473978E+02 -0.16902931765E+02 -0.49420464801E+01  0.14288668570E+03  0.12509000000E+03 0.  0.
<mgrwt>
<rscale>  2 0.45942357E+03</rscale>
<asrwt>0</asrwt>
<pdfrwt beam="1">  1       21 0.37941859E-01 0.45942357E+03</pdfrwt>
<pdfrwt beam="2">  1       21 0.30076696E-01 0.45942357E+03</pdfrwt>
<totfact> 0.65650042E+04</totfact>
</mgrwt>
</event>
<event>
 7    0  0.4705418E-002  0.4054597E+03  0.7546771E-02  0.1041905E+00
         21   -1    0    0  502  501  0.00000000000E+00  0.00000000000E+00  0.44633504277E+02  0.44633504277E+02  0.00000000000E+00 0. -1.
         21   -1    0    0  501  502 -0.00000000000E+00 -0.00000000000E+00 -0.92081941690E+03  0.92081941690E+03  0.00000000000E+00 0. -1.
      99926    2    1    2    0    0  0.00000000000E+00  0.00000000000E+00 -0.87618591262E+03  0.96545292118E+03  0.40545972615E+03 0.  0.
      99925    2    3    3    0    0  0.41866878203E+02  0.29246161170E+02 -0.63089259891E+03  0.68540919015E+03  0.26296789377E+03 0.  0.
         25    1    4    4    0    0  0.20521833302E+02  0.54437471905E+02 -0.30359562649E+03  0.33347023332E+03  0.12509000000E+03 0.  0.
         25    1    4    4    0    0  0.21345044901E+02 -0.25191310735E+02 -0.32729697242E+03  0.35193895683E+03  0.12509000000E+03 0.  0.
         25    1    3    3    0    0 -0.41866878203E+02 -0.29246161170E+02 -0.24529331371E+03  0.28004373102E+03  0.12509000000E+03 0.  0.
<mgrwt>
<rscale>  2 0.40545973E+03</rscale>
<asrwt>0</asrwt>
<pdfrwt beam="1">  1       21 0.65637513E-02 0.40545973E+03</pdfrwt>
<pdfrwt beam="2">  1       21 0.13541461E+00 0.40545973E+03</pdfrwt>
<totfact> 0.60908718E+04</totfact>
</mgrwt>
</event>
<event>
 7    0  0.4705418E-002  0.4529841E+03  0.7546771E-02  0.1026836E+00
         21   -1    0    0  502  501  0.00000000000E+00  0.00000000000E+00  0.11814827747E+04  0.11814827747E+04  0.00000000000E+00 0.  1.
         21   -1    0    0  501  502 -0.00000000000E+00 -0.00000000000E+00 -0.43418881031E+02  0.43418881031E+02  0.00000000000E+00 0.  1.
      99926    2    1    2    0    0 -0.14210854715E-13  0.00000000000E+00  0.11380638936E+04  0.12249016557E+04  0.45298414998E+03 0.  0.
      99925    2    3    3    0    0  0.10858789668E+03 -0.19854155584E+02  0.75707645393E+03  0.80898765484E+03  0.26288923482E+03 0.  0.
         25    1    4    4    0    0  0.93109497691E+02  0.18060386264E+01  0.37745829005E+03  0.40840532460E+03  0.12509000000E+03 0.  0.
         25    1    3    3    0    0 -0.10858789668E+03  0.19854155584E+02  0.38098743971E+03  0.41591400087E+03  0.12509000000E+03 0.  0.
         25    1    4    4    0    0  0.15478398986E+02 -0.21660194210E+02  0.37961816388E+03  0.40058233024E+03  0.12509000000E+03 0.  0.
<mgrwt>
<rscale>  2 0.45298415E+03</rscale>
<asrwt>0</asrwt>
<pdfrwt beam="1">  1       21 0.17374745E+00 0.45298415E+03</pdfrwt>
<pdfrwt beam="2">  1       21 0.63851303E-02 0.45298415E+03</pdfrwt>
<totfact> 0.31873407E+04</totfact>
</mgrwt>
</event>
<event>
 7    0  0.4705418E-002  0.4558096E+03  0.7546771E-02  0.1026004E+00
         21   -1    0    0  502  501  0.00000000000E+00  0.00000000000E+00  0.49945451962E+03  0.49945451962E+03  0.00000000000E+00 0. -1.
         21   -1    0    0  501  502 -0.00000000000E+00 -0.00000000000E+00 -0.10399464001E+03  0.10399464001E+03  0.00000000000E+00 0. -1.
      99926    2    1    2    0    0  0.00000000000E+00  0.00000000000E+00  0.39545987961E+03  0.60344915962E+03  0.45580957852E+03 0.  0.
      99925    2    3    3    0    0  0.21506586898E+02  0.11004997708E+03  0.27544875000E+03  0.39699405539E+03  0.26298048483E+03 0.  0.
         25    1    4    4    0    0  0.19238107068E+02  0.35953569918E+02  0.18038905065E+03  0.22327221423E+03  0.12509000000E+03 0.  0.
         25    1    4    4    0    0  0.22684798295E+01  0.74096407157E+02  0.95059699354E+02  0.17372184116E+03  0.12509000000E+03 0.  0.
         25    1    3    3    0    0 -0.21506586898E+02 -0.11004997708E+03  0.12001112961E+03  0.20645510424E+03  0.12509000000E+03 0.  0.
<mgrwt>
<rscale>  2 0.45580958E+03</rscale>
<asrwt>0</asrwt>
<pdfrwt beam="1">  1       21 0.73449193E-01 0.45580958E+03</pdfrwt>
<pdfrwt beam="2">  1       21 0.15293330E-01 0.45580958E+03</pdfrwt>
<totfact> 0.58093999E+04</totfact>
</mgrwt>
</event>
<event>
 7    0  0.4705418E-002  0.4569822E+03  0.7546771E-02  0.1025660E+00
         21   -1    0    0  502  501  0.00000000000E+00  0.00000000000E+00  0.28300598661E+04  0.28300598661E+04  0.00000000000E+00 0. -1.
         21   -1    0    0  501  502 -0.00000000000E+00 -0.00000000000E+00 -0.18447730446E+02  0.18447730446E+02  0.00000000000E+00 0. -1.
      99926    2    1    2    0    0  0.00000000000E+00  0.00000000000E+00  0.28116121356E+04  0.28485075965E+04  0.45698219464E+03 0.  0.
      99925    2    3    3    0    0 -0.47357810930E+02 -0.10419940526E+03  0.16966445417E+04  0.17207219245E+04  0.26302274123E+03 0.  0.
         25    1    4    4    0    0 -0.12529450925E+02 -0.14657521360E+02  0.64317489300E+03  0.65550993979E+03  0.12509000000E+03 0.  0.
         25    1    4    4    0    0 -0.34828360005E+02 -0.89541883897E+02  0.10534696487E+04  0.10652119848E+04  0.12509000000E+03 0.  0.
         25    1    3    3    0    0  0.47357810930E+02  0.10419940526E+03  0.11149675939E+04  0.11277856720E+04  0.12509000000E+03 0.  0.
<mgrwt>
<rscale>  2 0.45698219E+03</rscale>
<asrwt>0</asrwt>
<pdfrwt beam="1">  1       21 0.41618498E+00 0.45698219E+03</pdfrwt>
<pdfrwt beam="2">  1       21 0.27129035E-02 0.45698219E+03</pdfrwt>
<totfact> 0.41190937E+03</totfact>
</mgrwt>
</event>
<event>
 7    0  0.4705418E-002  0.4497149E+03  0.7546771E-02  0.1027807E+00
         21   -1    0    0  502  501  0.00000000000E+00  0.00000000000E+00  0.85591853518E+02  0.85591853518E+02  0.00000000000E+00 0. -1.
         21   -1    0    0  501  502 -0.00000000000E+00 -0.00000000000E+00 -0.59072062994E+03  0.59072062994E+03  0.00000000000E+00 0. -1.
      99926    2    1    2    0    0 -0.14210854715E-13  0.00000000000E+00 -0.50512877643E+03  0.67631248346E+03  0.44971490359E+03 0.  0.
      99925    2    3    3    0    0 -0.96918630377E+02  0.45778743651E+02 -0.34094550602E+03  0.44373439192E+03  0.26299706883E+03 0.  0.
         25    1    4    4    0    0 -0.52908169279E+02 -0.55574002318E+01 -0.12191958413E+03  0.18259806179E+03  0.12509000000E+03 0.  0.
         25    1    4    4    0    0 -0.44010461098E+02  0.51336143883E+02 -0.21902592190E+03  0.26113633014E+03  0.12509000000E+03 0.  0.
         25    1    3    3    0    0  0.96918630377E+02 -0.45778743651E+02 -0.16418327040E+03  0.23257809154E+03  0.12509000000E+03 0.  0.
<mgrwt>
<rscale>  2 0.44971490E+03</rscale>
<asrwt>0</asrwt>
<pdfrwt beam="1">  1       21 0.12587037E-01 0.44971490E+03</pdfrwt>
<pdfrwt beam="2">  1       21 0.86870680E-01 0.44971490E+03</pdfrwt>
<totfact> 0.56524658E+04</totfact>
</mgrwt>
</event>
<event>
 7    0  0.4705418E-002  0.4537222E+03  0.7546771E-02  0.1026618E+00
         21   -1    0    0  502  501  0.00000000000E+00  0.00000000000E+00  0.28572513713E+03  0.28572513713E+03  0.00000000000E+00 0.  1.
         21   -1    0    0  501  502 -0.00000000000E+00 -0.00000000000E+00 -0.18012399094E+03  0.18012399094E+03  0.00000000000E+00 0.  1.
      99926    2    1    2    0    0  0.35527136788E-14 -0.14210854715E-13  0.10560114619E+03  0.46584912807E+03  0.45372217055E+03 0.  0.
      99925    2    3    3    0    0  0.29596328358E+02 -0.10523031882E+03  0.41289048077E+02  0.28771177456E+03  0.26291427705E+03 0.  0.
         25    1    4    4    0    0  0.18324411308E+02 -0.96231212912E+01  0.14658915168E+02  0.12763534153E+03  0.12509000000E+03 0.  0.
         25    1    3    3    0    0 -0.29596328358E+02  0.10523031882E+03  0.64312098118E+02  0.17813735351E+03  0.12509000000E+03 0.  0.
         25    1    4    4    0    0  0.11271917050E+02 -0.95607197530E+02  0.26630132909E+02  0.16007643303E+03  0.12509000000E+03 0.  0.
<mgrwt>
<rscale>  2 0.45372217E+03</rscale>
<asrwt>0</asrwt>
<pdfrwt beam="1">  1       21 0.42018403E-01 0.45372217E+03</pdfrwt>
<pdfrwt beam="2">  1       21 0.26488822E-01 0.45372217E+03</pdfrwt>
<totfact> 0.68436986E+04</totfact>
</mgrwt>
</event>
<event>
 7    0  0.4705418E-002  0.4532040E+03  0.7546771E-02  0.1026771E+00
         21   -1    0    0  502  501  0.00000000000E+00  0.00000000000E+00  0.31820161660E+02  0.31820161660E+02  0.00000000000E+00 0.  1.
         21   -1    0    0  501  502 -0.00000000000E+00 -0.00000000000E+00 -0.16137086468E+04  0.16137086468E+04  0.00000000000E+00 0.  1.
      99926    2    1    2    0    0  0.14210854715E-13  0.00000000000E+00 -0.15818884851E+04  0.16455288084E+04  0.45320401593E+03 0.  0.
      99925    2    3    3    0    0 -0.65027052357E+02 -0.36218139931E+02 -0.69504367283E+03  0.74681778682E+03  0.26288938428E+03 0.  0.
         25    1    4    4    0    0 -0.48564611588E+02 -0.56136685949E+02 -0.37616290484E+03  0.40330619644E+03  0.12509000000E+03 0.  0.
         25    1    4    4    0    0 -0.16462440769E+02  0.19918546018E+02 -0.31888076799E+03  0.34351159038E+03  0.12509000000E+03 0.  0.
         25    1    3    3    0    0  0.65027052357E+02  0.36218139931E+02 -0.88684481229E+03  0.89871102163E+03  0.12509000000E+03 0.  0.
<mgrwt>
<rscale>  2 0.45320402E+03</rscale>
<asrwt>0</asrwt>
<pdfrwt beam="1">  1       21 0.46794344E-02 0.45320402E+03</pdfrwt>
<pdfrwt beam="2">  1       21 0.23731015E+00 0.45320402E+03</pdfrwt>
<totfact> 0.20707468E+04</totfact>
</mgrwt>
</event>
<event>
 7    0  0.4705418E-002  0.4410731E+03  0.7546771E-02  0.1030418E+00
         21   -1    0    0  502  501  0.00000000000E+00  0.00000000000E+00  0.54201079015E+03  0.54201079015E+03  0.00000000000E+00 0. -1.
         21   -1    0    0  501  502 -0.00000000000E+00 -0.00000000000E+00 -0.89733220354E+02  0.89733220354E+02  0.00000000000E+00 0. -1.
      99926    2    1    2    0    0  0.14210854715E-13  0.00000000000E+00  0.45227756980E+03  0.63174401050E+03  0.44107311714E+03 0.  0.
      99925    2    3    3    0    0  0.66840622466E+02 -0.73001227306E+02  0.30294985592E+03  0.41324201456E+03  0.26304657268E+03 0.  0.
         25    1    3    3    0    0 -0.66840622466E+02  0.73001227306E+02  0.14932771388E+03  0.21850199595E+03  0.12509000000E+03 0.  0.
         25    1    4    4    0    0  0.30352770476E+00 -0.16561709148E+02  0.11081386944E+03  0.16793333230E+03  0.12509000000E+03 0.  0.
         25    1    4    4    0    0  0.66537094761E+02 -0.56439518158E+02  0.19213598648E+03  0.24530868225E+03  0.12509000000E+03 0.  0.
<mgrwt>
<rscale>  2 0.44107312E+03</rscale>
<asrwt>0</asrwt>
<pdfrwt beam="1">  1       21 0.79707468E-01 0.44107312E+03</pdfrwt>
<pdfrwt beam="2">  1       21 0.13196062E-01 0.44107312E+03</pdfrwt>
<totfact> 0.63458786E+04</totfact>
</mgrwt>
</event>
<event>
 7    0  0.4705418E-002  0.4526483E+03  0.7546771E-02  0.1026935E+00
         21   -1    0    0  502  501  0.00000000000E+00  0.00000000000E+00  0.17603787074E+03  0.17603787074E+03  0.00000000000E+00 0.  1.
         21   -1    0    0  501  502 -0.00000000000E+00 -0.00000000000E+00 -0.29097501298E+03  0.29097501298E+03  0.00000000000E+00 0.  1.
      99926    2    1    2    0    0 -0.88817841970E-15  0.17763568394E-14 -0.11493714224E+03  0.46701288372E+03  0.45264830376E+03 0.  0.
      99925    2    3    3    0    0  0.48392707087E+01 -0.81161760617E+01  0.41583886087E+02  0.26642467055E+03  0.26298972345E+03 0.  0.
         25    1    4    4    0    0  0.33026400241E+02  0.22162755197E+02  0.25182806550E+02  0.13365482661E+03  0.12509000000E+03 0.  0.
         25    1    4    4    0    0 -0.28187129532E+02 -0.30278931258E+02  0.16401079536E+02  0.13276984394E+03  0.12509000000E+03 0.  0.
         25    1    3    3    0    0 -0.48392707087E+01  0.81161760617E+01 -0.15652102833E+03  0.20058821318E+03  0.12509000000E+03 0.  0.
<mgrwt>
<rscale>  2 0.45264830E+03</rscale>
<asrwt>0</asrwt>
<pdfrwt beam="1">  1       21 0.25887922E-01 0.45264830E+03</pdfrwt>
<pdfrwt beam="2">  1       21 0.42790443E-01 0.45264830E+03</pdfrwt>
<totfact> 0.68935628E+04</totfact>
</mgrwt>
</event>
<event>
 7    0  0.4705418E-002  0.4580011E+03  0.7546771E-02  0.1025363E+00
         21   -1    0    0  502  501  0.00000000000E+00  0.00000000000E+00  0.62440507326E+03  0.62440507326E+03  0.00000000000E+00 0.  1.
         21   -1    0    0  501  502 -0.00000000000E+00 -0.00000000000E+00 -0.83985949711E+02  0.83985949711E+02  0.00000000000E+00 0.  1.
      99926    2    1    2    0    0  0.00000000000E+00  0.00000000000E+00  0.54041912355E+03  0.70839102297E+03  0.45800110516E+03 0.  0.
      99925    2    3    3    0    0 -0.88607239612E+02  0.64525167077E+02  0.39959330609E+03  0.49045947624E+03  0.26241369527E+03 0.  0.
         25    1    4    4    0    0 -0.11840020185E+02  0.55220866474E+02  0.19857832053E+03  0.24139260066E+03  0.12509000000E+03 0.  0.
         25    1    4    4    0    0 -0.76767219427E+02  0.93043006031E+01  0.20101498556E+03  0.24906687557E+03  0.12509000000E+03 0.  0.
         25    1    3    3    0    0  0.88607239612E+02 -0.64525167077E+02  0.14082581746E+03  0.21793154673E+03  0.12509000000E+03 0.  0.
<mgrwt>
<rscale>  2 0.45800111E+03</rscale>
<asrwt>0</asrwt>
<pdfrwt beam="1">  1       21 0.91824274E-01 0.45800111E+03</pdfrwt>
<pdfrwt beam="2">  1       21 0.12350875E-01 0.45800111E+03</pdfrwt>
<totfact> 0.51229319E+04</totfact>
</mgrwt>
</event>
<event>
 7    0  0.4705418E-002  0.4576945E+03  0.7546771E-02  0.1025452E+00
         21   -1    0    0  502  501  0.00000000000E+00  0.00000000000E+00  0.26828882500E+03  0.26828882500E+03  0.00000000000E+00 0.  1.
         21   -1    0    0  501  502 -0.00000000000E+00 -0.00000000000E+00 -0.19520404708E+03  0.19520404708E+03  0.00000000000E+00 0.  1.
      99926    2    1    2    0    0  0.00000000000E+00  0.71054273576E-14  0.73084777920E+02  0.46349287208E+03  0.45769450260E+03 0.  0.
      99925    2    3    3    0    0  0.86447103160E+02 -0.44326855509E+02 -0.17508501859E+02  0.28103021233E+03  0.26312252058E+03 0.  0.
         25    1    4    4    0    0  0.55489815339E+02  0.43735260899E+01 -0.37180145319E+02  0.14187360094E+03  0.12509000000E+03 0.  0.
         25    1    4    4    0    0  0.30957287821E+02 -0.48700381599E+02  0.19671643459E+02  0.13915661139E+03  0.12509000000E+03 0.  0.
         25    1    3    3    0    0 -0.86447103160E+02  0.44326855509E+02  0.90593279779E+02  0.18246265976E+03  0.12509000000E+03 0.  0.
<mgrwt>
<rscale>  2 0.45769450E+03</rscale>
<asrwt>0</asrwt>
<pdfrwt beam="1">  1       21 0.39454239E-01 0.45769450E+03</pdfrwt>
<pdfrwt beam="2">  1       21 0.28706477E-01 0.45769450E+03</pdfrwt>
<totfact> 0.66486529E+04</totfact>
</mgrwt>
</event>
<event>
 7    0  0.4705418E-002  0.4263785E+03  0.7546771E-02  0.1035010E+00
         21   -1    0    0  502  501  0.00000000000E+00  0.00000000000E+00  0.19039591401E+04  0.19039591401E+04  0.00000000000E+00 0.  1.
         21   -1    0    0  501  502 -0.00000000000E+00 -0.00000000000E+00 -0.23871135566E+02  0.23871135566E+02  0.00000000000E+00 0.  1.
      99926    2    1    2    0    0  0.00000000000E+00 -0.17763568394E-14  0.18800880046E+04  0.19278302757E+04  0.42637854893E+03 0.  0.
      99925    2    3    3    0    0  0.66638081965E+02  0.12759620131E+02  0.99612322191E+03  0.10324841488E+04  0.26298023200E+03 0.  0.
         25    1    4    4    0    0  0.38370024757E+02 -0.22744625176E+01  0.35181259285E+03  0.37536254551E+03  0.12509000000E+03 0.  0.
         25    1    3    3    0    0 -0.66638081965E+02 -0.12759620131E+02  0.88396478265E+03  0.89534612690E+03  0.12509000000E+03 0.  0.
         25    1    4    4    0    0  0.28268057208E+02  0.15034082648E+02  0.64431062905E+03  0.65712160329E+03  0.12509000000E+03 0.  0.
<mgrwt>
<rscale>  2 0.42637855E+03</rscale>
<asrwt>0</asrwt>
<pdfrwt beam="1">  1       21 0.27999389E+00 0.42637855E+03</pdfrwt>
<pdfrwt beam="2">  1       21 0.35104624E-02 0.42637855E+03</pdfrwt>
<totfact> 0.18758025E+04</totfact>
</mgrwt>
</event>
<event>
 7    0  0.4705418E-002  0.4568939E+03  0.7546771E-02  0.1025686E+00
         21   -1    0    0  502  501  0.00000000000E+00  0.00000000000E+00  0.82374618409E+02  0.82374618409E+02  0.00000000000E+00 0.  1.
         21   -1    0    0  501  502 -0.00000000000E+00 -0.00000000000E+00 -0.63354486396E+03  0.63354486396E+03  0.00000000000E+00 0.  1.
      99926    2    1    2    0    0  0.17763568394E-14  0.88817841970E-15 -0.55117024555E+03  0.71591948237E+03  0.45689393261E+03 0.  0.
      99925    2    3    3    0    0 -0.81233038225E+01  0.74435305239E+01 -0.52548034346E+03  0.58774431558E+03  0.26304447329E+03 0.  0.
         25    1    4    4    0    0  0.12159811984E+02  0.12176918491E+02 -0.34320471461E+03  0.36569539592E+03  0.12509000000E+03 0.  0.
         25    1    3    3    0    0  0.81233038225E+01 -0.74435305239E+01 -0.25689902095E+02  0.12817516679E+03  0.12509000000E+03 0.  0.
         25    1    4    4    0    0 -0.20283115807E+02 -0.47333879671E+01 -0.18227562885E+03  0.22204891966E+03  0.12509000000E+03 0.  0.
<mgrwt>
<rscale>  2 0.45689393E+03</rscale>
<asrwt>0</asrwt>
<pdfrwt beam="1">  1       21 0.12113914E-01 0.45689393E+03</pdfrwt>
<pdfrwt beam="2">  1       21 0.93168363E-01 0.45689393E+03</pdfrwt>
<totfact> 0.51278909E+04</totfact>
</mgrwt>
</event>
<event>
 7    0  0.4705418E-002  0.4563599E+03  0.7546771E-02  0.1025842E+00
         21   -1    0    0  502  501  0.00000000000E+00  0.00000000000E+00  0.24942152805E+03  0.24942152805E+03  0.00000000000E+00 0.  1.
         21   -1    0    0  501  502 -0.00000000000E+00 -0.00000000000E+00 -0.20874742109E+03  0.20874742109E+03  0.00000000000E+00 0.  1.
      99926    2    1    2    0    0  0.00000000000E+00 -0.14210854715E-13  0.40674106964E+02  0.45816894914E+03  0.45635994892E+03 0.  0.
      99925    2    3    3    0    0  0.27404510090E+02  0.11033194430E+03  0.14414646116E+02  0.28710985850E+03  0.26324920459E+03 0.  0.
         25    1    4    4    0    0  0.32381016599E+02  0.65832657802E+02 -0.27890062366E+02  0.14767475325E+03  0.12509000000E+03 0.  0.
         25    1    3    3    0    0 -0.27404510090E+02 -0.11033194430E+03  0.26259460849E+02  0.17105909064E+03  0.12509000000E+03 0.  0.
         25    1    4    4    0    0 -0.49765065094E+01  0.44499286498E+02  0.42304708482E+02  0.13943510525E+03  0.12509000000E+03 0.  0.
<mgrwt>
<rscale>  2 0.45635995E+03</rscale>
<asrwt>0</asrwt>
<pdfrwt beam="1">  1       21 0.36679636E-01 0.45635995E+03</pdfrwt>
<pdfrwt beam="2">  1       21 0.30698150E-01 0.45635995E+03</pdfrwt>
<totfact> 0.67578038E+04</totfact>
</mgrwt>
</event>
<event>
 7    0  0.4705418E-002  0.4543900E+03  0.7546771E-02  0.1026421E+00
         21   -1    0    0  502  501  0.00000000000E+00  0.00000000000E+00  0.22856929128E+03  0.22856929128E+03  0.00000000000E+00 0. -1.
         21   -1    0    0  501  502 -0.00000000000E+00 -0.00000000000E+00 -0.22582897977E+03  0.22582897977E+03  0.00000000000E+00 0. -1.
      99926    2    1    2    0    0  0.00000000000E+00  0.00000000000E+00  0.27403115054E+01  0.45439827105E+03  0.45439000806E+03 0.  0.
      99925    2    3    3    0    0  0.64526073674E+02 -0.49178895025E+02  0.79704939323E+02  0.28660899865E+03  0.26307729445E+03 0.  0.
         25    1    3    3    0    0 -0.64526073674E+02  0.49178895025E+02 -0.76964627818E+02  0.16778927241E+03  0.12509000000E+03 0.  0.
         25    1    4    4    0    0  0.66073049792E+02 -0.19348012981E+01  0.44813342926E+02  0.14840867619E+03  0.12509000000E+03 0.  0.
         25    1    4    4    0    0 -0.15469761181E+01 -0.47244093727E+02  0.34891596397E+02  0.13820032245E+03  0.12509000000E+03 0.  0.
<mgrwt>
<rscale>  2 0.45439001E+03</rscale>
<asrwt>0</asrwt>
<pdfrwt beam="1">  1       21 0.33613131E-01 0.45439001E+03</pdfrwt>
<pdfrwt beam="2">  1       21 0.33210144E-01 0.45439001E+03</pdfrwt>
<totfact> 0.68924748E+04</totfact>
</mgrwt>
</event>
<event>
 7    0  0.4705418E-002  0.4569518E+03  0.7546771E-02  0.1025669E+00
         21   -1    0    0  502  501  0.00000000000E+00  0.00000000000E+00  0.34566320974E+03  0.34566320974E+03  0.00000000000E+00 0. -1.
         21   -1    0    0  501  502 -0.00000000000E+00 -0.00000000000E+00 -0.15101759667E+03  0.15101759667E+03  0.00000000000E+00 0. -1.
      99926    2    1    2    0    0  0.71054273576E-14  0.14210854715E-13  0.19464561307E+03  0.49668080642E+03  0.45695175760E+03 0.  0.
      99925    2    3    3    0    0 -0.37857588245E+02  0.10738591508E+03  0.13930251976E+03  0.31870525241E+03  0.26306446769E+03 0.  0.
         25    1    4    4    0    0 -0.24867177840E+02  0.12851936217E+02  0.76690332359E+02  0.14937357188E+03  0.12509000000E+03 0.  0.
         25    1    4    4    0    0 -0.12990410405E+02  0.94533978861E+02  0.62612187400E+02  0.16933168053E+03  0.12509000000E+03 0.  0.
         25    1    3    3    0    0  0.37857588245E+02 -0.10738591508E+03  0.55343093315E+02  0.17797555400E+03  0.12509000000E+03 0.  0.
<mgrwt>
<rscale>  2 0.45695176E+03</rscale>
<asrwt>0</asrwt>
<pdfrwt beam="1">  1       21 0.50832825E-01 0.45695176E+03</pdfrwt>
<pdfrwt beam="2">  1       21 0.22208470E-01 0.45695176E+03</pdfrwt>
<totfact> 0.64499314E+04</totfact>
</mgrwt>
</event>
<event>
 7    0  0.4705418E-002  0.4596052E+03  0.7546771E-02  0.1024896E+00
         21   -1    0    0  502  501  0.00000000000E+00  0.00000000000E+00  0.33024329313E+03  0.33024329313E+03  0.00000000000E+00 0.  1.
         21   -1    0    0  501  502 -0.00000000000E+00 -0.00000000000E+00 -0.15991009855E+03  0.15991009855E+03  0.00000000000E+00 0.  1.
      99926    2    1    2    0    0  0.35527136788E-14  0.00000000000E+00  0.17033319458E+03  0.49015339168E+03  0.45960521124E+03 0.  0.
      99925    2    3    3    0    0  0.22753902081E+02  0.68501436937E+02  0.80084405947E+01  0.27288162458E+03  0.26304003305E+03 0.  0.
         25    1    4    4    0    0 -0.71137351593E+00  0.26187031323E+02  0.41984912898E+02  0.13452326071E+03  0.12509000000E+03 0.  0.
         25    1    3    3    0    0 -0.22753902081E+02 -0.68501436937E+02  0.16232475398E+03  0.21727176710E+03  0.12509000000E+03 0.  0.
         25    1    4    4    0    0  0.23465275597E+02  0.42314405615E+02 -0.33976472303E+02  0.13835836387E+03  0.12509000000E+03 0.  0.
<mgrwt>
<rscale>  2 0.45960521E+03</rscale>
<asrwt>0</asrwt>
<pdfrwt beam="1">  1       21 0.48565190E-01 0.45960521E+03</pdfrwt>
<pdfrwt beam="2">  1       21 0.23516191E-01 0.45960521E+03</pdfrwt>
<totfact> 0.63610580E+04</totfact>
</mgrwt>
</event>
<event>
 7    0  0.4705418E-002  0.4619346E+03  0.7546771E-02  0.1024222E+00
         21   -1    0    0  502  501  0.00000000000E+00  0.00000000000E+00  0.11753918236E+03  0.11753918236E+03  0.00000000000E+00 0. -1.
         21   -1    0    0  501  502 -0.00000000000E+00 -0.00000000000E+00 -0.45385627948E+03  0.45385627948E+03  0.00000000000E+00 0. -1.
      99926    2    1    2    0    0  0.00000000000E+00  0.00000000000E+00 -0.33631709711E+03  0.57139546184E+03  0.46193461009E+03 0.  0.
      99925    2    3    3    0    0  0.32975934731E+02 -0.93100233858E+02 -0.12655236180E+03  0.30794941784E+03  0.26279702787E+03 0.  0.
         25    1    4    4    0    0  0.16789170923E+02 -0.58141254499E+02 -0.10748881766E+03  0.17568049339E+03  0.12509000000E+03 0.  0.
         25    1    3    3    0    0 -0.32975934731E+02  0.93100233858E+02 -0.20976473532E+03  0.26344604400E+03  0.12509000000E+03 0.  0.
         25    1    4    4    0    0  0.16186763808E+02 -0.34958979359E+02 -0.19063544132E+02  0.13226892445E+03  0.12509000000E+03 0.  0.
<mgrwt>
<rscale>  2 0.46193461E+03</rscale>
<asrwt>0</asrwt>
<pdfrwt beam="1">  1       21 0.17285174E-01 0.46193461E+03</pdfrwt>
<pdfrwt beam="2">  1       21 0.66743570E-01 0.46193461E+03</pdfrwt>
<totfact> 0.57268787E+04</totfact>
</mgrwt>
</event>
<event>
 7    0  0.4705418E-002  0.4601277E+03  0.7546771E-02  0.1024744E+00
         21   -1    0    0  502  501  0.00000000000E+00  0.00000000000E+00  0.33930739880E+02  0.33930739880E+02  0.00000000000E+00 0.  1.
         21   -1    0    0  501  502 -0.00000000000E+00 -0.00000000000E+00 -0.15599241291E+04  0.15599241291E+04  0.00000000000E+00 0.  1.
      99926    2    1    2    0    0  0.00000000000E+00  0.00000000000E+00 -0.15259933892E+04  0.15938548690E+04  0.46012772078E+03 0.  0.
      99925    2    3    3    0    0 -0.17659281128E+02  0.70293126529E+02 -0.63392975723E+03  0.69015248132E+03  0.26304094077E+03 0.  0.
         25    1    3    3    0    0  0.17659281128E+02 -0.70293126529E+02 -0.89206363201E+03  0.90370238768E+03  0.12509000000E+03 0.  0.
         25    1    4    4    0    0  0.86225679722E+01  0.55933647091E+02 -0.24959051225E+03  0.28486111258E+03  0.12509000000E+03 0.  0.
         25    1    4    4    0    0 -0.26281849100E+02  0.14359479438E+02 -0.38433924498E+03  0.40529136874E+03  0.12509000000E+03 0.  0.
<mgrwt>
<rscale>  2 0.46012772E+03</rscale>
<asrwt>0</asrwt>
<pdfrwt beam="1">  1       21 0.49898160E-02 0.46012772E+03</pdfrwt>
<pdfrwt beam="2">  1       21 0.22940055E+00 0.46012772E+03</pdfrwt>
<totfact> 0.20731199E+04</totfact>
</mgrwt>
</event>
<event>
 7    0  0.4705418E-002  0.4563709E+03  0.7546771E-02  0.1025839E+00
         21   -1    0    0  502  501  0.00000000000E+00  0.00000000000E+00  0.45421126422E+02  0.45421126422E+02  0.00000000000E+00 0. -1.
         21   -1    0    0  501  502 -0.00000000000E+00 -0.00000000000E+00 -0.11463518150E+04  0.11463518150E+04  0.00000000000E+00 0. -1.
      99926    2    1    2    0    0  0.00000000000E+00  0.00000000000E+00 -0.11009306886E+04  0.11917729414E+04  0.45637086109E+03 0.  0.
      99925    2    3    3    0    0 -0.10352064091E+03  0.34776099318E+02 -0.59774503047E+03  0.66189633805E+03  0.26245331145E+03 0.  0.
         25    1    4    4    0    0 -0.50790856047E+02  0.30311337293E+02 -0.38877806934E+03  0.41266740061E+03  0.12509000000E+03 0.  0.
         25    1    3    3    0    0  0.10352064091E+03 -0.34776099318E+02 -0.50318565809E+03  0.52987660336E+03  0.12509000000E+03 0.  0.
         25    1    4    4    0    0 -0.52729784864E+02  0.44647620249E+01 -0.20896696114E+03  0.24922893744E+03  0.12509000000E+03 0.  0.
<mgrwt>
<rscale>  2 0.45637086E+03</rscale>
<asrwt>0</asrwt>
<pdfrwt beam="1">  1       21 0.66795778E-02 0.45637086E+03</pdfrwt>
<pdfrwt beam="2">  1       21 0.16858114E+00 0.45637086E+03</pdfrwt>
<totfact> 0.32073874E+04</totfact>
</mgrwt>
</event>
<event>
 7    0  0.4705418E-002  0.4614042E+03  0.7546771E-02  0.1024375E+00
         21   -1    0    0  502  501  0.00000000000E+00  0.00000000000E+00  0.28894056808E+03  0.28894056808E+03  0.00000000000E+00 0.  1.
         21   -1    0    0  501  502 -0.00000000000E+00 -0.00000000000E+00 -0.18420207996E+03  0.18420207996E+03  0.00000000000E+00 0.  1.
      99926    2    1    2    0    0  0.00000000000E+00  0.71054273576E-14  0.10473848811E+03  0.47314264804E+03  0.46140417694E+03 0.  0.
      99925    2    3    3    0    0  0.86117423610E+02 -0.57967507356E+02  0.12552980237E+03  0.30926394470E+03  0.26288783474E+03 0.  0.
         25    1    3    3    0    0 -0.86117423610E+02  0.57967507356E+02 -0.20791314259E+02  0.16387870334E+03  0.12509000000E+03 0.  0.
         25    1    4    4    0    0  0.23413324562E+02 -0.64127402179E+02  0.66848337608E+02  0.15740621277E+03  0.12509000000E+03 0.  0.
         25    1    4    4    0    0  0.62704099048E+02  0.61598948226E+01  0.58681464765E+02  0.15185773194E+03  0.12509000000E+03 0.  0.
<mgrwt>
<rscale>  2 0.46140418E+03</rscale>
<asrwt>0</asrwt>
<pdfrwt beam="1">  1       21 0.42491260E-01 0.46140418E+03</pdfrwt>
<pdfrwt beam="2">  1       21 0.27088541E-01 0.46140418E+03</pdfrwt>
<totfact> 0.63894702E+04</totfact>
</mgrwt>
</event>
<event>
 7    0  0.4705418E-002  0.4544951E+03  0.7546771E-02  0.1026390E+00
         21   -1    0    0  502  501  0.00000000000E+00  0.00000000000E+00  0.18365824343E+03  0.18365824343E+03  0.00000000000E+00 0.  1.
         21   -1    0    0  501  502 -0.00000000000E+00 -0.00000000000E+00 -0.28118227990E+03  0.28118227990E+03  0.00000000000E+00 0.  1.
      99926    2    1    2    0    0  0.71054273576E-14  0.00000000000E+00 -0.97524036467E+02  0.46484052332E+03  0.45449507636E+03 0.  0.
      99925    2    3    3    0    0 -0.40184768852E+02 -0.75562172014E+02  0.13610718165E+02  0.27689665065E+03  0.26298677915E+03 0.  0.
         25    1    4    4    0    0 -0.55263832954E+02 -0.39479923474E+02 -0.13782084187E+02  0.14300422908E+03  0.12509000000E+03 0.  0.
         25    1    3    3    0    0  0.40184768852E+02  0.75562172014E+02 -0.11113475463E+03  0.18794387267E+03  0.12509000000E+03 0.  0.
         25    1    4    4    0    0  0.15079064103E+02 -0.36082248540E+02  0.27392802352E+02  0.13389242157E+03  0.12509000000E+03 0.  0.
<mgrwt>
<rscale>  2 0.45449508E+03</rscale>
<asrwt>0</asrwt>
<pdfrwt beam="1">  1       21 0.27008566E-01 0.45449508E+03</pdfrwt>
<pdfrwt beam="2">  1       21 0.41350334E-01 0.45449508E+03</pdfrwt>
<totfact> 0.68094302E+04</totfact>
</mgrwt>
</event>
<event>
 7    0  0.4705418E-002  0.4523202E+03  0.7546771E-02  0.1027032E+00
         21   -1    0    0  502  501  0.00000000000E+00  0.00000000000E+00  0.20936265728E+03  0.20936265728E+03  0.00000000000E+00 0.  1.
         21   -1    0    0  501  502 -0.00000000000E+00 -0.00000000000E+00 -0.24430517954E+03  0.24430517954E+03  0.00000000000E+00 0.  1.
      99926    2    1    2    0    0 -0.17763568394E-14  0.00000000000E+00 -0.34942522256E+02  0.45366783682E+03  0.45232015907E+03 0.  0.
      99925    2    3    3    0    0  0.11183105849E+02 -0.10608517587E+03 -0.50333122928E+02  0.28855119597E+03  0.26334244443E+03 0.  0.
         25    1    3    3    0    0 -0.11183105849E+02  0.10608517587E+03  0.15390600672E+02  0.16511664085E+03  0.12509000000E+03 0.  0.
         25    1    4    4    0    0 -0.27567532697E+01 -0.96288625525E+02 -0.28299919156E+02  0.16039791962E+03  0.12509000000E+03 0.  0.
         25    1    4    4    0    0  0.13939859119E+02 -0.97965503473E+01 -0.22033203772E+02  0.12815327635E+03  0.12509000000E+03 0.  0.
<mgrwt>
<rscale>  2 0.45232016E+03</rscale>
<asrwt>0</asrwt>
<pdfrwt beam="1">  1       21 0.30788626E-01 0.45232016E+03</pdfrwt>
<pdfrwt beam="2">  1       21 0.35927232E-01 0.45232016E+03</pdfrwt>
<totfact> 0.70131099E+04</totfact>
</mgrwt>
</event>
<event>
 7    0  0.4705418E-002  0.4520664E+03  0.7546771E-02  0.1027108E+00
         21   -1    0    0  502  501  0.00000000000E+00  0.00000000000E+00  0.10695579747E+03  0.10695579747E+03  0.00000000000E+00 0. -1.
         21   -1    0    0  501  502 -0.00000000000E+00 -0.00000000000E+00 -0.47768348061E+03  0.47768348061E+03  0.00000000000E+00 0. -1.
      99926    2    1    2    0    0  0.14210854715E-13 -0.88817841970E-15 -0.37072768314E+03  0.58463927808E+03  0.45206644470E+03 0.  0.
      99925    2    3    3    0    0  0.10597381950E+03  0.46257564496E+01 -0.27408902734E+03  0.39427545290E+03  0.26282406627E+03 0.  0.
         25    1    4    4    0    0  0.53073322953E+02  0.18455292517E+02 -0.86007425271E+02  0.16187081495E+03  0.12509000000E+03 0.  0.
         25    1    3    3    0    0 -0.10597381950E+03 -0.46257564496E+01 -0.96638655793E+02  0.19036382518E+03  0.12509000000E+03 0.  0.
         25    1    4    4    0    0  0.52900496545E+02 -0.13829536067E+02 -0.18808160207E+03  0.23240463795E+03  0.12509000000E+03 0.  0.
<mgrwt>
<rscale>  2 0.45206644E+03</rscale>
<asrwt>0</asrwt>
<pdfrwt beam="1">  1       21 0.15728794E-01 0.45206644E+03</pdfrwt>
<pdfrwt beam="2">  1       21 0.70247570E-01 0.45206644E+03</pdfrwt>
<totfact> 0.61036960E+04</totfact>
</mgrwt>
</event>
<event>
 7    0  0.4705418E-002  0.4575799E+03  0.7546771E-02  0.1025485E+00
         21   -1    0    0  502  501  0.00000000000E+00  0.00000000000E+00  0.45171884503E+03  0.45171884503E+03  0.00000000000E+00 0.  1.
         21   -1    0    0  501  502 -0.00000000000E+00 -0.00000000000E+00 -0.11587923118E+03  0.11587923118E+03  0.00000000000E+00 0.  1.
      99926    2    1    2    0    0  0.00000000000E+00  0.00000000000E+00  0.33583961385E+03  0.56759807621E+03  0.45757986176E+03 0.  0.
      99925    2    3    3    0    0  0.81525467824E+02  0.80716061404E+02  0.19324588544E+03  0.34591820804E+03  0.26297138616E+03 0.  0.
         25    1    4    4    0    0  0.48850486068E+02  0.77091549229E+02  0.12881317267E+03  0.20141950875E+03  0.12509000000E+03 0.  0.
         25    1    3    3    0    0 -0.81525467824E+02 -0.80716061404E+02  0.14259372840E+03  0.22167986817E+03  0.12509000000E+03 0.  0.
         25    1    4    4    0    0  0.32674981756E+02  0.36245121747E+01  0.64432712777E+02  0.14449869929E+03  0.12509000000E+03 0.  0.
<mgrwt>
<rscale>  2 0.45757986E+03</rscale>
<asrwt>0</asrwt>
<pdfrwt beam="1">  1       21 0.66429241E-01 0.45757986E+03</pdfrwt>
<pdfrwt beam="2">  1       21 0.17041064E-01 0.45757986E+03</pdfrwt>
<totfact> 0.59495203E+04</totfact>
</mgrwt>
</event>
<event>
 7    0  0.4705418E-002  0.4553911E+03  0.7546771E-02  0.1026126E+00
         21   -1    0    0  502  501  0.00000000000E+00  0.00000000000E+00  0.34961856534E+03  0.34961856534E+03  0.00000000000E+00 0. -1.
         21   -1    0    0  501  502 -0.00000000000E+00 -0.00000000000E+00 -0.14829096377E+03  0.14829096377E+03  0.00000000000E+00 0. -1.
      99926    2    1    2    0    0  0.00000000000E+00  0.00000000000E+00  0.20132760157E+03  0.49790952911E+03  0.45539114619E+03 0.  0.
      99925    2    3    3    0    0 -0.50011814480E+01 -0.44744549652E+02  0.24055911852E+03  0.35929601404E+03  0.26305484154E+03 0.  0.
         25    1    4    4    0    0 -0.24601381724E+02 -0.48424271800E+02  0.94256094695E+02  0.16577652901E+03  0.12509000000E+03 0.  0.
         25    1    3    3    0    0  0.50011814480E+01  0.44744549652E+02 -0.39231516949E+02  0.13861351508E+03  0.12509000000E+03 0.  0.
         25    1    4    4    0    0  0.19600200276E+02  0.36797221474E+01  0.14630302383E+03  0.19351948503E+03  0.12509000000E+03 0.  0.
<mgrwt>
<rscale>  2 0.45539115E+03</rscale>
<asrwt>0</asrwt>
<pdfrwt beam="1">  1       21 0.51414495E-01 0.45539115E+03</pdfrwt>
<pdfrwt beam="2">  1       21 0.21807495E-01 0.45539115E+03</pdfrwt>
<totfact> 0.65215041E+04</totfact>
</mgrwt>
</event>
<event>
 7    0  0.4705418E-002  0.4580724E+03  0.7546771E-02  0.1025342E+00
         21   -1    0    0  502  501  0.00000000000E+00  0.00000000000E+00  0.68266960391E+02  0.68266960391E+02  0.00000000000E+00 0. -1.
         21   -1    0    0  501  502 -0.00000000000E+00 -0.00000000000E+00 -0.76841830001E+03  0.76841830001E+03  0.00000000000E+00 0. -1.
      99926    2    1    2    0    0  0.00000000000E+00  0.00000000000E+00 -0.70015133962E+03  0.83668526040E+03  0.45807240323E+03 0.  0.
      99925    2    3    3    0    0  0.84301409586E+02  0.65094593238E+02 -0.35656387776E+03  0.45583898462E+03  0.26326288620E+03 0.  0.
         25    1    4    4    0    0  0.71981084390E+02  0.49495560747E+02 -0.23565473792E+03  0.28073430615E+03  0.12509000000E+03 0.  0.
         25    1    4    4    0    0  0.12320325196E+02  0.15599032491E+02 -0.12090913984E+03  0.17510467848E+03  0.12509000000E+03 0.  0.
         25    1    3    3    0    0 -0.84301409586E+02 -0.65094593238E+02 -0.34358746186E+03  0.38084627578E+03  0.12509000000E+03 0.  0.
<mgrwt>
<rscale>  2 0.45807240E+03</rscale>
<asrwt>0</asrwt>
<pdfrwt beam="1">  1       21 0.10039259E-01 0.45807240E+03</pdfrwt>
<pdfrwt beam="2">  1       21 0.11300269E+00 0.45807240E+03</pdfrwt>
<totfact> 0.44947695E+04</totfact>
</mgrwt>
</event>
<event>
 7    0  0.4705418E-002  0.4555531E+03  0.7546771E-02  0.1026079E+00
         21   -1    0    0  502  501  0.00000000000E+00  0.00000000000E+00  0.31841279370E+03  0.31841279370E+03  0.00000000000E+00 0. -1.
         21   -1    0    0  501  502 -0.00000000000E+00 -0.00000000000E+00 -0.16293991581E+03  0.16293991581E+03  0.00000000000E+00 0. -1.
      99926    2    1    2    0    0  0.00000000000E+00  0.71054273576E-14  0.15547287789E+03  0.48135270951E+03  0.45555308713E+03 0.  0.
      99925    2    3    3    0    0  0.54073727605E+02  0.51682228617E+02  0.72008274749E+01  0.27344135867E+03  0.26291311102E+03 0.  0.
         25    1    4    4    0    0  0.65340642328E+02  0.35812093198E+02  0.16354325716E+02  0.14651579310E+03  0.12509000000E+03 0.  0.
         25    1    4    4    0    0 -0.11266914723E+02  0.15870135419E+02 -0.91534982414E+01  0.12692556557E+03  0.12509000000E+03 0.  0.
         25    1    3    3    0    0 -0.54073727605E+02 -0.51682228617E+02  0.14827205041E+03  0.20791135083E+03  0.12509000000E+03 0.  0.
<mgrwt>
<rscale>  2 0.45555309E+03</rscale>
<asrwt>0</asrwt>
<pdfrwt beam="1">  1       21 0.46825411E-01 0.45555309E+03</pdfrwt>
<pdfrwt beam="2">  1       21 0.23961752E-01 0.45555309E+03</pdfrwt>
<totfact> 0.66310168E+04</totfact>
</mgrwt>
</event>
<event>
 6    0  0.4705418E-002  0.4530159E+03  0.7546771E-02  0.1026826E+00
         21   -1    0    0  502  501  0.00000000000E+00  0.00000000000E+00  0.73110203899E+03  0.73110203899E+03  0.00000000000E+00 0. -1.
         21   -1    0    0  501  502 -0.00000000000E+00 -0.00000000000E+00 -0.70176048571E+02  0.70176048571E+02  0.00000000000E+00 0. -1.
      99926    2    1    2    0    0  0.00000000000E+00 -0.71054273576E-14  0.66092599042E+03  0.80127808756E+03  0.45301590347E+03 0.  0.
         25    1    3    3    0    0 -0.43162448171E+02 -0.35966196994E+02  0.77709363011E+02  0.15761604442E+03  0.12509000000E+03 0.  0.
         25    1    3    3    0    0  0.86974066915E+01 -0.34311551764E+01  0.37279033769E+03  0.39332882132E+03  0.12509000000E+03 0.  0.
         25    1    3    3    0    0  0.34465041480E+02  0.39397352171E+02  0.21042628972E+03  0.25033322182E+03  0.12509000000E+03 0.  0.
<mgrwt>
<rscale>  2 0.45301590E+03</rscale>
<asrwt>0</asrwt>
<pdfrwt beam="1">  1       21 0.10751500E+00 0.45301590E+03</pdfrwt>
<pdfrwt beam="2">  1       21 0.10320008E-01 0.45301590E+03</pdfrwt>
<totfact> 0.48453104E+04</totfact>
</mgrwt>
</event>
<event>
 7    0  0.4705418E-002  0.4569618E+03  0.7546771E-02  0.1025666E+00
         21   -1    0    0  502  501  0.00000000000E+00  0.00000000000E+00  0.94766971031E+03  0.94766971031E+03  0.00000000000E+00 0.  1.
         21   -1    0    0  501  502 -0.00000000000E+00 -0.00000000000E+00 -0.55086206888E+02  0.55086206888E+02  0.00000000000E+00 0.  1.
      99926    2    1    2    0    0  0.00000000000E+00  0.35527136788E-14  0.89258350342E+03  0.10027559172E+04  0.45696183527E+03 0.  0.
      99925    2    3    3    0    0 -0.80007799915E+02  0.20195474885E+02  0.38499058209E+03  0.47350438235E+03  0.26302004972E+03 0.  0.
         25    1    4    4    0    0 -0.13978603796E+02 -0.21257686111E-01  0.12834537834E+03  0.17976497450E+03  0.12509000000E+03 0.  0.
         25    1    4    4    0    0 -0.66029196119E+02  0.20216732572E+02  0.25664520375E+03  0.29373940785E+03  0.12509000000E+03 0.  0.
         25    1    3    3    0    0  0.80007799915E+02 -0.20195474885E+02  0.50759292133E+03  0.52925153485E+03  0.12509000000E+03 0.  0.
<mgrwt>
<rscale>  2 0.45696184E+03</rscale>
<asrwt>0</asrwt>
<pdfrwt beam="1">  1       21 0.13936318E+00 0.45696184E+03</pdfrwt>
<pdfrwt beam="2">  1       21 0.81009134E-02 0.45696184E+03</pdfrwt>
<totfact> 0.38467036E+04</totfact>
</mgrwt>
</event>
<event>
 7    0  0.4705418E-002  0.4251984E+03  0.7546771E-02  0.1035388E+00
         21   -1    0    0  502  501  0.00000000000E+00  0.00000000000E+00  0.21822763416E+03  0.21822763416E+03  0.00000000000E+00 0.  1.
         21   -1    0    0  501  502 -0.00000000000E+00 -0.00000000000E+00 -0.20711590814E+03  0.20711590814E+03  0.00000000000E+00 0.  1.
      99926    2    1    2    0    0  0.00000000000E+00  0.00000000000E+00  0.11111726016E+02  0.42534354229E+03  0.42519837549E+03 0.  0.
      99925    2    3    3    0    0 -0.55852308429E+02  0.18806339697E+02  0.64439738051E+02  0.27713914379E+03  0.26302179835E+03 0.  0.
         25    1    4    4    0    0 -0.44533056910E+02  0.16554752914E+02 -0.44223196770E+01  0.13388173144E+03  0.12509000000E+03 0.  0.
         25    1    4    4    0    0 -0.11319251518E+02  0.22515867833E+01  0.68862057728E+02  0.14325741235E+03  0.12509000000E+03 0.  0.
         25    1    3    3    0    0  0.55852308429E+02 -0.18806339697E+02 -0.53328012035E+02  0.14820439851E+03  0.12509000000E+03 0.  0.
<mgrwt>
<rscale>  2 0.42519838E+03</rscale>
<asrwt>0</asrwt>
<pdfrwt beam="1">  1       21 0.32092299E-01 0.42519838E+03</pdfrwt>
<pdfrwt beam="2">  1       21 0.30458222E-01 0.42519838E+03</pdfrwt>
<totfact> 0.90442916E+04</totfact>
</mgrwt>
</event>
<event>
 7    0  0.4705418E-002  0.4548750E+03  0.7546771E-02  0.1026278E+00
         21   -1    0    0  502  501  0.00000000000E+00  0.00000000000E+00  0.61149195747E+02  0.61149195747E+02  0.00000000000E+00 0.  1.
         21   -1    0    0  501  502 -0.00000000000E+00 -0.00000000000E+00 -0.84592785622E+03  0.84592785622E+03  0.00000000000E+00 0.  1.
      99926    2    1    2    0    0 -0.14210854715E-13  0.00000000000E+00 -0.78477866048E+03  0.90707705197E+03  0.45487496334E+03 0.  0.
      99925    2    3    3    0    0 -0.10949320367E+03  0.10402281580E+02 -0.55475342472E+03  0.62307690004E+03  0.26148899023E+03 0.  0.
         25    1    3    3    0    0  0.10949320367E+03 -0.10402281580E+02 -0.23002523575E+03  0.28400015193E+03  0.12509000000E+03 0.  0.
         25    1    4    4    0    0 -0.88843568270E+02  0.21246605818E+02 -0.33651385017E+03  0.37045064090E+03  0.12509000000E+03 0.  0.
         25    1    4    4    0    0 -0.20649635401E+02 -0.10844324237E+02 -0.21823957455E+03  0.25262625914E+03  0.12509000000E+03 0.  0.
<mgrwt>
<rscale>  2 0.45487496E+03</rscale>
<asrwt>0</asrwt>
<pdfrwt beam="1">  1       21 0.89925288E-02 0.45487496E+03</pdfrwt>
<pdfrwt beam="2">  1       21 0.12440116E+00 0.45487496E+03</pdfrwt>
<totfact> 0.42971194E+04</totfact>
</mgrwt>
</event>
<event>
 7    0  0.4705418E-002  0.4461340E+03  0.7546771E-02  0.1028881E+00
         21   -1    0    0  502  501  0.00000000000E+00  0.00000000000E+00  0.17847888039E+03  0.17847888039E+03  0.00000000000E+00 0. -1.
         21   -1    0    0  501  502 -0.00000000000E+00 -0.00000000000E+00 -0.27879429510E+03  0.27879429510E+03  0.00000000000E+00 0. -1.
      99926    2    1    2    0    0  0.00000000000E+00  0.00000000000E+00 -0.10031541471E+03  0.45727317549E+03  0.44613403209E+03 0.  0.
      99925    2    3    3    0    0  0.93497728496E+02 -0.13765856861E+02 -0.10997324569E+03  0.30019960722E+03  0.26285807075E+03 0.  0.
         25    1    4    4    0    0  0.10238119787E+02 -0.78547103966E+01 -0.72744724678E+02  0.14527841767E+03  0.12509000000E+03 0.  0.
         25    1    3    3    0    0 -0.93497728496E+02  0.13765856861E+02  0.96578309784E+01  0.15707356827E+03  0.12509000000E+03 0.  0.
         25    1    4    4    0    0  0.83259608709E+02 -0.59111464645E+01 -0.37228521010E+02  0.15492118955E+03  0.12509000000E+03 0.  0.
<mgrwt>
<rscale>  2 0.44613403E+03</rscale>
<asrwt>0</asrwt>
<pdfrwt beam="1">  1       21 0.26246894E-01 0.44613403E+03</pdfrwt>
<pdfrwt beam="2">  1       21 0.40999161E-01 0.44613403E+03</pdfrwt>
<totfact> 0.73423589E+04</totfact>
</mgrwt>
</event>
<event>
 7    0  0.4705418E-002  0.4532555E+03  0.7546771E-02  0.1026756E+00
         21   -1    0    0  502  501  0.00000000000E+00  0.00000000000E+00  0.42546274128E+03  0.42546274128E+03  0.00000000000E+00 0.  1.
         21   -1    0    0  501  502 -0.00000000000E+00 -0.00000000000E+00 -0.12071594785E+03  0.12071594785E+03  0.00000000000E+00 0.  1.
      99926    2    1    2    0    0  0.00000000000E+00  0.00000000000E+00  0.30474679343E+03  0.54617868913E+03  0.45325550449E+03 0.  0.
      99925    2    3    3    0    0 -0.17421372751E+02 -0.96051221601E+02  0.12718899961E+03  0.30805347071E+03  0.26304098121E+03 0.  0.
         25    1    4    4    0    0 -0.13132079236E+02 -0.74407946721E+01  0.71691496288E+02  0.14496549821E+03  0.12509000000E+03 0.  0.
         25    1    4    4    0    0 -0.42892935149E+01 -0.88610426929E+02  0.55497503318E+02  0.16308797250E+03  0.12509000000E+03 0.  0.
         25    1    3    3    0    0  0.17421372751E+02  0.96051221601E+02  0.17755779383E+03  0.23812521842E+03  0.12509000000E+03 0.  0.
<mgrwt>
<rscale>  2 0.45325550E+03</rscale>
<asrwt>0</asrwt>
<pdfrwt beam="1">  1       21 0.62568050E-01 0.45325550E+03</pdfrwt>
<pdfrwt beam="2">  1       21 0.17752345E-01 0.45325550E+03</pdfrwt>
<totfact> 0.62984657E+04</totfact>
</mgrwt>
</event>
<event>
 7    0  0.4705418E-002  0.4513638E+03  0.7546771E-02  0.1027316E+00
         21   -1    0    0  502  501  0.00000000000E+00  0.00000000000E+00  0.20193163709E+03  0.20193163709E+03  0.00000000000E+00 0. -1.
         21   -1    0    0  501  502 -0.00000000000E+00 -0.00000000000E+00 -0.25222556296E+03  0.25222556296E+03  0.00000000000E+00 0. -1.
      99926    2    1    2    0    0  0.00000000000E+00  0.00000000000E+00 -0.50293925870E+02  0.45415720006E+03  0.45136380381E+03 0.  0.
      99925    2    3    3    0    0  0.82258597578E+02 -0.48495785297E+02 -0.86141419297E+02  0.29275438425E+03  0.26299518496E+03 0.  0.
         25    1    4    4    0    0  0.18209015515E+02 -0.32961024491E+02 -0.75690062980E+02  0.15097844586E+03  0.12509000000E+03 0.  0.
         25    1    4    4    0    0  0.64049582063E+02 -0.15534760806E+02 -0.10451356318E+02  0.14177593838E+03  0.12509000000E+03 0.  0.
         25    1    3    3    0    0 -0.82258597578E+02  0.48495785297E+02  0.35847493427E+02  0.16140281581E+03  0.12509000000E+03 0.  0.
<mgrwt>
<rscale>  2 0.45136380E+03</rscale>
<asrwt>0</asrwt>
<pdfrwt beam="1">  1       21 0.29695829E-01 0.45136380E+03</pdfrwt>
<pdfrwt beam="2">  1       21 0.37091994E-01 0.45136380E+03</pdfrwt>
<totfact> 0.70634580E+04</totfact>
</mgrwt>
</event>
<event>
 7    0  0.4705418E-002  0.4543356E+03  0.7546771E-02  0.1026437E+00
         21   -1    0    0  502  501  0.00000000000E+00  0.00000000000E+00  0.61862401204E+02  0.61862401204E+02  0.00000000000E+00 0. -1.
         21   -1    0    0  501  502 -0.00000000000E+00 -0.00000000000E+00 -0.83419350681E+03  0.83419350681E+03  0.00000000000E+00 0. -1.
      99926    2    1    2    0    0  0.00000000000E+00  0.00000000000E+00 -0.77233110561E+03  0.89605590801E+03  0.45433561780E+03 0.  0.
      99925    2    3    3    0    0  0.57774337269E+02 -0.34482165866E+02 -0.30880107535E+03  0.41125234897E+03  0.26314159038E+03 0.  0.
         25    1    3    3    0    0 -0.57774337269E+02  0.34482165866E+02 -0.46353003026E+03  0.48480355904E+03  0.12509000000E+03 0.  0.
         25    1    4    4    0    0  0.48129002993E+02 -0.24339934734E+02 -0.10616861501E+03  0.17270818239E+03  0.12509000000E+03 0.  0.
         25    1    4    4    0    0  0.96453342765E+01 -0.10142231132E+02 -0.20263246034E+03  0.23854416658E+03  0.12509000000E+03 0.  0.
<mgrwt>
<rscale>  2 0.45433562E+03</rscale>
<asrwt>0</asrwt>
<pdfrwt beam="1">  1       21 0.90974127E-02 0.45433562E+03</pdfrwt>
<pdfrwt beam="2">  1       21 0.12267551E+00 0.45433562E+03</pdfrwt>
<totfact> 0.43631183E+04</totfact>
</mgrwt>
</event>
<event>
 7    0  0.4705418E-002  0.4333901E+03  0.7546771E-02  0.1032794E+00
         21   -1    0    0  502  501  0.00000000000E+00  0.00000000000E+00  0.18049037363E+03  0.18049037363E+03  0.00000000000E+00 0.  1.
         21   -1    0    0  501  502 -0.00000000000E+00 -0.00000000000E+00 -0.26016201767E+03  0.26016201767E+03  0.00000000000E+00 0.  1.
      99926    2    1    2    0    0  0.00000000000E+00  0.00000000000E+00 -0.79671644037E+02  0.44065239130E+03  0.43339007730E+03 0.  0.
      99925    2    3    3    0    0  0.71028878626E+02  0.43969543731E+02 -0.13595194204E+02  0.27635988479E+03  0.26308085115E+03 0.  0.
         25    1    3    3    0    0 -0.71028878626E+02 -0.43969543731E+02 -0.66076449833E+02  0.16429250652E+03  0.12509000000E+03 0.  0.
         25    1    4    4    0    0  0.59642206339E+02 -0.71756158195E+01 -0.21904237719E+02  0.14048482469E+03  0.12509000000E+03 0.  0.
         25    1    4    4    0    0  0.11386672287E+02  0.51145159551E+02  0.83090435149E+01  0.13587506009E+03  0.12509000000E+03 0.  0.
<mgrwt>
<rscale>  2 0.43339008E+03</rscale>
<asrwt>0</asrwt>
<pdfrwt beam="1">  1       21 0.26542702E-01 0.43339008E+03</pdfrwt>
<pdfrwt beam="2">  1       21 0.38259120E-01 0.43339008E+03</pdfrwt>
<totfact> 0.83021268E+04</totfact>
</mgrwt>
</event>
<event>
 7    0  0.4705418E-002  0.4400103E+03  0.7546771E-02  0.1030744E+00
         21   -1    0    0  502  501  0.00000000000E+00  0.00000000000E+00  0.39597361340E+03  0.39597361340E+03  0.00000000000E+00 0. -1.
         21   -1    0    0  501  502 -0.00000000000E+00 -0.00000000000E+00 -0.12223607547E+03  0.12223607547E+03  0.00000000000E+00 0. -1.
      99926    2    1    2    0    0  0.14210854715E-13 -0.14210854715E-13  0.27373753792E+03  0.51820968887E+03  0.44001027484E+03 0.  0.
      99925    2    3    3    0    0  0.69714154951E+02 -0.67452255803E+02  0.19425055444E+03  0.34107821550E+03  0.26304220379E+03 0.  0.
         25    1    4    4    0    0 -0.61852708048E+01 -0.39936877548E+02  0.93242522494E+02  0.16116726673E+03  0.12509000000E+03 0.  0.
         25    1    4    4    0    0  0.75899425756E+02 -0.27515378255E+02  0.10100803195E+03  0.17991094877E+03  0.12509000000E+03 0.  0.
         25    1    3    3    0    0 -0.69714154951E+02  0.67452255803E+02  0.79486983484E+02  0.17713147337E+03  0.12509000000E+03 0.  0.
<mgrwt>
<rscale>  2 0.44001027E+03</rscale>
<asrwt>0</asrwt>
<pdfrwt beam="1">  1       21 0.58231414E-01 0.44001027E+03</pdfrwt>
<pdfrwt beam="2">  1       21 0.17975894E-01 0.44001027E+03</pdfrwt>
<totfact> 0.72214469E+04</totfact>
</mgrwt>
</event>
<event>
 7    0  0.4705418E-002  0.4349714E+03  0.7546771E-02  0.1032301E+00
         21   -1    0    0  502  501  0.00000000000E+00  0.00000000000E+00  0.11036844006E+03  0.11036844006E+03  0.00000000000E+00 0. -1.
         21   -1    0    0  501  502 -0.00000000000E+00 -0.00000000000E+00 -0.42856472005E+03  0.42856472005E+03  0.00000000000E+00 0. -1.
      99926    2    1    2    0    0  0.00000000000E+00  0.00000000000E+00 -0.31819627999E+03  0.53893316011E+03  0.43497135361E+03 0.  0.
      99925    2    3    3    0    0 -0.62336043119E+02 -0.66789765505E+02 -0.22695181357E+03  0.35915631009E+03  0.26294386159E+03 0.  0.
         25    1    4    4    0    0 -0.60489951839E+02 -0.64402585848E+02 -0.12941677321E+03  0.20050669970E+03  0.12509000000E+03 0.  0.
         25    1    4    4    0    0 -0.18460912800E+01 -0.23871796575E+01 -0.97535040355E+02  0.15864961039E+03  0.12509000000E+03 0.  0.
         25    1    3    3    0    0  0.62336043119E+02  0.66789765505E+02 -0.91244466424E+02  0.17977685001E+03  0.12509000000E+03 0.  0.
<mgrwt>
<rscale>  2 0.43497135E+03</rscale>
<asrwt>0</asrwt>
<pdfrwt beam="1">  1       21 0.16230653E-01 0.43497135E+03</pdfrwt>
<pdfrwt beam="2">  1       21 0.63024224E-01 0.43497135E+03</pdfrwt>
<totfact> 0.73593402E+04</totfact>
</mgrwt>
</event>
<event>
 7    0  0.4705418E-002  0.4569840E+03  0.7546771E-02  0.1025660E+00
         21   -1    0    0  502  501  0.00000000000E+00  0.00000000000E+00  0.78797537642E+02  0.78797537642E+02  0.00000000000E+00 0. -1.
         21   -1    0    0  501  502 -0.00000000000E+00 -0.00000000000E+00 -0.66256633649E+03  0.66256633649E+03  0.00000000000E+00 0. -1.
      99926    2    1    2    0    0  0.35527136788E-14  0.00000000000E+00 -0.58376879885E+03  0.74136387413E+03  0.45698400777E+03 0.  0.
      99925    2    3    3    0    0 -0.24732046154E+02  0.81050374671E+02 -0.24215818222E+03  0.36783186903E+03  0.26358843169E+03 0.  0.
         25    1    3    3    0    0  0.24732046154E+02 -0.81050374671E+02 -0.34161061663E+03  0.37353200510E+03  0.12509000000E+03 0.  0.
         25    1    4    4    0    0  0.20874345604E+01  0.78996005134E+02 -0.14510418249E+03  0.20723768500E+03  0.12509000000E+03 0.  0.
         25    1    4    4    0    0 -0.26819480715E+02  0.20543695367E+01 -0.97053999733E+02  0.16059418403E+03  0.12509000000E+03 0.  0.
<mgrwt>
<rscale>  2 0.45698401E+03</rscale>
<asrwt>0</asrwt>
<pdfrwt beam="1">  1       21 0.11587873E-01 0.45698401E+03</pdfrwt>
<pdfrwt beam="2">  1       21 0.97436227E-01 0.45698401E+03</pdfrwt>
<totfact> 0.49930710E+04</totfact>
</mgrwt>
</event>
<event>
 7    0  0.4705418E-002  0.4552142E+03  0.7546771E-02  0.1026178E+00
         21   -1    0    0  502  501  0.00000000000E+00  0.00000000000E+00  0.27894963460E+03  0.27894963460E+03  0.00000000000E+00 0.  1.
         21   -1    0    0  501  502 -0.00000000000E+00 -0.00000000000E+00 -0.18571452116E+03  0.18571452116E+03  0.00000000000E+00 0.  1.
      99926    2    1    2    0    0  0.00000000000E+00  0.00000000000E+00  0.93235113441E+02  0.46466415576E+03  0.45521422569E+03 0.  0.
      99925    2    3    3    0    0 -0.55780832994E+02 -0.96760529902E+02  0.78514276506E+02  0.29632428343E+03  0.26300092748E+03 0.  0.
         25    1    4    4    0    0 -0.23466194109E+02 -0.20760887386E+02  0.42031920371E+01  0.12902267876E+03  0.12509000000E+03 0.  0.
         25    1    3    3    0    0  0.55780832994E+02  0.96760529902E+02  0.14720836934E+02  0.16833987233E+03  0.12509000000E+03 0.  0.
         25    1    4    4    0    0 -0.32314638885E+02 -0.75999642515E+02  0.74311084469E+02  0.16730160467E+03  0.12509000000E+03 0.  0.
<mgrwt>
<rscale>  2 0.45521423E+03</rscale>
<asrwt>0</asrwt>
<pdfrwt beam="1">  1       21 0.41022005E-01 0.45521423E+03</pdfrwt>
<pdfrwt beam="2">  1       21 0.27310959E-01 0.45521423E+03</pdfrwt>
<totfact> 0.67719812E+04</totfact>
</mgrwt>
</event>
<event>
 7    0  0.4705418E-002  0.4596411E+03  0.7546771E-02  0.1024885E+00
         21   -1    0    0  502  501  0.00000000000E+00  0.00000000000E+00  0.40643962666E+03  0.40643962666E+03  0.00000000000E+00 0. -1.
         21   -1    0    0  501  502 -0.00000000000E+00 -0.00000000000E+00 -0.12995160768E+03  0.12995160768E+03  0.00000000000E+00 0. -1.
      99926    2    1    2    0    0  0.00000000000E+00  0.00000000000E+00  0.27648801898E+03  0.53639123434E+03  0.45964109002E+03 0.  0.
      99925    2    3    3    0    0 -0.33062643031E+02  0.10781721024E+03  0.13506075995E+03  0.31646654977E+03  0.26304368279E+03 0.  0.
         25    1    3    3    0    0  0.33062643031E+02 -0.10781721024E+03  0.14142725904E+03  0.21992468458E+03  0.12509000000E+03 0.  0.
         25    1    4    4    0    0  0.10751775220E+00  0.67696791034E+02  0.10728690722E+03  0.17815963526E+03  0.12509000000E+03 0.  0.
         25    1    4    4    0    0 -0.33170160783E+02  0.40120419207E+02  0.27773852726E+02  0.13830691450E+03  0.12509000000E+03 0.  0.
<mgrwt>
<rscale>  2 0.45964109E+03</rscale>
<asrwt>0</asrwt>
<pdfrwt beam="1">  1       21 0.59770533E-01 0.45964109E+03</pdfrwt>
<pdfrwt beam="2">  1       21 0.19110531E-01 0.45964109E+03</pdfrwt>
<totfact> 0.60519079E+04</totfact>
</mgrwt>
</event>
<event>
 7    0  0.4705418E-002  0.4565623E+03  0.7546771E-02  0.1025783E+00
         21   -1    0    0  502  501  0.00000000000E+00  0.00000000000E+00  0.33781745639E+03  0.33781745639E+03  0.00000000000E+00 0. -1.
         21   -1    0    0  501  502 -0.00000000000E+00 -0.00000000000E+00 -0.15426167917E+03  0.15426167917E+03  0.00000000000E+00 0. -1.
      99926    2    1    2    0    0 -0.35527136788E-14  0.35527136788E-14  0.18355577721E+03  0.49207913556E+03  0.45656232028E+03 0.  0.
      99925    2    3    3    0    0  0.19160963939E+02 -0.17066597892E+02 -0.51142641688E+01  0.26425836408E+03  0.26295991327E+03 0.  0.
         25    1    3    3    0    0 -0.19160963939E+02  0.17066597892E+02  0.18867004138E+03  0.22782077148E+03  0.12509000000E+03 0.  0.
         25    1    4    4    0    0  0.28798228042E+02  0.20000322545E+02 -0.23910887676E+02  0.13209310917E+03  0.12509000000E+03 0.  0.
         25    1    4    4    0    0 -0.96372641033E+01 -0.37066920437E+02  0.18796623508E+02  0.13216525491E+03  0.12509000000E+03 0.  0.
<mgrwt>
<rscale>  2 0.45656232E+03</rscale>
<asrwt>0</asrwt>
<pdfrwt beam="1">  1       21 0.49679038E-01 0.45656232E+03</pdfrwt>
<pdfrwt beam="2">  1       21 0.22685541E-01 0.45656232E+03</pdfrwt>
<totfact> 0.65020598E+04</totfact>
</mgrwt>
</event>
<event>
 7    0  0.4705418E-002  0.4551687E+03  0.7546771E-02  0.1026192E+00
         21   -1    0    0  502  501  0.00000000000E+00  0.00000000000E+00  0.32264816729E+03  0.32264816729E+03  0.00000000000E+00 0. -1.
         21   -1    0    0  501  502 -0.00000000000E+00 -0.00000000000E+00 -0.16052980293E+03  0.16052980293E+03  0.00000000000E+00 0. -1.
      99926    2    1    2    0    0  0.00000000000E+00  0.00000000000E+00  0.16211836435E+03  0.48317797022E+03  0.45516874546E+03 0.  0.
      99925    2    3    3    0    0  0.75516913198E+02 -0.72018130528E+02  0.14854584561E+03  0.31971195948E+03  0.26317380850E+03 0.  0.
         25    1    4    4    0    0  0.69101776352E+02 -0.29221410564E+02  0.10727002584E+03  0.18106162728E+03  0.12509000000E+03 0.  0.
         25    1    3    3    0    0 -0.75516913198E+02  0.72018130528E+02  0.13572518747E+02  0.16346601075E+03  0.12509000000E+03 0.  0.
         25    1    4    4    0    0  0.64151368464E+01 -0.42796719964E+02  0.41275819771E+02  0.13865033220E+03  0.12509000000E+03 0.  0.
<mgrwt>
<rscale>  2 0.45516875E+03</rscale>
<asrwt>0</asrwt>
<pdfrwt beam="1">  1       21 0.47448260E-01 0.45516875E+03</pdfrwt>
<pdfrwt beam="2">  1       21 0.23607324E-01 0.45516875E+03</pdfrwt>
<totfact> 0.66380526E+04</totfact>
</mgrwt>
</event>
<event>
 7    0  0.4705418E-002  0.4488670E+03  0.7546771E-02  0.1028060E+00
         21   -1    0    0  502  501  0.00000000000E+00  0.00000000000E+00  0.26342432503E+02  0.26342432503E+02  0.00000000000E+00 0. -1.
         21   -1    0    0  501  502 -0.00000000000E+00 -0.00000000000E+00 -0.19121388313E+04  0.19121388313E+04  0.00000000000E+00 0. -1.
      99926    2    1    2    0    0  0.00000000000E+00  0.71054273576E-14 -0.18857963988E+04  0.19384812638E+04  0.44886696515E+03 0.  0.
      99925    2    3    3    0    0 -0.71135321613E+02  0.63756197666E+02 -0.98165857872E+03  0.10207461209E+04  0.26295245091E+03 0.  0.
         25    1    4    4    0    0 -0.51606661060E+02  0.66095317260E+02 -0.46409957324E+03  0.48792187941E+03  0.12509000000E+03 0.  0.
         25    1    4    4    0    0 -0.19528660553E+02 -0.23391195945E+01 -0.51755900548E+03  0.53282424149E+03  0.12509000000E+03 0.  0.
         25    1    3    3    0    0  0.71135321613E+02 -0.63756197666E+02 -0.90413782008E+03  0.91773514290E+03  0.12509000000E+03 0.  0.
<mgrwt>
<rscale>  2 0.44886697E+03</rscale>
<asrwt>0</asrwt>
<pdfrwt beam="1">  1       21 0.38738872E-02 0.44886697E+03</pdfrwt>
<pdfrwt beam="2">  1       21 0.28119688E+00 0.44886697E+03</pdfrwt>
<totfact> 0.15463456E+04</totfact>
</mgrwt>
</event>
<event>
 7    0  0.4705418E-002  0.4523069E+03  0.7546771E-02  0.1027036E+00
         21   -1    0    0  502  501  0.00000000000E+00  0.00000000000E+00  0.59729056661E+03  0.59729056661E+03  0.00000000000E+00 0. -1.
         21   -1    0    0  501  502 -0.00000000000E+00 -0.00000000000E+00 -0.85628970590E+02  0.85628970590E+02  0.00000000000E+00 0. -1.
      99926    2    1    2    0    0  0.00000000000E+00  0.00000000000E+00  0.51166159602E+03  0.68291953720E+03  0.45230687088E+03 0.  0.
      99925    2    3    3    0    0 -0.78382141929E+02  0.62949555615E+02  0.39256801726E+03  0.48307661056E+03  0.26295808938E+03 0.  0.
         25    1    4    4    0    0 -0.53000416801E+01  0.34619504940E+02  0.14360803123E+03  0.19364239024E+03  0.12509000000E+03 0.  0.
         25    1    4    4    0    0 -0.73082100249E+02  0.28330050675E+02  0.24895998604E+03  0.28943422033E+03  0.12509000000E+03 0.  0.
         25    1    3    3    0    0  0.78382141929E+02 -0.62949555615E+02  0.11909357876E+03  0.19984292664E+03  0.12509000000E+03 0.  0.
<mgrwt>
<rscale>  2 0.45230687E+03</rscale>
<asrwt>0</asrwt>
<pdfrwt beam="1">  1       21 0.87836846E-01 0.45230687E+03</pdfrwt>
<pdfrwt beam="2">  1       21 0.12592496E-01 0.45230687E+03</pdfrwt>
<totfact> 0.54997399E+04</totfact>
</mgrwt>
</event>
<event>
 7    0  0.4705418E-002  0.4430184E+03  0.7546771E-02  0.1029825E+00
         21   -1    0    0  502  501  0.00000000000E+00  0.00000000000E+00  0.19751183173E+03  0.19751183173E+03  0.00000000000E+00 0. -1.
         21   -1    0    0  501  502 -0.00000000000E+00 -0.00000000000E+00 -0.24842224535E+03  0.24842224535E+03  0.00000000000E+00 0. -1.
      99926    2    1    2    0    0  0.00000000000E+00  0.00000000000E+00 -0.50910413625E+02  0.44593407708E+03  0.44301843177E+03 0.  0.
      99925    2    3    3    0    0  0.74045239443E+02  0.49159891687E+02 -0.81598840094E+02  0.28944548307E+03  0.26309869732E+03 0.  0.
         25    1    3    3    0    0 -0.74045239443E+02 -0.49159891687E+02  0.30688426469E+02  0.15648859401E+03  0.12509000000E+03 0.  0.
         25    1    4    4    0    0  0.67753337528E+02  0.54321024324E+02 -0.41466504789E+02  0.15782353294E+03  0.12509000000E+03 0.  0.
         25    1    4    4    0    0  0.62919019153E+01 -0.51611326368E+01 -0.40132335304E+02  0.13162195013E+03  0.12509000000E+03 0.  0.
<mgrwt>
<rscale>  2 0.44301843E+03</rscale>
<asrwt>0</asrwt>
<pdfrwt beam="1">  1       21 0.29045858E-01 0.44301843E+03</pdfrwt>
<pdfrwt beam="2">  1       21 0.36532683E-01 0.44301843E+03</pdfrwt>
<totfact> 0.76247261E+04</totfact>
</mgrwt>
</event>
<event>
 7    0  0.4705418E-002  0.4578902E+03  0.7546771E-02  0.1025395E+00
         21   -1    0    0  502  501  0.00000000000E+00  0.00000000000E+00  0.83959634837E+02  0.83959634837E+02  0.00000000000E+00 0. -1.
         21   -1    0    0  501  502 -0.00000000000E+00 -0.00000000000E+00 -0.62429833589E+03  0.62429833589E+03  0.00000000000E+00 0. -1.
      99926    2    1    2    0    0  0.00000000000E+00  0.00000000000E+00 -0.54033870105E+03  0.70825797072E+03  0.45789020653E+03 0.  0.
      99925    2    3    3    0    0 -0.76994653941E+02 -0.85096455675E+02 -0.36370121988E+03  0.46327247858E+03  0.26300803898E+03 0.  0.
         25    1    3    3    0    0  0.76994653941E+02  0.85096455675E+02 -0.17663748117E+03  0.24498549214E+03  0.12509000000E+03 0.  0.
         25    1    4    4    0    0 -0.44095149492E+02 -0.64353456576E+02 -0.13596605082E+03  0.20054930730E+03  0.12509000000E+03 0.  0.
         25    1    4    4    0    0 -0.32899504449E+02 -0.20742999099E+02 -0.22773516906E+03  0.26272317129E+03  0.12509000000E+03 0.  0.
<mgrwt>
<rscale>  2 0.45789021E+03</rscale>
<asrwt>0</asrwt>
<pdfrwt beam="1">  1       21 0.12347006E-01 0.45789021E+03</pdfrwt>
<pdfrwt beam="2">  1       21 0.91808575E-01 0.45789021E+03</pdfrwt>
<totfact> 0.51280767E+04</totfact>
</mgrwt>
</event>
<event>
 7    0  0.4705418E-002  0.4484886E+03  0.7546771E-02  0.1028174E+00
         21   -1    0    0  502  501  0.00000000000E+00  0.00000000000E+00  0.54918094901E+03  0.54918094901E+03  0.00000000000E+00 0.  1.
         21   -1    0    0  501  502 -0.00000000000E+00 -0.00000000000E+00 -0.91564533142E+02  0.91564533142E+02  0.00000000000E+00 0.  1.
      99926    2    1    2    0    0  0.00000000000E+00 -0.35527136788E-14  0.45761641587E+03  0.64074548215E+03  0.44848856042E+03 0.  0.
      99925    2    3    3    0    0  0.43589223355E+02  0.43515476726E+01  0.42873111665E+03  0.50509584164E+03  0.26342452903E+03 0.  0.
         25    1    4    4    0    0  0.35228094549E+02 -0.36754724223E+02  0.22187136694E+03  0.25974283429E+03  0.12509000000E+03 0.  0.
         25    1    3    3    0    0 -0.43589223355E+02 -0.43515476726E+01  0.28885299215E+02  0.13564964051E+03  0.12509000000E+03 0.  0.
         25    1    4    4    0    0  0.83611288065E+01  0.41106271895E+02  0.20685974971E+03  0.24535300735E+03  0.12509000000E+03 0.  0.
<mgrwt>
<rscale>  2 0.44848856E+03</rscale>
<asrwt>0</asrwt>
<pdfrwt beam="1">  1       21 0.80761903E-01 0.44848856E+03</pdfrwt>
<pdfrwt beam="2">  1       21 0.13465373E-01 0.44848856E+03</pdfrwt>
<totfact> 0.59222593E+04</totfact>
</mgrwt>
</event>
<event>
 7    0  0.4705418E-002  0.4537987E+03  0.7546771E-02  0.1026595E+00
         21   -1    0    0  502  501  0.00000000000E+00  0.00000000000E+00  0.42026973059E+02  0.42026973059E+02  0.00000000000E+00 0.  1.
         21   -1    0    0  501  502 -0.00000000000E+00 -0.00000000000E+00 -0.12250065542E+04  0.12250065542E+04  0.00000000000E+00 0.  1.
      99926    2    1    2    0    0  0.14210854715E-13 -0.14210854715E-13 -0.11829795812E+04  0.12670335273E+04  0.45379871067E+03 0.  0.
      99925    2    3    3    0    0  0.44998531460E+02 -0.81747910785E+02 -0.57141059208E+03  0.63586657214E+03  0.26288522985E+03 0.  0.
         25    1    4    4    0    0  0.50821126211E+02 -0.70239049391E+02 -0.28583859932E+03  0.32383255533E+03  0.12509000000E+03 0.  0.
         25    1    4    4    0    0 -0.58225947512E+01 -0.11508861394E+02 -0.28557199276E+03  0.31203401681E+03  0.12509000000E+03 0.  0.
         25    1    3    3    0    0 -0.44998531460E+02  0.81747910785E+02 -0.61156898911E+03  0.63116695516E+03  0.12509000000E+03 0.  0.
<mgrwt>
<rscale>  2 0.45379871E+03</rscale>
<asrwt>0</asrwt>
<pdfrwt beam="1">  1       21 0.61804371E-02 0.45379871E+03</pdfrwt>
<pdfrwt beam="2">  1       21 0.18014802E+00 0.45379871E+03</pdfrwt>
<totfact> 0.30370311E+04</totfact>
</mgrwt>
</event>
<event>
 7    0  0.4705418E-002  0.4502335E+03  0.7546771E-02  0.1027652E+00
         21   -1    0    0  502  501  0.00000000000E+00  0.00000000000E+00  0.97563860235E+02  0.97563860235E+02  0.00000000000E+00 0.  1.
         21   -1    0    0  501  502 -0.00000000000E+00 -0.00000000000E+00 -0.51942953329E+03  0.51942953329E+03  0.00000000000E+00 0.  1.
      99926    2    1    2    0    0  0.00000000000E+00 -0.14210854715E-13 -0.42186567306E+03  0.61699339353E+03  0.45023349670E+03 0.  0.
      99925    2    3    3    0    0 -0.15345947475E+02 -0.79441185832E+02 -0.36605711775E+03  0.45790692944E+03  0.26293448322E+03 0.  0.
         25    1    3    3    0    0  0.15345947475E+02  0.79441185832E+02 -0.55808555311E+02  0.15908646409E+03  0.12509000000E+03 0.  0.
         25    1    4    4    0    0 -0.25103768946E+02 -0.89834903611E+01 -0.13720270259E+03  0.18757129848E+03  0.12509000000E+03 0.  0.
         25    1    4    4    0    0  0.97578214711E+01 -0.70457695470E+02 -0.22885441516E+03  0.27033563096E+03  0.12509000000E+03 0.  0.
<mgrwt>
<rscale>  2 0.45023350E+03</rscale>
<asrwt>0</asrwt>
<pdfrwt beam="1">  1       21 0.14347627E-01 0.45023350E+03</pdfrwt>
<pdfrwt beam="2">  1       21 0.76386696E-01 0.45023350E+03</pdfrwt>
<totfact> 0.59866094E+04</totfact>
</mgrwt>
</event>
<event>
 7    0  0.4705418E-002  0.4566572E+03  0.7546771E-02  0.1025755E+00
         21   -1    0    0  502  501  0.00000000000E+00  0.00000000000E+00  0.79153541296E+03  0.79153541296E+03  0.00000000000E+00 0. -1.
         21   -1    0    0  501  502 -0.00000000000E+00 -0.00000000000E+00 -0.65864323695E+02  0.65864323695E+02  0.00000000000E+00 0. -1.
      99926    2    1    2    0    0  0.00000000000E+00  0.00000000000E+00  0.72567108926E+03  0.85739973665E+03  0.45665717844E+03 0.  0.
      99925    2    3    3    0    0 -0.11187158044E+03  0.11933581207E+02  0.49769127375E+03  0.57406254310E+03  0.26304664710E+03 0.  0.
         25    1    3    3    0    0  0.11187158044E+03 -0.11933581207E+02  0.22797981551E+03  0.28333719355E+03  0.12509000000E+03 0.  0.
         25    1    4    4    0    0 -0.13316271533E+02  0.95780173352E+01  0.20064708686E+03  0.23701439423E+03  0.12509000000E+03 0.  0.
         25    1    4    4    0    0 -0.98555308906E+02  0.23555638720E+01  0.29704418689E+03  0.33704814888E+03  0.12509000000E+03 0.  0.
<mgrwt>
<rscale>  2 0.45665718E+03</rscale>
<asrwt>0</asrwt>
<pdfrwt beam="1">  1       21 0.11640226E+00 0.45665718E+03</pdfrwt>
<pdfrwt beam="2">  1       21 0.96859304E-02 0.45665718E+03</pdfrwt>
<totfact> 0.44528500E+04</totfact>
</mgrwt>
</event>
<event>
 6    0  0.4705418E-002  0.4483456E+03  0.7546771E-02  0.1028217E+00
         21   -1    0    0  502  501  0.00000000000E+00  0.00000000000E+00  0.60398348583E+02  0.60398348583E+02  0.00000000000E+00 0.  1.
         21   -1    0    0  501  502 -0.00000000000E+00 -0.00000000000E+00 -0.83203334235E+03  0.83203334235E+03  0.00000000000E+00 0.  1.
      99926    2    1    2    0    0  0.00000000000E+00 -0.71054273576E-14 -0.77163499376E+03  0.89243169093E+03  0.44834558030E+03 0.  0.
         25    1    3    3    0    0  0.30187517353E+01  0.45295205478E+01 -0.16742218577E+03  0.20906297091E+03  0.12509000000E+03 0.  0.
         25    1    3    3    0    0 -0.52312974330E+02 -0.63773251139E+02 -0.43062453743E+03  0.45594810580E+03  0.12509000000E+03 0.  0.
         25    1    3    3    0    0  0.49294222595E+02  0.59243730591E+02 -0.17358827057E+03  0.22742061423E+03  0.12509000000E+03 0.  0.
<mgrwt>
<rscale>  2 0.44834558E+03</rscale>
<asrwt>0</asrwt>
<pdfrwt beam="1">  1       21 0.88821108E-02 0.44834558E+03</pdfrwt>
<pdfrwt beam="2">  1       21 0.12235784E+00 0.44834558E+03</pdfrwt>
<totfact> 0.45908184E+04</totfact>
</mgrwt>
</event>
<event>
 7    0  0.4705418E-002  0.4564647E+03  0.7546771E-02  0.1025812E+00
         21   -1    0    0  502  501  0.00000000000E+00  0.00000000000E+00  0.96515245756E+03  0.96515245756E+03  0.00000000000E+00 0.  1.
         21   -1    0    0  501  502 -0.00000000000E+00 -0.00000000000E+00 -0.53970743364E+02  0.53970743364E+02  0.00000000000E+00 0.  1.
      99926    2    1    2    0    0  0.71054273576E-14 -0.14210854715E-13  0.91118171420E+03  0.10191232009E+04  0.45646465622E+03 0.  0.
      99925    2    3    3    0    0 -0.39675911733E+02  0.10741820617E+03  0.57294913687E+03  0.64075613912E+03  0.26303016443E+03 0.  0.
         25    1    4    4    0    0 -0.33425823455E+02  0.26171294721E+02  0.33188797105E+03  0.35721052024E+03  0.12509000000E+03 0.  0.
         25    1    3    3    0    0  0.39675911733E+02 -0.10741820617E+03  0.33823257733E+03  0.37836706180E+03  0.12509000000E+03 0.  0.
         25    1    4    4    0    0 -0.62500882778E+01  0.81246911453E+02  0.24106116582E+03  0.28354561889E+03  0.12509000000E+03 0.  0.
<mgrwt>
<rscale>  2 0.45646466E+03</rscale>
<asrwt>0</asrwt>
<pdfrwt beam="1">  1       21 0.14193417E+00 0.45646466E+03</pdfrwt>
<pdfrwt beam="2">  1       21 0.79368746E-02 0.45646466E+03</pdfrwt>
<totfact> 0.37994753E+04</totfact>
</mgrwt>
</event>
<event>
 7    0  0.4705418E-002  0.4566587E+03  0.7546771E-02  0.1025755E+00
         21   -1    0    0  502  501  0.00000000000E+00  0.00000000000E+00  0.31856911853E+03  0.31856911853E+03  0.00000000000E+00 0. -1.
         21   -1    0    0  501  502 -0.00000000000E+00 -0.00000000000E+00 -0.16365140866E+03  0.16365140866E+03  0.00000000000E+00 0. -1.
      99926    2    1    2    0    0  0.00000000000E+00  0.14210854715E-13  0.15491770987E+03  0.48222052718E+03  0.45665866904E+03 0.  0.
      99925    2    3    3    0    0  0.72051805210E+02 -0.72330550678E+02  0.42032462283E+02  0.28520845035E+03  0.26297140733E+03 0.  0.
         25    1    3    3    0    0 -0.72051805210E+02  0.72330550678E+02  0.11288524759E+03  0.19701207683E+03  0.12509000000E+03 0.  0.
         25    1    4    4    0    0 -0.41653087035E+01 -0.22864169533E+02  0.25024703791E+02  0.12966828427E+03  0.12509000000E+03 0.  0.
         25    1    4    4    0    0  0.76217113913E+02 -0.49466381144E+02  0.17007758491E+02  0.15554016608E+03  0.12509000000E+03 0.  0.
<mgrwt>
<rscale>  2 0.45665867E+03</rscale>
<asrwt>0</asrwt>
<pdfrwt beam="1">  1       21 0.46848400E-01 0.45665867E+03</pdfrwt>
<pdfrwt beam="2">  1       21 0.24066384E-01 0.45665867E+03</pdfrwt>
<totfact> 0.65669931E+04</totfact>
</mgrwt>
</event>
<event>
 7    0  0.4705418E-002  0.4602749E+03  0.7546771E-02  0.1024702E+00
         21   -1    0    0  502  501  0.00000000000E+00  0.00000000000E+00  0.11541718730E+03  0.11541718730E+03  0.00000000000E+00 0. -1.
         21   -1    0    0  501  502 -0.00000000000E+00 -0.00000000000E+00 -0.45888533120E+03  0.45888533120E+03  0.00000000000E+00 0. -1.
      99926    2    1    2    0    0  0.00000000000E+00  0.00000000000E+00 -0.34346814389E+03  0.57430251850E+03  0.46027493619E+03 0.  0.
      99925    2    3    3    0    0 -0.76744093728E+02 -0.64434163503E+02 -0.13695300822E+03  0.31288823673E+03  0.26287165096E+03 0.  0.
         25    1    4    4    0    0 -0.56197972461E+02 -0.31561203308E+02 -0.11136043079E+03  0.17945187463E+03  0.12509000000E+03 0.  0.
         25    1    4    4    0    0 -0.20546121267E+02 -0.32872960196E+02 -0.25592577433E+02  0.13343636210E+03  0.12509000000E+03 0.  0.
         25    1    3    3    0    0  0.76744093728E+02  0.64434163503E+02 -0.20651513567E+03  0.26141428176E+03  0.12509000000E+03 0.  0.
<mgrwt>
<rscale>  2 0.46027494E+03</rscale>
<asrwt>0</asrwt>
<pdfrwt beam="1">  1       21 0.16973116E-01 0.46027494E+03</pdfrwt>
<pdfrwt beam="2">  1       21 0.67483136E-01 0.46027494E+03</pdfrwt>
<totfact> 0.57838171E+04</totfact>
</mgrwt>
</event>
<event>
 7    0  0.4705418E-002  0.4539240E+03  0.7546771E-02  0.1026558E+00
         21   -1    0    0  502  501  0.00000000000E+00  0.00000000000E+00  0.10632997462E+03  0.10632997462E+03  0.00000000000E+00 0. -1.
         21   -1    0    0  501  502 -0.00000000000E+00 -0.00000000000E+00 -0.48445191622E+03  0.48445191622E+03  0.00000000000E+00 0. -1.
      99926    2    1    2    0    0  0.00000000000E+00  0.00000000000E+00 -0.37812194160E+03  0.59078189084E+03  0.45392404632E+03 0.  0.
      99925    2    3    3    0    0  0.91260678951E+02 -0.32085068905E+02 -0.16453948365E+03  0.32503212581E+03  0.26308682590E+03 0.  0.
         25    1    3    3    0    0 -0.91260678951E+02  0.32085068905E+02 -0.21358245795E+03  0.26574976503E+03  0.12509000000E+03 0.  0.
         25    1    4    4    0    0  0.77249020804E+02 -0.42421521450E+02 -0.10369762991E+03  0.18484507904E+03  0.12509000000E+03 0.  0.
         25    1    4    4    0    0  0.14011658147E+02  0.10336452545E+02 -0.60841853739E+02  0.14018704677E+03  0.12509000000E+03 0.  0.
<mgrwt>
<rscale>  2 0.45392405E+03</rscale>
<asrwt>0</asrwt>
<pdfrwt beam="1">  1       21 0.15636761E-01 0.45392405E+03</pdfrwt>
<pdfrwt beam="2">  1       21 0.71242929E-01 0.45392405E+03</pdfrwt>
<totfact> 0.59755802E+04</totfact>
</mgrwt>
</event>
<event>
 7    0  0.4705418E-002  0.4569267E+03  0.7546771E-02  0.1025676E+00
         21   -1    0    0  502  501  0.00000000000E+00  0.00000000000E+00  0.37369794020E+03  0.37369794020E+03  0.00000000000E+00 0.  1.
         21   -1    0    0  501  502 -0.00000000000E+00 -0.00000000000E+00 -0.13967296437E+03  0.13967296437E+03  0.00000000000E+00 0.  1.
      99926    2    1    2    0    0  0.00000000000E+00  0.00000000000E+00  0.23402497583E+03  0.51337090457E+03  0.45692668596E+03 0.  0.
      99925    2    3    3    0    0  0.11476126208E+03  0.29519089303E+01  0.15388503029E+03  0.32562432001E+03  0.26300519804E+03 0.  0.
         25    1    3    3    0    0 -0.11476126208E+03 -0.29519089303E+01  0.80139945541E+02  0.18774658455E+03  0.12509000000E+03 0.  0.
         25    1    4    4    0    0  0.59997058538E+02 -0.28406823480E+01  0.12316423581E+03  0.18553881963E+03  0.12509000000E+03 0.  0.
         25    1    4    4    0    0  0.54764203538E+02  0.57925912783E+01  0.30720794485E+02  0.14008550038E+03  0.12509000000E+03 0.  0.
<mgrwt>
<rscale>  2 0.45692669E+03</rscale>
<asrwt>0</asrwt>
<pdfrwt beam="1">  1       21 0.54955579E-01 0.45692669E+03</pdfrwt>
<pdfrwt beam="2">  1       21 0.20540142E-01 0.45692669E+03</pdfrwt>
<totfact> 0.63366740E+04</totfact>
</mgrwt>
</event>
<event>
 7    0  0.4705418E-002  0.4608148E+03  0.7546771E-02  0.1024545E+00
         21   -1    0    0  502  501  0.00000000000E+00  0.00000000000E+00  0.48915741481E+02  0.48915741481E+02  0.00000000000E+00 0.  1.
         21   -1    0    0  501  502 -0.00000000000E+00 -0.00000000000E+00 -0.10852859799E+04  0.10852859799E+04  0.00000000000E+00 0.  1.
      99926    2    1    2    0    0  0.00000000000E+00  0.14210854715E-13 -0.10363702384E+04  0.11342017214E+04  0.46081479327E+03 0.  0.
      99925    2    3    3    0    0 -0.25484986510E+02 -0.10410201019E+03 -0.52396349715E+03  0.59596860306E+03  0.26297170270E+03 0.  0.
         25    1    4    4    0    0  0.37374848708E+01 -0.85250745615E+02 -0.24071662794E+03  0.28438294866E+03  0.12509000000E+03 0.  0.
         25    1    3    3    0    0  0.25484986510E+02  0.10410201019E+03 -0.51240674125E+03  0.53823311831E+03  0.12509000000E+03 0.  0.
         25    1    4    4    0    0 -0.29222471381E+02 -0.18851264571E+02 -0.28324686921E+03  0.31158565440E+03  0.12509000000E+03 0.  0.
<mgrwt>
<rscale>  2 0.46081479E+03</rscale>
<asrwt>0</asrwt>
<pdfrwt beam="1">  1       21 0.71934916E-02 0.46081479E+03</pdfrwt>
<pdfrwt beam="2">  1       21 0.15960088E+00 0.46081479E+03</pdfrwt>
<totfact> 0.32802038E+04</totfact>
</mgrwt>
</event>
<event>
 7    0  0.4705418E-002  0.4454867E+03  0.7546771E-02  0.1029077E+00
         21   -1    0    0  502  501  0.00000000000E+00  0.00000000000E+00  0.11136037406E+03  0.11136037406E+03  0.00000000000E+00 0. -1.
         21   -1    0    0  501  502 -0.00000000000E+00 -0.00000000000E+00 -0.44553183797E+03  0.44553183797E+03  0.00000000000E+00 0. -1.
      99926    2    1    2    0    0  0.26645352591E-14 -0.14210854715E-13 -0.33417146391E+03  0.55689221202E+03  0.44548666481E+03 0.  0.
      99925    2    3    3    0    0  0.54882427652E+01  0.85822975051E+02 -0.13915385670E+03  0.30975848491E+03  0.26304147826E+03 0.  0.
         25    1    4    4    0    0 -0.37339420444E+02  0.38054147583E+02 -0.62799992233E+02  0.14977882892E+03  0.12509000000E+03 0.  0.
         25    1    4    4    0    0  0.42827663210E+02  0.47768827468E+02 -0.76353864468E+02  0.15997965600E+03  0.12509000000E+03 0.  0.
         25    1    3    3    0    0 -0.54882427652E+01 -0.85822975051E+02 -0.19501760721E+03  0.24713372711E+03  0.12509000000E+03 0.  0.
<mgrwt>
<rscale>  2 0.44548666E+03</rscale>
<asrwt>0</asrwt>
<pdfrwt beam="1">  1       21 0.16376526E-01 0.44548666E+03</pdfrwt>
<pdfrwt beam="2">  1       21 0.65519386E-01 0.44548666E+03</pdfrwt>
<totfact> 0.66260733E+04</totfact>
</mgrwt>
</event>
<event>
 7    0  0.4705418E-002  0.4379082E+03  0.7546771E-02  0.1031391E+00
         21   -1    0    0  502  501  0.00000000000E+00  0.00000000000E+00  0.31135368490E+03  0.31135368490E+03  0.00000000000E+00 0.  1.
         21   -1    0    0  501  502 -0.00000000000E+00 -0.00000000000E+00 -0.15397566417E+03  0.15397566417E+03  0.00000000000E+00 0.  1.
      99926    2    1    2    0    0  0.00000000000E+00  0.35527136788E-14  0.15737802073E+03  0.46532934907E+03  0.43790816582E+03 0.  0.
      99925    2    3    3    0    0  0.47356261875E+02  0.23789762951E+02  0.15162868271E+02  0.26865391580E+03  0.26293810211E+03 0.  0.
         25    1    3    3    0    0 -0.47356261875E+02 -0.23789762951E+02  0.14221515246E+03  0.19667543327E+03  0.12509000000E+03 0.  0.
         25    1    4    4    0    0  0.38773671941E+02  0.28600402780E+02  0.41735094195E+02  0.14039482491E+03  0.12509000000E+03 0.  0.
         25    1    4    4    0    0  0.85825899341E+01 -0.48106398288E+01 -0.26572225924E+02  0.12825909089E+03  0.12509000000E+03 0.  0.
<mgrwt>
<rscale>  2 0.43790817E+03</rscale>
<asrwt>0</asrwt>
<pdfrwt beam="1">  1       21 0.45787307E-01 0.43790817E+03</pdfrwt>
<pdfrwt beam="2">  1       21 0.22643480E-01 0.43790817E+03</pdfrwt>
<totfact> 0.77815577E+04</totfact>
</mgrwt>
</event>
<event>
 7    0  0.4705418E-002  0.4629990E+03  0.7546771E-02  0.1023915E+00
         21   -1    0    0  502  501  0.00000000000E+00  0.00000000000E+00  0.23054870470E+03  0.23054870470E+03  0.00000000000E+00 0.  1.
         21   -1    0    0  501  502 -0.00000000000E+00 -0.00000000000E+00 -0.23245426305E+03  0.23245426305E+03  0.00000000000E+00 0.  1.
      99926    2    1    2    0    0  0.00000000000E+00 -0.14210854715E-13 -0.19055583492E+01  0.46300296775E+03  0.46299904643E+03 0.  0.
      99925    2    3    3    0    0  0.12982232475E+02  0.68690551723E+02  0.97035503298E+02  0.28886574589E+03  0.26294600205E+03 0.  0.
         25    1    4    4    0    0 -0.10079314272E+00  0.74865500214E+02  0.44500670358E+02  0.15242267234E+03  0.12509000000E+03 0.  0.
         25    1    4    4    0    0  0.13083025618E+02 -0.61749484907E+01  0.52534832940E+02  0.13644307355E+03  0.12509000000E+03 0.  0.
         25    1    3    3    0    0 -0.12982232475E+02 -0.68690551723E+02 -0.98941061647E+02  0.17413722186E+03  0.12509000000E+03 0.  0.
<mgrwt>
<rscale>  2 0.46299905E+03</rscale>
<asrwt>0</asrwt>
<pdfrwt beam="1">  1       21 0.33904221E-01 0.46299905E+03</pdfrwt>
<pdfrwt beam="2">  1       21 0.34184450E-01 0.46299905E+03</pdfrwt>
<totfact> 0.63793602E+04</totfact>
</mgrwt>
</event>
<event>
 7    0  0.4705418E-002  0.4762161E+03  0.7546771E-02  0.1020180E+00
         21   -1    0    0  502  501  0.00000000000E+00  0.00000000000E+00  0.95598771098E+02  0.95598771098E+02  0.00000000000E+00 0. -1.
         21   -1    0    0  501  502 -0.00000000000E+00 -0.00000000000E+00 -0.59305622231E+03  0.59305622231E+03  0.00000000000E+00 0. -1.
      99926    2    1    2    0    0  0.00000000000E+00 -0.35527136788E-14 -0.49745745121E+03  0.68865499341E+03  0.47621611079E+03 0.  0.
      99925    2    3    3    0    0  0.55722032592E+02 -0.21209547952E+02 -0.13718398775E+03  0.30265076232E+03  0.26310311210E+03 0.  0.
         25    1    3    3    0    0 -0.55722032592E+02  0.21209547952E+02 -0.36027346346E+03  0.38600423108E+03  0.12509000000E+03 0.  0.
         25    1    4    4    0    0  0.36444048373E+02  0.29056329667E+02 -0.72021036531E+02  0.15168050883E+03  0.12509000000E+03 0.  0.
         25    1    4    4    0    0  0.19277984219E+02 -0.50265877620E+02 -0.65162951219E+02  0.15097025349E+03  0.12509000000E+03 0.  0.
<mgrwt>
<rscale>  2 0.47621611E+03</rscale>
<asrwt>0</asrwt>
<pdfrwt beam="1">  1       21 0.14058643E-01 0.47621611E+03</pdfrwt>
<pdfrwt beam="2">  1       21 0.87214150E-01 0.47621611E+03</pdfrwt>
<totfact> 0.45438394E+04</totfact>
</mgrwt>
</event>
<event>
 7    0  0.4705418E-002  0.4602725E+03  0.7546771E-02  0.1024702E+00
         21   -1    0    0  502  501  0.00000000000E+00  0.00000000000E+00  0.98662810620E+03  0.98662810620E+03  0.00000000000E+00 0. -1.
         21   -1    0    0  501  502 -0.00000000000E+00 -0.00000000000E+00 -0.53680501237E+02  0.53680501237E+02  0.00000000000E+00 0. -1.
      99926    2    1    2    0    0 -0.14210854715E-13  0.17763568394E-14  0.93294760496E+03  0.10403086074E+04  0.46027249006E+03 0.  0.
      99925    2    3    3    0    0 -0.88412464980E+02 -0.12246083304E+02  0.40972079921E+03  0.49498253170E+03  0.26300160240E+03 0.  0.
         25    1    3    3    0    0  0.88412464980E+02  0.12246083304E+02  0.52322680575E+03  0.54532607574E+03  0.12509000000E+03 0.  0.
         25    1    4    4    0    0 -0.69945866019E+02 -0.38542842297E+02  0.21032805089E+03  0.25741672820E+03  0.12509000000E+03 0.  0.
         25    1    4    4    0    0 -0.18466598962E+02  0.26296758993E+02  0.19939274832E+03  0.23756580350E+03  0.12509000000E+03 0.  0.
<mgrwt>
<rscale>  2 0.46027249E+03</rscale>
<asrwt>0</asrwt>
<pdfrwt beam="1">  1       21 0.14509236E+00 0.46027249E+03</pdfrwt>
<pdfrwt beam="2">  1       21 0.78941920E-02 0.46027249E+03</pdfrwt>
<totfact> 0.36125138E+04</totfact>
</mgrwt>
</event>
<event>
 7    0  0.4705418E-002  0.4606028E+03  0.7546771E-02  0.1024607E+00
         21   -1    0    0  502  501  0.00000000000E+00  0.00000000000E+00  0.15441650932E+03  0.15441650932E+03  0.00000000000E+00 0.  1.
         21   -1    0    0  501  502 -0.00000000000E+00 -0.00000000000E+00 -0.34347837527E+03  0.34347837527E+03  0.00000000000E+00 0.  1.
      99926    2    1    2    0    0  0.00000000000E+00 -0.88817841970E-15 -0.18906186594E+03  0.49789488459E+03  0.46060278651E+03 0.  0.
      99925    2    3    3    0    0  0.36741801439E+02 -0.86964416934E+00  0.33026291570E+01  0.26551088486E+03  0.26293422441E+03 0.  0.
         25    1    4    4    0    0 -0.10903258720E+02  0.24654930439E+02  0.14512409175E+02  0.12878223777E+03  0.12509000000E+03 0.  0.
         25    1    3    3    0    0 -0.36741801439E+02  0.86964416934E+00 -0.19236449510E+03  0.23238399973E+03  0.12509000000E+03 0.  0.
         25    1    4    4    0    0  0.47645060158E+02 -0.25524574608E+02 -0.11209780018E+02  0.13672864709E+03  0.12509000000E+03 0.  0.
<mgrwt>
<rscale>  2 0.46060279E+03</rscale>
<asrwt>0</asrwt>
<pdfrwt beam="1">  1       21 0.22708310E-01 0.46060279E+03</pdfrwt>
<pdfrwt beam="2">  1       21 0.50511526E-01 0.46060279E+03</pdfrwt>
<totfact> 0.62588338E+04</totfact>
</mgrwt>
</event>
<event>
 7    0  0.4705418E-002  0.4601224E+03  0.7546771E-02  0.1024746E+00
         21   -1    0    0  502  501  0.00000000000E+00  0.00000000000E+00  0.93829798134E+03  0.93829798134E+03  0.00000000000E+00 0. -1.
         21   -1    0    0  501  502 -0.00000000000E+00 -0.00000000000E+00 -0.56408690760E+02  0.56408690760E+02  0.00000000000E+00 0. -1.
      99926    2    1    2    0    0  0.14210854715E-13  0.00000000000E+00  0.88188929058E+03  0.99470667210E+03  0.46012242140E+03 0.  0.
      99925    2    3    3    0    0  0.11416426883E+03  0.18564296210E+02  0.60210311377E+03  0.66713083934E+03  0.26297772495E+03 0.  0.
         25    1    4    4    0    0  0.19076539504E+02  0.24754158127E+02  0.24240716815E+03  0.27456406534E+03  0.12509000000E+03 0.  0.
         25    1    3    3    0    0 -0.11416426883E+03 -0.18564296210E+02  0.27978617682E+03  0.32757583276E+03  0.12509000000E+03 0.  0.
         25    1    4    4    0    0  0.95087729327E+02 -0.61898619163E+01  0.35969594561E+03  0.39256677400E+03  0.12509000000E+03 0.  0.
<mgrwt>
<rscale>  2 0.46012242E+03</rscale>
<asrwt>0</asrwt>
<pdfrwt beam="1">  1       21 0.13798499E+00 0.46012242E+03</pdfrwt>
<pdfrwt beam="2">  1       21 0.82953963E-02 0.46012242E+03</pdfrwt>
<totfact> 0.37836702E+04</totfact>
</mgrwt>
</event>
<event>
 7    0  0.4705418E-002  0.4548070E+03  0.7546771E-02  0.1026298E+00
         21   -1    0    0  502  501  0.00000000000E+00  0.00000000000E+00  0.81557595310E+02  0.81557595310E+02  0.00000000000E+00 0.  1.
         21   -1    0    0  501  502 -0.00000000000E+00 -0.00000000000E+00 -0.63405940888E+03  0.63405940888E+03  0.00000000000E+00 0.  1.
      99926    2    1    2    0    0  0.00000000000E+00  0.35527136788E-14 -0.55250181357E+03  0.71561700419E+03  0.45480703896E+03 0.  0.
      99925    2    3    3    0    0  0.73948205456E+02 -0.19097447793E+02 -0.47895519032E+03  0.55163632394E+03  0.26281459236E+03 0.  0.
         25    1    3    3    0    0 -0.73948205456E+02  0.19097447793E+02 -0.73546623247E+02  0.16398068024E+03  0.12509000000E+03 0.  0.
         25    1    4    4    0    0  0.31989894977E+02  0.44808255616E+01 -0.31093409241E+03  0.33670602772E+03  0.12509000000E+03 0.  0.
         25    1    4    4    0    0  0.41958310479E+02 -0.23578273354E+02 -0.16802109791E+03  0.21493029623E+03  0.12509000000E+03 0.  0.
<mgrwt>
<rscale>  2 0.45480704E+03</rscale>
<asrwt>0</asrwt>
<pdfrwt beam="1">  1       21 0.11993764E-01 0.45480704E+03</pdfrwt>
<pdfrwt beam="2">  1       21 0.93244028E-01 0.45480704E+03</pdfrwt>
<totfact> 0.52142378E+04</totfact>
</mgrwt>
</event>
<event>
 7    0  0.4705418E-002  0.4477166E+03  0.7546771E-02  0.1028405E+00
         21   -1    0    0  502  501  0.00000000000E+00  0.00000000000E+00  0.20975303963E+02  0.20975303963E+02  0.00000000000E+00 0. -1.
         21   -1    0    0  501  502 -0.00000000000E+00 -0.00000000000E+00 -0.23891206699E+04  0.23891206699E+04  0.00000000000E+00 0. -1.
      99926    2    1    2    0    0 -0.35527136788E-14  0.00000000000E+00 -0.23681453659E+04  0.24100959738E+04  0.44771657220E+03 0.  0.
      99925    2    3    3    0    0 -0.23658313399E+02 -0.10098467399E+03 -0.13799653375E+04  0.14086445787E+04  0.26309237204E+03 0.  0.
         25    1    4    4    0    0 -0.21688589216E+02 -0.25943151599E+02 -0.81032077367E+03  0.82061605295E+03  0.12509000000E+03 0.  0.
         25    1    4    4    0    0 -0.19697241824E+01 -0.75041522389E+02 -0.56964456387E+03  0.58802852579E+03  0.12509000000E+03 0.  0.
         25    1    3    3    0    0  0.23658313399E+02  0.10098467399E+03 -0.98818002836E+03  0.10014513951E+04  0.12509000000E+03 0.  0.
<mgrwt>
<rscale>  2 0.44771657E+03</rscale>
<asrwt>0</asrwt>
<pdfrwt beam="1">  1       21 0.30846048E-02 0.44771657E+03</pdfrwt>
<pdfrwt beam="2">  1       21 0.35134113E+00 0.44771657E+03</pdfrwt>
<totfact> 0.85709031E+03</totfact>
</mgrwt>
</event>
<event>
 7    0  0.4705418E-002  0.4517308E+03  0.7546771E-02  0.1027207E+00
         21   -1    0    0  502  501  0.00000000000E+00  0.00000000000E+00  0.17347703906E+03  0.17347703906E+03  0.00000000000E+00 0. -1.
         21   -1    0    0  501  502 -0.00000000000E+00 -0.00000000000E+00 -0.29407448271E+03  0.29407448271E+03  0.00000000000E+00 0. -1.
      99926    2    1    2    0    0  0.00000000000E+00  0.00000000000E+00 -0.12059744365E+03  0.46755152177E+03  0.45173076284E+03 0.  0.
      99925    2    3    3    0    0 -0.49144786287E+02  0.74713569701E+02 -0.96930751175E+01  0.27796087175E+03  0.26300373192E+03 0.  0.
         25    1    4    4    0    0 -0.24990333071E+02  0.60354861273E+02 -0.39075727790E+02  0.14642966444E+03  0.12509000000E+03 0.  0.
         25    1    3    3    0    0  0.49144786287E+02 -0.74713569701E+02 -0.11090436853E+03  0.18959065002E+03  0.12509000000E+03 0.  0.
         25    1    4    4    0    0 -0.24154453216E+02  0.14358708427E+02  0.29382652672E+02  0.13153120731E+03  0.12509000000E+03 0.  0.
<mgrwt>
<rscale>  2 0.45173076E+03</rscale>
<asrwt>0</asrwt>
<pdfrwt beam="1">  1       21 0.25511330E-01 0.45173076E+03</pdfrwt>
<pdfrwt beam="2">  1       21 0.43246247E-01 0.45173076E+03</pdfrwt>
<totfact> 0.69400767E+04</totfact>
</mgrwt>
</event>
<event>
 7    0  0.4705418E-002  0.4603334E+03  0.7546771E-02  0.1024685E+00
         21   -1    0    0  502  501  0.00000000000E+00  0.00000000000E+00  0.55628217262E+02  0.55628217262E+02  0.00000000000E+00 0.  1.
         21   -1    0    0  501  502 -0.00000000000E+00 -0.00000000000E+00 -0.95233513605E+03  0.95233513605E+03  0.00000000000E+00 0.  1.
      99926    2    1    2    0    0  0.35527136788E-14  0.00000000000E+00 -0.89670691878E+03  0.10079633533E+04  0.46033338291E+03 0.  0.
      99925    2    3    3    0    0  0.70640868351E+01  0.82967403284E+02 -0.74507126901E+03  0.79448180911E+03  0.26293850569E+03 0.  0.
         25    1    4    4    0    0 -0.32915718225E+02  0.58171039185E+02 -0.36394267964E+03  0.39060094274E+03  0.12509000000E+03 0.  0.
         25    1    4    4    0    0  0.39979805060E+02  0.24796364099E+02 -0.38112858937E+03  0.40388086637E+03  0.12509000000E+03 0.  0.
         25    1    3    3    0    0 -0.70640868351E+01 -0.82967403284E+02 -0.15163564977E+03  0.21348154420E+03  0.12509000000E+03 0.  0.
<mgrwt>
<rscale>  2 0.46033338E+03</rscale>
<asrwt>0</asrwt>
<pdfrwt beam="1">  1       21 0.81806206E-02 0.46033338E+03</pdfrwt>
<pdfrwt beam="2">  1       21 0.14004928E+00 0.46033338E+03</pdfrwt>
<totfact> 0.37281383E+04</totfact>
</mgrwt>
</event>
<event>
 7    0  0.4705418E-002  0.4568373E+03  0.7546771E-02  0.1025702E+00
         21   -1    0    0  502  501  0.00000000000E+00  0.00000000000E+00  0.10285442700E+03  0.10285442700E+03  0.00000000000E+00 0.  1.
         21   -1    0    0  501  502 -0.00000000000E+00 -0.00000000000E+00 -0.50727112434E+03  0.50727112434E+03  0.00000000000E+00 0.  1.
      99926    2    1    2    0    0  0.00000000000E+00  0.00000000000E+00 -0.40441669734E+03  0.61012555133E+03  0.45683730507E+03 0.  0.
      99925    2    3    3    0    0  0.11265585740E+03 -0.15676859024E+02 -0.23257693630E+03  0.36905809669E+03  0.26301091482E+03 0.  0.
         25    1    4    4    0    0  0.41263318880E+02 -0.76862456032E+01 -0.62357732242E+02  0.14593743429E+03  0.12509000000E+03 0.  0.
         25    1    3    3    0    0 -0.11265585740E+03  0.15676859024E+02 -0.17183976104E+03  0.24106745464E+03  0.12509000000E+03 0.  0.
         25    1    4    4    0    0  0.71392538519E+02 -0.79906134212E+01 -0.17021920406E+03  0.22312066240E+03  0.12509000000E+03 0.  0.
<mgrwt>
<rscale>  2 0.45683731E+03</rscale>
<asrwt>0</asrwt>
<pdfrwt beam="1">  1       21 0.15125651E-01 0.45683731E+03</pdfrwt>
<pdfrwt beam="2">  1       21 0.74598695E-01 0.45683731E+03</pdfrwt>
<totfact> 0.57224285E+04</totfact>
</mgrwt>
</event>
<event>
 7    0  0.4705418E-002  0.4556457E+03  0.7546771E-02  0.1026052E+00
         21   -1    0    0  502  501  0.00000000000E+00  0.00000000000E+00  0.26852589173E+03  0.26852589173E+03  0.00000000000E+00 0.  1.
         21   -1    0    0  501  502 -0.00000000000E+00 -0.00000000000E+00 -0.19328952342E+03  0.19328952342E+03  0.00000000000E+00 0.  1.
      99926    2    1    2    0    0  0.00000000000E+00  0.00000000000E+00  0.75236368313E+02  0.46181541516E+03  0.45564565899E+03 0.  0.
      99925    2    3    3    0    0  0.10313712004E+03 -0.30793962380E+02  0.84628724529E+02  0.29652398131E+03  0.26301885260E+03 0.  0.
         25    1    3    3    0    0 -0.10313712004E+03  0.30793962380E+02 -0.93923562168E+01  0.16529143385E+03  0.12509000000E+03 0.  0.
         25    1    4    4    0    0  0.27888517264E+02 -0.35571938621E+02  0.12399064832E+02  0.13358284741E+03  0.12509000000E+03 0.  0.
         25    1    4    4    0    0  0.75248602774E+02  0.47779762410E+01  0.72229659698E+02  0.16294113390E+03  0.12509000000E+03 0.  0.
<mgrwt>
<rscale>  2 0.45564566E+03</rscale>
<asrwt>0</asrwt>
<pdfrwt beam="1">  1       21 0.39489102E-01 0.45564566E+03</pdfrwt>
<pdfrwt beam="2">  1       21 0.28424930E-01 0.45564566E+03</pdfrwt>
<totfact> 0.67698988E+04</totfact>
</mgrwt>
</event>
<event>
 7    0  0.4705418E-002  0.4553129E+03  0.7546771E-02  0.1026149E+00
         21   -1    0    0  502  501  0.00000000000E+00  0.00000000000E+00  0.13392338044E+03  0.13392338044E+03  0.00000000000E+00 0. -1.
         21   -1    0    0  501  502 -0.00000000000E+00 -0.00000000000E+00 -0.38699329599E+03  0.38699329599E+03  0.00000000000E+00 0. -1.
      99926    2    1    2    0    0  0.00000000000E+00  0.71054273576E-14 -0.25306991555E+03  0.52091667643E+03  0.45531286126E+03 0.  0.
      99925    2    3    3    0    0  0.80562221596E+02  0.48800260869E+02 -0.87045041054E+02  0.29269857009E+03  0.26310430774E+03 0.  0.
         25    1    4    4    0    0  0.32498301138E+02 -0.16104598478E+02 -0.47572758870E+02  0.13865847668E+03  0.12509000000E+03 0.  0.
         25    1    3    3    0    0 -0.80562221596E+02 -0.48800260869E+02 -0.16602487450E+03  0.22821810634E+03  0.12509000000E+03 0.  0.
         25    1    4    4    0    0  0.48063920459E+02  0.64904859347E+02 -0.39472282184E+02  0.15404009341E+03  0.12509000000E+03 0.  0.
<mgrwt>
<rscale>  2 0.45531286E+03</rscale>
<asrwt>0</asrwt>
<pdfrwt beam="1">  1       21 0.19694615E-01 0.45531286E+03</pdfrwt>
<pdfrwt beam="2">  1       21 0.56910779E-01 0.45531286E+03</pdfrwt>
<totfact> 0.63666673E+04</totfact>
</mgrwt>
</event>
<event>
 7    0  0.4705418E-002  0.4380049E+03  0.7546771E-02  0.1031361E+00
         21   -1    0    0  502  501  0.00000000000E+00  0.00000000000E+00  0.37348205851E+02  0.37348205851E+02  0.00000000000E+00 0.  1.
         21   -1    0    0  501  502 -0.00000000000E+00 -0.00000000000E+00 -0.12841865474E+04  0.12841865474E+04  0.00000000000E+00 0.  1.
      99926    2    1    2    0    0  0.00000000000E+00  0.00000000000E+00 -0.12468383415E+04  0.13215347532E+04  0.43800485624E+03 0.  0.
      99925    2    3    3    0    0 -0.40166983154E+02 -0.87591133318E+02 -0.79018853927E+03  0.83835554923E+03  0.26297624639E+03 0.  0.
         25    1    4    4    0    0 -0.33154841251E+02 -0.50024041088E+02 -0.51972665018E+03  0.53792652583E+03  0.12509000000E+03 0.  0.
         25    1    3    3    0    0  0.40166983154E+02  0.87591133318E+02 -0.45664980226E+03  0.48317920400E+03  0.12509000000E+03 0.  0.
         25    1    4    4    0    0 -0.70121419026E+01 -0.37567092230E+02 -0.27046188908E+03  0.30042902340E+03  0.12509000000E+03 0.  0.
<mgrwt>
<rscale>  2 0.43800486E+03</rscale>
<asrwt>0</asrwt>
<pdfrwt beam="1">  1       21 0.54923836E-02 0.43800486E+03</pdfrwt>
<pdfrwt beam="2">  1       21 0.18885095E+00 0.43800486E+03</pdfrwt>
<totfact> 0.32595076E+04</totfact>
</mgrwt>
</event>
<event>
 7    0  0.4705418E-002  0.4226574E+03  0.7546771E-02  0.1036205E+00
         21   -1    0    0  502  501  0.00000000000E+00  0.00000000000E+00  0.30617392831E+03  0.30617392831E+03  0.00000000000E+00 0.  1.
         21   -1    0    0  501  502 -0.00000000000E+00 -0.00000000000E+00 -0.14586418325E+03  0.14586418325E+03  0.00000000000E+00 0.  1.
      99926    2    1    2    0    0  0.00000000000E+00 -0.71054273576E-14  0.16030974506E+03  0.45203811155E+03  0.42265735524E+03 0.  0.
      99925    2    3    3    0    0  0.42764391086E+02  0.48449270222E+02  0.15299530261E+03  0.31105182109E+03  0.26300104154E+03 0.  0.
         25    1    4    4    0    0 -0.11987285093E+01  0.54514236617E+02  0.94616978231E+02  0.16605155709E+03  0.12509000000E+03 0.  0.
         25    1    3    3    0    0 -0.42764391086E+02 -0.48449270222E+02  0.73144424504E+01  0.14098629046E+03  0.12509000000E+03 0.  0.
         25    1    4    4    0    0  0.43963119596E+02 -0.60649663946E+01  0.58378324380E+02  0.14500026400E+03  0.12509000000E+03 0.  0.
<mgrwt>
<rscale>  2 0.42265736E+03</rscale>
<asrwt>0</asrwt>
<pdfrwt beam="1">  1       21 0.45025578E-01 0.42265736E+03</pdfrwt>
<pdfrwt beam="2">  1       21 0.21450615E-01 0.42265736E+03</pdfrwt>
<totfact> 0.89697921E+04</totfact>
</mgrwt>
</event>
<event>
 7    0  0.4705418E-002  0.4512780E+03  0.7546771E-02  0.1027342E+00
         21   -1    0    0  502  501  0.00000000000E+00  0.00000000000E+00  0.94770586378E+03  0.94770586378E+03  0.00000000000E+00 0.  1.
         21   -1    0    0  501  502 -0.00000000000E+00 -0.00000000000E+00 -0.53722315013E+02  0.53722315013E+02  0.00000000000E+00 0.  1.
      99926    2    1    2    0    0  0.00000000000E+00  0.00000000000E+00  0.89398354876E+03  0.10014281788E+04  0.45127797621E+03 0.  0.
      99925    2    3    3    0    0 -0.18340732997E+02  0.31822874201E+02  0.79356392184E+03  0.83686607081E+03  0.26315783216E+03 0.  0.
         25    1    4    4    0    0  0.10226243315E+02  0.48740570543E+02  0.45105500007E+03  0.47072108563E+03  0.12509000000E+03 0.  0.
         25    1    4    4    0    0 -0.28566976312E+02 -0.16917696342E+02  0.34250892177E+03  0.36614498518E+03  0.12509000000E+03 0.  0.
         25    1    3    3    0    0  0.18340732997E+02 -0.31822874201E+02  0.10041962693E+03  0.16456210798E+03  0.12509000000E+03 0.  0.
<mgrwt>
<rscale>  2 0.45127798E+03</rscale>
<asrwt>0</asrwt>
<pdfrwt beam="1">  1       21 0.13936850E+00 0.45127798E+03</pdfrwt>
<pdfrwt beam="2">  1       21 0.79003410E-02 0.45127798E+03</pdfrwt>
<totfact> 0.40269146E+04</totfact>
</mgrwt>
</event>
<event>
 7    0  0.4705418E-002  0.4521564E+03  0.7546771E-02  0.1027081E+00
         21   -1    0    0  502  501  0.00000000000E+00  0.00000000000E+00  0.13894928915E+03  0.13894928915E+03  0.00000000000E+00 0.  1.
         21   -1    0    0  501  502 -0.00000000000E+00 -0.00000000000E+00 -0.36784177127E+03  0.36784177127E+03  0.00000000000E+00 0.  1.
      99926    2    1    2    0    0  0.00000000000E+00  0.00000000000E+00 -0.22889248212E+03  0.50679106042E+03  0.45215640054E+03 0.  0.
      99925    2    3    3    0    0 -0.15635478101E+02  0.26147215344E+02 -0.26330404171E+03  0.37352512862E+03  0.26318027715E+03 0.  0.
         25    1    4    4    0    0 -0.21374698854E+02 -0.24019228692E+02 -0.11356093464E+03  0.17198079856E+03  0.12509000000E+03 0.  0.
         25    1    3    3    0    0  0.15635478101E+02 -0.26147215344E+02  0.34411559591E+02  0.13326593180E+03  0.12509000000E+03 0.  0.
         25    1    4    4    0    0  0.57392207532E+01  0.50166444036E+02 -0.14974310707E+03  0.20154433005E+03  0.12509000000E+03 0.  0.
<mgrwt>
<rscale>  2 0.45215640E+03</rscale>
<asrwt>0</asrwt>
<pdfrwt beam="1">  1       21 0.20433719E-01 0.45215640E+03</pdfrwt>
<pdfrwt beam="2">  1       21 0.54094378E-01 0.45215640E+03</pdfrwt>
<totfact> 0.66279402E+04</totfact>
</mgrwt>
</event>
<event>
 7    0  0.4705418E-002  0.4670310E+03  0.7546771E-02  0.1022762E+00
         21   -1    0    0  502  501  0.00000000000E+00  0.00000000000E+00  0.76337715274E+03  0.76337715274E+03  0.00000000000E+00 0. -1.
         21   -1    0    0  501  502 -0.00000000000E+00 -0.00000000000E+00 -0.71431908034E+02  0.71431908034E+02  0.00000000000E+00 0. -1.
      99926    2    1    2    0    0  0.00000000000E+00  0.00000000000E+00  0.69194524470E+03  0.83480906077E+03  0.46703099070E+03 0.  0.
      99925    2    3    3    0    0 -0.11403721546E+03 -0.48849107690E+02  0.43869033630E+03  0.52630253156E+03  0.26297228321E+03 0.  0.
         25    1    3    3    0    0  0.11403721546E+03  0.48849107690E+02  0.25325490840E+03  0.30850652921E+03  0.12509000000E+03 0.  0.
         25    1    4    4    0    0 -0.46806069894E+02 -0.50672084218E+02  0.27266567604E+03  0.30781901710E+03  0.12509000000E+03 0.  0.
         25    1    4    4    0    0 -0.67231145570E+02  0.18229765284E+01  0.16602466026E+03  0.21848351446E+03  0.12509000000E+03 0.  0.
<mgrwt>
<rscale>  2 0.46703099E+03</rscale>
<asrwt>0</asrwt>
<pdfrwt beam="1">  1       21 0.11226134E+00 0.46703099E+03</pdfrwt>
<pdfrwt beam="2">  1       21 0.10504693E-01 0.46703099E+03</pdfrwt>
<totfact> 0.42017878E+04</totfact>
</mgrwt>
</event>
<event>
 7    0  0.4705418E-002  0.4506378E+03  0.7546771E-02  0.1027532E+00
         21   -1    0    0  502  501  0.00000000000E+00  0.00000000000E+00  0.62452858224E+02  0.62452858224E+02  0.00000000000E+00 0. -1.
         21   -1    0    0  501  502 -0.00000000000E+00 -0.00000000000E+00 -0.81291081524E+03  0.81291081524E+03  0.00000000000E+00 0. -1.
      99926    2    1    2    0    0  0.14210854715E-13  0.00000000000E+00 -0.75045795702E+03  0.87536367346E+03  0.45063778755E+03 0.  0.
      99925    2    3    3    0    0  0.72063920424E+02 -0.51377866190E+02 -0.59783514573E+03  0.65909041024E+03  0.26298367561E+03 0.  0.
         25    1    3    3    0    0 -0.72063920424E+02  0.51377866190E+02 -0.15262281129E+03  0.21627326323E+03  0.12509000000E+03 0.  0.
         25    1    4    4    0    0 -0.41731822731E+01 -0.20843313352E+02 -0.24727649039E+03  0.27792990117E+03  0.12509000000E+03 0.  0.
         25    1    4    4    0    0  0.76237102697E+02 -0.30534552837E+02 -0.35055865534E+03  0.38116050907E+03  0.12509000000E+03 0.  0.
<mgrwt>
<rscale>  2 0.45063779E+03</rscale>
<asrwt>0</asrwt>
<pdfrwt beam="1">  1       21 0.91842441E-02 0.45063779E+03</pdfrwt>
<pdfrwt beam="2">  1       21 0.11954570E+00 0.45063779E+03</pdfrwt>
<totfact> 0.45863092E+04</totfact>
</mgrwt>
</event>
<event>
 7    0  0.4705418E-002  0.4526877E+03  0.7546771E-02  0.1026924E+00
         21   -1    0    0  502  501  0.00000000000E+00  0.00000000000E+00  0.11784411625E+03  0.11784411625E+03  0.00000000000E+00 0. -1.
         21   -1    0    0  501  502 -0.00000000000E+00 -0.00000000000E+00 -0.43473998236E+03  0.43473998236E+03  0.00000000000E+00 0. -1.
      99926    2    1    2    0    0  0.00000000000E+00  0.00000000000E+00 -0.31689586610E+03  0.55258409861E+03  0.45268774678E+03 0.  0.
      99925    2    3    3    0    0  0.80473176527E+02  0.27228141621E+02 -0.28701484712E+03  0.39844880988E+03  0.26299549006E+03 0.  0.
         25    1    4    4    0    0  0.76982922553E+02  0.13171493471E+02 -0.12548108765E+03  0.19363075702E+03  0.12509000000E+03 0.  0.
         25    1    4    4    0    0  0.34902539747E+01  0.14056648150E+02 -0.16153375947E+03  0.20481805286E+03  0.12509000000E+03 0.  0.
         25    1    3    3    0    0 -0.80473176527E+02 -0.27228141621E+02 -0.29881018987E+02  0.15413528873E+03  0.12509000000E+03 0.  0.
<mgrwt>
<rscale>  2 0.45268775E+03</rscale>
<asrwt>0</asrwt>
<pdfrwt beam="1">  1       21 0.17330018E-01 0.45268775E+03</pdfrwt>
<pdfrwt beam="2">  1       21 0.63932349E-01 0.45268775E+03</pdfrwt>
<totfact> 0.62837703E+04</totfact>
</mgrwt>
</event>
<event>
 7    0  0.4705418E-002  0.4588190E+03  0.7546771E-02  0.1025124E+00
         21   -1    0    0  502  501  0.00000000000E+00  0.00000000000E+00  0.65267941398E+03  0.65267941398E+03  0.00000000000E+00 0.  1.
         21   -1    0    0  501  502 -0.00000000000E+00 -0.00000000000E+00 -0.80634871870E+02  0.80634871870E+02  0.00000000000E+00 0.  1.
      99926    2    1    2    0    0  0.00000000000E+00  0.00000000000E+00  0.57204454211E+03  0.73331428585E+03  0.45881900971E+03 0.  0.
      99925    2    3    3    0    0 -0.35925589494E+02 -0.61842059023E+02  0.50597983507E+03  0.57479885486E+03  0.26317872599E+03 0.  0.
         25    1    4    4    0    0 -0.42139837224E+02 -0.45180002996E+02  0.32888028962E+03  0.35724886501E+03  0.12509000000E+03 0.  0.
         25    1    3    3    0    0  0.35925589494E+02  0.61842059023E+02  0.66064707042E+02  0.15851543099E+03  0.12509000000E+03 0.  0.
         25    1    4    4    0    0  0.62142477296E+01 -0.16662056028E+02  0.17709954545E+03  0.21754998985E+03  0.12509000000E+03 0.  0.
<mgrwt>
<rscale>  2 0.45881901E+03</rscale>
<asrwt>0</asrwt>
<pdfrwt beam="1">  1       21 0.95982264E-01 0.45881901E+03</pdfrwt>
<pdfrwt beam="2">  1       21 0.11858070E-01 0.45881901E+03</pdfrwt>
<totfact> 0.49624262E+04</totfact>
</mgrwt>
</event>
<event>
 7    0  0.4705418E-002  0.4485911E+03  0.7546771E-02  0.1028143E+00
         21   -1    0    0  502  501  0.00000000000E+00  0.00000000000E+00  0.14975830318E+03  0.14975830318E+03  0.00000000000E+00 0.  1.
         21   -1    0    0  501  502 -0.00000000000E+00 -0.00000000000E+00 -0.33593131344E+03  0.33593131344E+03  0.00000000000E+00 0.  1.
      99926    2    1    2    0    0  0.44408920985E-15  0.14210854715E-13 -0.18617301027E+03  0.48568961662E+03  0.44859114340E+03 0.  0.
      99925    2    3    3    0    0 -0.33885143103E+01  0.85848386384E+02 -0.48724156923E+02  0.28094313225E+03  0.26300869305E+03 0.  0.
         25    1    3    3    0    0  0.33885143103E+01 -0.85848386384E+02 -0.13744885335E+03  0.20474648437E+03  0.12509000000E+03 0.  0.
         25    1    4    4    0    0 -0.22436040396E+02  0.57893536088E+02  0.71337824345E+01  0.13983360248E+03  0.12509000000E+03 0.  0.
         25    1    4    4    0    0  0.19047526086E+02  0.27954850296E+02 -0.55857939357E+02  0.14110952978E+03  0.12509000000E+03 0.  0.
<mgrwt>
<rscale>  2 0.44859114E+03</rscale>
<asrwt>0</asrwt>
<pdfrwt beam="1">  1       21 0.22023280E-01 0.44859114E+03</pdfrwt>
<pdfrwt beam="2">  1       21 0.49401664E-01 0.44859114E+03</pdfrwt>
<totfact> 0.69771002E+04</totfact>
</mgrwt>
</event>
<event>
 7    0  0.4705418E-002  0.4547732E+03  0.7546771E-02  0.1026308E+00
         21   -1    0    0  502  501  0.00000000000E+00  0.00000000000E+00  0.21550917576E+03  0.21550917576E+03  0.00000000000E+00 0. -1.
         21   -1    0    0  501  502 -0.00000000000E+00 -0.00000000000E+00 -0.23991863322E+03  0.23991863322E+03  0.00000000000E+00 0. -1.
      99926    2    1    2    0    0 -0.71054273576E-14  0.00000000000E+00 -0.24409457463E+02  0.45542780898E+03  0.45477320455E+03 0.  0.
      99925    2    3    3    0    0 -0.63010427491E+02  0.75610823301E+02 -0.70711137447E+02  0.28966091168E+03  0.26308946809E+03 0.  0.
         25    1    4    4    0    0 -0.10381444429E+01  0.59226305484E+02 -0.52048300088E+02  0.14786942432E+03  0.12509000000E+03 0.  0.
         25    1    3    3    0    0  0.63010427491E+02 -0.75610823301E+02  0.46301679983E+02  0.16576689730E+03  0.12509000000E+03 0.  0.
         25    1    4    4    0    0 -0.61972283048E+02  0.16384517816E+02 -0.18662837359E+02  0.14179148736E+03  0.12509000000E+03 0.  0.
<mgrwt>
<rscale>  2 0.45477320E+03</rscale>
<asrwt>0</asrwt>
<pdfrwt beam="1">  1       21 0.31692526E-01 0.45477320E+03</pdfrwt>
<pdfrwt beam="2">  1       21 0.35282152E-01 0.45477320E+03</pdfrwt>
<totfact> 0.68638615E+04</totfact>
</mgrwt>
</event>
<event>
 7    0  0.4705418E-002  0.4483292E+03  0.7546771E-02  0.1028221E+00
         21   -1    0    0  502  501  0.00000000000E+00  0.00000000000E+00  0.15209375222E+03  0.15209375222E+03  0.00000000000E+00 0.  1.
         21   -1    0    0  501  502 -0.00000000000E+00 -0.00000000000E+00 -0.33038686149E+03  0.33038686149E+03  0.00000000000E+00 0.  1.
      99926    2    1    2    0    0  0.00000000000E+00  0.71054273576E-14 -0.17829310927E+03  0.48248061370E+03  0.44832924262E+03 0.  0.
      99925    2    3    3    0    0 -0.52650438231E+02  0.37362583146E+02 -0.21442803712E+02  0.27172588014E+03  0.26307247831E+03 0.  0.
         25    1    4    4    0    0 -0.41062202689E+02 -0.95714319135E+01 -0.36015940972E+02  0.13682972229E+03  0.12509000000E+03 0.  0.
         25    1    3    3    0    0  0.52650438231E+02 -0.37362583146E+02 -0.15685030556E+03  0.21075473356E+03  0.12509000000E+03 0.  0.
         25    1    4    4    0    0 -0.11588235543E+02  0.46934015060E+02  0.14573137260E+02  0.13489615785E+03  0.12509000000E+03 0.  0.
<mgrwt>
<rscale>  2 0.44832924E+03</rscale>
<asrwt>0</asrwt>
<pdfrwt beam="1">  1       21 0.22366728E-01 0.44832924E+03</pdfrwt>
<pdfrwt beam="2">  1       21 0.48586303E-01 0.44832924E+03</pdfrwt>
<totfact> 0.70162505E+04</totfact>
</mgrwt>
</event>
<event>
 7    0  0.4705418E-002  0.4373072E+03  0.7546771E-02  0.1031576E+00
         21   -1    0    0  502  501  0.00000000000E+00  0.00000000000E+00  0.11752460188E+04  0.11752460188E+04  0.00000000000E+00 0. -1.
         21   -1    0    0  501  502 -0.00000000000E+00 -0.00000000000E+00 -0.40680339306E+02  0.40680339306E+02  0.00000000000E+00 0. -1.
      99926    2    1    2    0    0 -0.35527136788E-14  0.00000000000E+00  0.11345656795E+04  0.12159263581E+04  0.43730724582E+03 0.  0.
      99925    2    3    3    0    0  0.20052541144E+02  0.88073952478E+02  0.63922820045E+03  0.69711439626E+03  0.26305258734E+03 0.  0.
         25    1    3    3    0    0 -0.20052541144E+02 -0.88073952478E+02  0.49533747902E+03  0.51881196182E+03  0.12509000000E+03 0.  0.
         25    1    4    4    0    0  0.41676069390E+02  0.39752675181E+02  0.25870714736E+03  0.29307689458E+03  0.12509000000E+03 0.  0.
         25    1    4    4    0    0 -0.21623528246E+02  0.48321277297E+02  0.38052105309E+03  0.40403750167E+03  0.12509000000E+03 0.  0.
<mgrwt>
<rscale>  2 0.43730725E+03</rscale>
<asrwt>0</asrwt>
<pdfrwt beam="1">  1       21 0.17283027E+00 0.43730725E+03</pdfrwt>
<pdfrwt beam="2">  1       21 0.59824036E-02 0.43730725E+03</pdfrwt>
<totfact> 0.36420379E+04</totfact>
</mgrwt>
</event>
<event>
 7    0  0.4705418E-002  0.4245709E+03  0.7546771E-02  0.1035589E+00
         21   -1    0    0  502  501  0.00000000000E+00  0.00000000000E+00  0.83582237722E+03  0.83582237722E+03  0.00000000000E+00 0. -1.
         21   -1    0    0  501  502 -0.00000000000E+00 -0.00000000000E+00 -0.53917096172E+02  0.53917096172E+02  0.00000000000E+00 0. -1.
      99926    2    1    2    0    0  0.00000000000E+00  0.35527136788E-14  0.78190528105E+03  0.88973947340E+03  0.42457091514E+03 0.  0.
      99925    2    3    3    0    0  0.33514230523E+02 -0.19600583928E+02  0.65707023367E+03  0.70880113116E+03  0.26296456988E+03 0.  0.
         25    1    4    4    0    0  0.10835722772E+02  0.17332887810E+02  0.40068189466E+03  0.42025150885E+03  0.12509000000E+03 0.  0.
         25    1    4    4    0    0  0.22678507750E+02 -0.36933471737E+02  0.25638833902E+03  0.28854962230E+03  0.12509000000E+03 0.  0.
         25    1    3    3    0    0 -0.33514230523E+02  0.19600583928E+02  0.12483504738E+03  0.18093834224E+03  0.12509000000E+03 0.  0.
<mgrwt>
<rscale>  2 0.42457092E+03</rscale>
<asrwt>0</asrwt>
<pdfrwt beam="1">  1       21 0.12291505E+00 0.42457092E+03</pdfrwt>
<pdfrwt beam="2">  1       21 0.79289852E-02 0.42457092E+03</pdfrwt>
<totfact> 0.55838666E+04</totfact>
</mgrwt>
</event>
<event>
 7    0  0.4705418E-002  0.4559869E+03  0.7546771E-02  0.1025952E+00
         21   -1    0    0  502  501  0.00000000000E+00  0.00000000000E+00  0.52193093276E+02  0.52193093276E+02  0.00000000000E+00 0.  1.
         21   -1    0    0  501  502 -0.00000000000E+00 -0.00000000000E+00 -0.99593674581E+03  0.99593674581E+03  0.00000000000E+00 0.  1.
      99926    2    1    2    0    0  0.00000000000E+00  0.26645352591E-14 -0.94374365253E+03  0.10481298391E+04  0.45598692732E+03 0.  0.
      99925    2    3    3    0    0 -0.10164729106E+03  0.47137130687E+01 -0.71209530581E+03  0.76588374875E+03  0.26295208911E+03 0.  0.
         25    1    3    3    0    0  0.10164729106E+03 -0.47137130687E+01 -0.23164834672E+03  0.28224609033E+03  0.12509000000E+03 0.  0.
         25    1    4    4    0    0 -0.52674834993E+02  0.28849697458E+02 -0.44188372132E+03  0.46315836876E+03  0.12509000000E+03 0.  0.
         25    1    4    4    0    0 -0.48972456069E+02 -0.24135984389E+02 -0.27021158449E+03  0.30272537999E+03  0.12509000000E+03 0.  0.
<mgrwt>
<rscale>  2 0.45598693E+03</rscale>
<asrwt>0</asrwt>
<pdfrwt beam="1">  1       21 0.76754551E-02 0.45598693E+03</pdfrwt>
<pdfrwt beam="2">  1       21 0.14646128E+00 0.45598693E+03</pdfrwt>
<totfact> 0.37059774E+04</totfact>
</mgrwt>
</event>
<event>
 7    0  0.4705418E-002  0.4534257E+03  0.7546771E-02  0.1026705E+00
         21   -1    0    0  502  501  0.00000000000E+00  0.00000000000E+00  0.28044474725E+03  0.28044474725E+03  0.00000000000E+00 0.  1.
         21   -1    0    0  501  502 -0.00000000000E+00 -0.00000000000E+00 -0.18327575937E+03  0.18327575937E+03  0.00000000000E+00 0.  1.
      99926    2    1    2    0    0  0.00000000000E+00  0.14210854715E-13  0.97168987883E+02  0.46372050662E+03  0.45342573378E+03 0.  0.
      99925    2    3    3    0    0 -0.32613713220E+02  0.92028213041E+02  0.54879788981E+01  0.28045632083E+03  0.26285506214E+03 0.  0.
         25    1    3    3    0    0  0.32613713220E+02 -0.92028213041E+02  0.91681008985E+02  0.18326418579E+03  0.12509000000E+03 0.  0.
         25    1    4    4    0    0 -0.15910079062E+02  0.42654312387E+02 -0.37480247046E+02  0.13829243652E+03  0.12509000000E+03 0.  0.
         25    1    4    4    0    0 -0.16703634159E+02  0.49373900653E+02  0.42968225944E+02  0.14216388430E+03  0.12509000000E+03 0.  0.
<mgrwt>
<rscale>  2 0.45342573E+03</rscale>
<asrwt>0</asrwt>
<pdfrwt beam="1">  1       21 0.41241875E-01 0.45342573E+03</pdfrwt>
<pdfrwt beam="2">  1       21 0.26952318E-01 0.45342573E+03</pdfrwt>
<totfact> 0.68760851E+04</totfact>
</mgrwt>
</event>
<event>
 7    0  0.4705418E-002  0.4528870E+03  0.7546771E-02  0.1026865E+00
         21   -1    0    0  502  501  0.00000000000E+00  0.00000000000E+00  0.12767297376E+03  0.12767297376E+03  0.00000000000E+00 0.  1.
         21   -1    0    0  501  502 -0.00000000000E+00 -0.00000000000E+00 -0.40162509241E+03  0.40162509241E+03  0.00000000000E+00 0.  1.
      99926    2    1    2    0    0  0.00000000000E+00  0.00000000000E+00 -0.27395211865E+03  0.52929806617E+03  0.45288704943E+03 0.  0.
      99925    2    3    3    0    0 -0.18144835286E+02  0.10849053448E+03 -0.15393981351E+03  0.32399367604E+03  0.26301141575E+03 0.  0.
         25    1    3    3    0    0  0.18144835286E+02 -0.10849053448E+03 -0.12001230514E+03  0.20530439013E+03  0.12509000000E+03 0.  0.
         25    1    4    4    0    0 -0.30055924589E+02  0.17956150063E+02 -0.77827693732E+02  0.15142800249E+03  0.12509000000E+03 0.  0.
         25    1    4    4    0    0  0.11911089303E+02  0.90534384417E+02 -0.76112119775E+02  0.17256567355E+03  0.12509000000E+03 0.  0.
<mgrwt>
<rscale>  2 0.45288705E+03</rscale>
<asrwt>0</asrwt>
<pdfrwt beam="1">  1       21 0.18775438E-01 0.45288705E+03</pdfrwt>
<pdfrwt beam="2">  1       21 0.59062512E-01 0.45288705E+03</pdfrwt>
<totfact> 0.64324573E+04</totfact>
</mgrwt>
</event>
<event>
 7    0  0.4705418E-002  0.4528908E+03  0.7546771E-02  0.1026863E+00
         21   -1    0    0  502  501  0.00000000000E+00  0.00000000000E+00  0.45450787106E+03  0.45450787106E+03  0.00000000000E+00 0.  1.
         21   -1    0    0  501  502 -0.00000000000E+00 -0.00000000000E+00 -0.11281989255E+03  0.11281989255E+03  0.00000000000E+00 0.  1.
      99926    2    1    2    0    0  0.00000000000E+00  0.00000000000E+00  0.34168797851E+03  0.56732776361E+03  0.45289084414E+03 0.  0.
      99925    2    3    3    0    0 -0.92028685413E+01  0.27060372304E+02  0.81144464929E+02  0.27690154732E+03  0.26319780809E+03 0.  0.
         25    1    4    4    0    0  0.25944266674E+02  0.31962389239E+02  0.19941135486E+02  0.13319105181E+03  0.12509000000E+03 0.  0.
         25    1    4    4    0    0 -0.35147135216E+02 -0.49020169344E+01  0.61203329443E+02  0.14371049551E+03  0.12509000000E+03 0.  0.
         25    1    3    3    0    0  0.92028685413E+01 -0.27060372304E+02  0.26054351358E+03  0.29042621629E+03  0.12509000000E+03 0.  0.
<mgrwt>
<rscale>  2 0.45289084E+03</rscale>
<asrwt>0</asrwt>
<pdfrwt beam="1">  1       21 0.66839392E-01 0.45289084E+03</pdfrwt>
<pdfrwt beam="2">  1       21 0.16591161E-01 0.45289084E+03</pdfrwt>
<totfact> 0.61759509E+04</totfact>
</mgrwt>
</event>
<event>
 7    0  0.4705418E-002  0.4469575E+03  0.7546771E-02  0.1028633E+00
         21   -1    0    0  502  501  0.00000000000E+00  0.00000000000E+00  0.47557519335E+03  0.47557519335E+03  0.00000000000E+00 0.  1.
         21   -1    0    0  501  502 -0.00000000000E+00 -0.00000000000E+00 -0.10501548697E+03  0.10501548697E+03  0.00000000000E+00 0.  1.
      99926    2    1    2    0    0  0.14210854715E-13 -0.22204460493E-14  0.37055970637E+03  0.58059068032E+03  0.44695753947E+03 0.  0.
      99925    2    3    3    0    0 -0.10489068463E+03 -0.21763163360E+01  0.24970974214E+03  0.37746753041E+03  0.26290680691E+03 0.  0.
         25    1    4    4    0    0 -0.67281263387E+02  0.30524153027E+02  0.10149769389E+03  0.17722240909E+03  0.12509000000E+03 0.  0.
         25    1    4    4    0    0 -0.37609421243E+02 -0.32700469363E+02  0.14821204826E+03  0.20024512132E+03  0.12509000000E+03 0.  0.
         25    1    3    3    0    0  0.10489068463E+03  0.21763163360E+01  0.12084996423E+03  0.20312314991E+03  0.12509000000E+03 0.  0.
<mgrwt>
<rscale>  2 0.44695754E+03</rscale>
<asrwt>0</asrwt>
<pdfrwt beam="1">  1       21 0.69937527E-01 0.44695754E+03</pdfrwt>
<pdfrwt beam="2">  1       21 0.15443454E-01 0.44695754E+03</pdfrwt>
<totfact> 0.63853034E+04</totfact>
</mgrwt>
</event>
<event>
 7    0  0.4705418E-002  0.4502720E+03  0.7546771E-02  0.1027641E+00
         21   -1    0    0  502  501  0.00000000000E+00  0.00000000000E+00  0.50639178714E+03  0.50639178714E+03  0.00000000000E+00 0.  1.
         21   -1    0    0  501  502 -0.00000000000E+00 -0.00000000000E+00 -0.10009290297E+03  0.10009290297E+03  0.00000000000E+00 0.  1.
      99926    2    1    2    0    0  0.00000000000E+00  0.00000000000E+00  0.40629888416E+03  0.60648469011E+03  0.45027202452E+03 0.  0.
      99925    2    3    3    0    0 -0.71255522957E+02 -0.64065217099E+02  0.18763044734E+03  0.33695714985E+03  0.26297002581E+03 0.  0.
         25    1    4    4    0    0  0.18866568424E+01 -0.46686452331E+02  0.80561350046E+02  0.15595134987E+03  0.12509000000E+03 0.  0.
         25    1    4    4    0    0 -0.73142179799E+02 -0.17378764768E+02  0.10706909729E+03  0.18100579998E+03  0.12509000000E+03 0.  0.
         25    1    3    3    0    0  0.71255522957E+02  0.64065217099E+02  0.21866843683E+03  0.26952754026E+03  0.12509000000E+03 0.  0.
<mgrwt>
<rscale>  2 0.45027202E+03</rscale>
<asrwt>0</asrwt>
<pdfrwt beam="1">  1       21 0.74469379E-01 0.45027202E+03</pdfrwt>
<pdfrwt beam="2">  1       21 0.14719545E-01 0.45027202E+03</pdfrwt>
<totfact> 0.60509373E+04</totfact>
</mgrwt>
</event>
<event>
 7    0  0.4705418E-002  0.4355411E+03  0.7546771E-02  0.1032124E+00
         21   -1    0    0  502  501  0.00000000000E+00  0.00000000000E+00  0.33420567646E+03  0.33420567646E+03  0.00000000000E+00 0. -1.
         21   -1    0    0  501  502 -0.00000000000E+00 -0.00000000000E+00 -0.14190067843E+03  0.14190067843E+03  0.00000000000E+00 0. -1.
      99926    2    1    2    0    0  0.00000000000E+00 -0.71054273576E-14  0.19230499803E+03  0.47610635489E+03  0.43554109898E+03 0.  0.
      99925    2    3    3    0    0 -0.17105714996E+02  0.56638569990E+02  0.20278482598E+03  0.33733363426E+03  0.26300525102E+03 0.  0.
         25    1    3    3    0    0  0.17105714996E+02 -0.56638569990E+02 -0.10479827945E+02  0.13877272063E+03  0.12509000000E+03 0.  0.
         25    1    4    4    0    0  0.15491481680E+02  0.61113361697E+02  0.11111086607E+03  0.17879586584E+03  0.12509000000E+03 0.  0.
         25    1    4    4    0    0 -0.32597196676E+02 -0.44747917074E+01  0.91673959908E+02  0.15853776843E+03  0.12509000000E+03 0.  0.
<mgrwt>
<rscale>  2 0.43554110E+03</rscale>
<asrwt>0</asrwt>
<pdfrwt beam="1">  1       21 0.49147893E-01 0.43554110E+03</pdfrwt>
<pdfrwt beam="2">  1       21 0.20867747E-01 0.43554110E+03</pdfrwt>
<totfact> 0.78415332E+04</totfact>
</mgrwt>
</event>
<event>
 7    0  0.4705418E-002  0.4571136E+03  0.7546771E-02  0.1025622E+00
         21   -1    0    0  502  501  0.00000000000E+00  0.00000000000E+00  0.62028545716E+02  0.62028545716E+02  0.00000000000E+00 0.  1.
         21   -1    0    0  501  502 -0.00000000000E+00 -0.00000000000E+00 -0.84216388251E+03  0.84216388251E+03  0.00000000000E+00 0.  1.
      99926    2    1    2    0    0  0.00000000000E+00  0.35527136788E-14 -0.78013533680E+03  0.90419242823E+03  0.45711355651E+03 0.  0.
      99925    2    3    3    0    0  0.22135854153E+02  0.25683341416E+02 -0.70735009103E+03  0.75554912980E+03  0.26336420828E+03 0.  0.
         25    1    4    4    0    0  0.22355391247E+02 -0.25546167173E+02 -0.37464744789E+03  0.39643484772E+03  0.12509000000E+03 0.  0.
         25    1    4    4    0    0 -0.21953709387E+00  0.51229508589E+02 -0.33270264314E+03  0.35911428209E+03  0.12509000000E+03 0.  0.
         25    1    3    3    0    0 -0.22135854153E+02 -0.25683341416E+02 -0.72785245771E+02  0.14864329843E+03  0.12509000000E+03 0.  0.
<mgrwt>
<rscale>  2 0.45711356E+03</rscale>
<asrwt>0</asrwt>
<pdfrwt beam="1">  1       21 0.91218458E-02 0.45711356E+03</pdfrwt>
<pdfrwt beam="2">  1       21 0.12384762E+00 0.45711356E+03</pdfrwt>
<totfact> 0.42347840E+04</totfact>
</mgrwt>
</event>
<event>
 7    0  0.4705418E-002  0.4565560E+03  0.7546771E-02  0.1025785E+00
         21   -1    0    0  502  501  0.00000000000E+00  0.00000000000E+00  0.18771036607E+03  0.18771036607E+03  0.00000000000E+00 0.  1.
         21   -1    0    0  501  502 -0.00000000000E+00 -0.00000000000E+00 -0.27761307827E+03  0.27761307827E+03  0.00000000000E+00 0.  1.
      99926    2    1    2    0    0  0.71054273576E-14  0.00000000000E+00 -0.89902712198E+02  0.46532344434E+03  0.45655603182E+03 0.  0.
      99925    2    3    3    0    0 -0.51850419171E+02  0.67700576931E+02  0.20981214901E+02  0.27766794222E+03  0.26341495909E+03 0.  0.
         25    1    4    4    0    0  0.68343394960E+01  0.77805620993E+01 -0.63625647277E+00  0.12551955332E+03  0.12509000000E+03 0.  0.
         25    1    3    3    0    0  0.51850419171E+02 -0.67700576931E+02 -0.11088392710E+03  0.18765550211E+03  0.12509000000E+03 0.  0.
         25    1    4    4    0    0 -0.58684758667E+02  0.59920014832E+02  0.21617471373E+02  0.15214838890E+03  0.12509000000E+03 0.  0.
<mgrwt>
<rscale>  2 0.45655603E+03</rscale>
<asrwt>0</asrwt>
<pdfrwt beam="1">  1       21 0.27604466E-01 0.45655603E+03</pdfrwt>
<pdfrwt beam="2">  1       21 0.40825452E-01 0.45655603E+03</pdfrwt>
<totfact> 0.66954200E+04</totfact>
</mgrwt>
</event>
<event>
 7    0  0.4705418E-002  0.4274995E+03  0.7546771E-02  0.1034653E+00
         21   -1    0    0  502  501  0.00000000000E+00  0.00000000000E+00  0.60598597568E+03  0.60598597568E+03  0.00000000000E+00 0.  1.
         21   -1    0    0  501  502 -0.00000000000E+00 -0.00000000000E+00 -0.75396045795E+02  0.75396045795E+02  0.00000000000E+00 0.  1.
      99926    2    1    2    0    0  0.00000000000E+00  0.00000000000E+00  0.53058992989E+03  0.68138202148E+03  0.42749945672E+03 0.  0.
      99925    2    3    3    0    0 -0.38372414019E+02 -0.75526881744E+02  0.33731664800E+03  0.43606830067E+03  0.26305187665E+03 0.  0.
         25    1    4    4    0    0 -0.18864617861E+02 -0.56804203581E+02  0.11772404042E+03  0.18190395583E+03  0.12509000000E+03 0.  0.
         25    1    3    3    0    0  0.38372414019E+02  0.75526881744E+02  0.19327328189E+03  0.24531372080E+03  0.12509000000E+03 0.  0.
         25    1    4    4    0    0 -0.19507796158E+02 -0.18722678164E+02  0.21959260758E+03  0.25416434485E+03  0.12509000000E+03 0.  0.
<mgrwt>
<rscale>  2 0.42749946E+03</rscale>
<asrwt>0</asrwt>
<pdfrwt beam="1">  1       21 0.89115582E-01 0.42749946E+03</pdfrwt>
<pdfrwt beam="2">  1       21 0.11087654E-01 0.42749946E+03</pdfrwt>
<totfact> 0.67370846E+04</totfact>
</mgrwt>
</event>
<event>
 7    0  0.4705418E-002  0.4731602E+03  0.7546771E-02  0.1021032E+00
         21   -1    0    0  502  501  0.00000000000E+00  0.00000000000E+00  0.10827088223E+03  0.10827088223E+03  0.00000000000E+00 0. -1.
         21   -1    0    0  501  502 -0.00000000000E+00 -0.00000000000E+00 -0.51694550023E+03  0.51694550023E+03  0.00000000000E+00 0. -1.
      99926    2    1    2    0    0 -0.17763568394E-14  0.00000000000E+00 -0.40867461799E+03  0.62521638246E+03  0.47316020702E+03 0.  0.
      99925    2    3    3    0    0 -0.91668521495E+01 -0.70362498989E+02 -0.39626112154E+03  0.48086779246E+03  0.26301339308E+03 0.  0.
         25    1    3    3    0    0  0.91668521495E+01  0.70362498989E+02 -0.12413496455E+02  0.14434859001E+03  0.12509000000E+03 0.  0.
         25    1    4    4    0    0 -0.27734679644E+02 -0.10273103949E+02 -0.14957251425E+03  0.19721611049E+03  0.12509000000E+03 0.  0.
         25    1    4    4    0    0  0.18567827494E+02 -0.60089395040E+02 -0.24668860729E+03  0.28365168196E+03  0.12509000000E+03 0.  0.
<mgrwt>
<rscale>  2 0.47316021E+03</rscale>
<asrwt>0</asrwt>
<pdfrwt beam="1">  1       21 0.15922188E-01 0.47316021E+03</pdfrwt>
<pdfrwt beam="2">  1       21 0.76021398E-01 0.47316021E+03</pdfrwt>
<totfact> 0.49641638E+04</totfact>
</mgrwt>
</event>
<event>
 7    0  0.4705418E-002  0.4584913E+03  0.7546771E-02  0.1025220E+00
         21   -1    0    0  502  501  0.00000000000E+00  0.00000000000E+00  0.21753529088E+03  0.21753529088E+03  0.00000000000E+00 0.  1.
         21   -1    0    0  501  502 -0.00000000000E+00 -0.00000000000E+00 -0.24158641246E+03  0.24158641246E+03  0.00000000000E+00 0.  1.
      99926    2    1    2    0    0  0.00000000000E+00  0.00000000000E+00 -0.24051121581E+02  0.45912170334E+03  0.45849131074E+03 0.  0.
      99925    2    3    3    0    0 -0.22564297827E+02  0.81557482524E+02 -0.95111916957E+02  0.29221479746E+03  0.26302555126E+03 0.  0.
         25    1    4    4    0    0 -0.83367946489E+01 -0.15441494322E+01 -0.39773138156E+02  0.13153439535E+03  0.12509000000E+03 0.  0.
         25    1    3    3    0    0  0.22564297827E+02 -0.81557482524E+02  0.71060795376E+02  0.16690690588E+03  0.12509000000E+03 0.  0.
         25    1    4    4    0    0 -0.14227503178E+02  0.83101631956E+02 -0.55338778801E+02  0.16068040210E+03  0.12509000000E+03 0.  0.
<mgrwt>
<rscale>  2 0.45849131E+03</rscale>
<asrwt>0</asrwt>
<pdfrwt beam="1">  1       21 0.31990484E-01 0.45849131E+03</pdfrwt>
<pdfrwt beam="2">  1       21 0.35527414E-01 0.45849131E+03</pdfrwt>
<totfact> 0.66376530E+04</totfact>
</mgrwt>
</event>
<event>
 7    0  0.4705418E-002  0.4658504E+03  0.7546771E-02  0.1023098E+00
         21   -1    0    0  502  501  0.00000000000E+00  0.00000000000E+00  0.39097051170E+02  0.39097051170E+02  0.00000000000E+00 0. -1.
         21   -1    0    0  501  502 -0.00000000000E+00 -0.00000000000E+00 -0.13876790862E+04  0.13876790862E+04  0.00000000000E+00 0. -1.
      99926    2    1    2    0    0  0.00000000000E+00  0.00000000000E+00 -0.13485820350E+04  0.14267761373E+04  0.46585044913E+03 0.  0.
      99925    2    3    3    0    0 -0.74585547796E+02 -0.82308114445E+02 -0.67866266917E+03  0.73628566351E+03  0.26305119295E+03 0.  0.
         25    1    4    4    0    0 -0.45143107805E+01 -0.58586048217E+02 -0.28734093048E+03  0.31884952952E+03  0.12509000000E+03 0.  0.
         25    1    4    4    0    0 -0.70071237016E+02 -0.23722066228E+02 -0.39132173869E+03  0.41743613398E+03  0.12509000000E+03 0.  0.
         25    1    3    3    0    0  0.74585547796E+02  0.82308114445E+02 -0.66991936581E+03  0.69049047382E+03  0.12509000000E+03 0.  0.
<mgrwt>
<rscale>  2 0.46585045E+03</rscale>
<asrwt>0</asrwt>
<pdfrwt beam="1">  1       21 0.57495681E-02 0.46585045E+03</pdfrwt>
<pdfrwt beam="2">  1       21 0.20407039E+00 0.46585045E+03</pdfrwt>
<totfact> 0.23575929E+04</totfact>
</mgrwt>
</event>
<event>
 7    0  0.4705418E-002  0.4569452E+03  0.7546771E-02  0.1025671E+00
         21   -1    0    0  502  501  0.00000000000E+00  0.00000000000E+00  0.31825344326E+03  0.31825344326E+03  0.00000000000E+00 0. -1.
         21   -1    0    0  501  502 -0.00000000000E+00 -0.00000000000E+00 -0.16401933945E+03  0.16401933945E+03  0.00000000000E+00 0. -1.
      99926    2    1    2    0    0 -0.14210854715E-13 -0.44408920985E-15  0.15423410382E+03  0.48227278271E+03  0.45694515881E+03 0.  0.
      99925    2    3    3    0    0 -0.10104864349E+03  0.25454019981E+01  0.38866202219E+02  0.28434711928E+03  0.26291708797E+03 0.  0.
         25    1    3    3    0    0  0.10104864349E+03 -0.25454019981E+01  0.11536790160E+03  0.19792566343E+03  0.12509000000E+03 0.  0.
         25    1    4    4    0    0 -0.74819724150E+01 -0.32925306760E+01  0.17529231111E+02  0.12657646982E+03  0.12509000000E+03 0.  0.
         25    1    4    4    0    0 -0.93566671080E+02  0.58379326741E+01  0.21336971108E+02  0.15777064946E+03  0.12509000000E+03 0.  0.
<mgrwt>
<rscale>  2 0.45694516E+03</rscale>
<asrwt>0</asrwt>
<pdfrwt beam="1">  1       21 0.46801977E-01 0.45694516E+03</pdfrwt>
<pdfrwt beam="2">  1       21 0.24120491E-01 0.45694516E+03</pdfrwt>
<totfact> 0.65517570E+04</totfact>
</mgrwt>
</event>
<event>
 7    0  0.4705418E-002  0.4506239E+03  0.7546771E-02  0.1027536E+00
         21   -1    0    0  502  501  0.00000000000E+00  0.00000000000E+00  0.51410325775E+03  0.51410325775E+03  0.00000000000E+00 0.  1.
         21   -1    0    0  501  502 -0.00000000000E+00 -0.00000000000E+00 -0.98745676310E+02  0.98745676310E+02  0.00000000000E+00 0.  1.
      99926    2    1    2    0    0  0.00000000000E+00  0.22204460493E-14  0.41535758144E+03  0.61284893406E+03  0.45062389586E+03 0.  0.
      99925    2    3    3    0    0 -0.10419984836E+03  0.32981493169E+01  0.30565359755E+03  0.41650495435E+03  0.26302807667E+03 0.  0.
         25    1    4    4    0    0 -0.51623611357E+02 -0.33810161827E+02  0.18130670414E+03  0.22875260296E+03  0.12509000000E+03 0.  0.
         25    1    4    4    0    0 -0.52576237006E+02  0.37108311144E+02  0.12434689341E+03  0.18775235140E+03  0.12509000000E+03 0.  0.
         25    1    3    3    0    0  0.10419984836E+03 -0.32981493169E+01  0.10970398389E+03  0.19634397971E+03  0.12509000000E+03 0.  0.
<mgrwt>
<rscale>  2 0.45062390E+03</rscale>
<asrwt>0</asrwt>
<pdfrwt beam="1">  1       21 0.75603419E-01 0.45062390E+03</pdfrwt>
<pdfrwt beam="2">  1       21 0.14521423E-01 0.45062390E+03</pdfrwt>
<totfact> 0.59939226E+04</totfact>
</mgrwt>
</event>
<event>
 7    0  0.4705418E-002  0.4588084E+03  0.7546771E-02  0.1025127E+00
         21   -1    0    0  502  501  0.00000000000E+00  0.00000000000E+00  0.90979261737E+02  0.90979261737E+02  0.00000000000E+00 0.  1.
         21   -1    0    0  501  502 -0.00000000000E+00 -0.00000000000E+00 -0.57844271492E+03  0.57844271492E+03  0.00000000000E+00 0.  1.
      99926    2    1    2    0    0 -0.17763568394E-14  0.00000000000E+00 -0.48746345319E+03  0.66942197666E+03  0.45880841824E+03 0.  0.
      99925    2    3    3    0    0  0.14804713879E+02  0.57351220036E+01 -0.13703493541E+03  0.29699785640E+03  0.26301536459E+03 0.  0.
         25    1    4    4    0    0  0.46453072142E+02  0.90068096597E+00 -0.82114806554E+02  0.15668136039E+03  0.12509000000E+03 0.  0.
         25    1    4    4    0    0 -0.31648358263E+02  0.48344410376E+01 -0.54920128855E+02  0.14031649602E+03  0.12509000000E+03 0.  0.
         25    1    3    3    0    0 -0.14804713879E+02 -0.57351220036E+01 -0.35042851778E+03  0.37242412026E+03  0.12509000000E+03 0.  0.
<mgrwt>
<rscale>  2 0.45880842E+03</rscale>
<asrwt>0</asrwt>
<pdfrwt beam="1">  1       21 0.13379303E-01 0.45880842E+03</pdfrwt>
<pdfrwt beam="2">  1       21 0.85065106E-01 0.45880842E+03</pdfrwt>
<totfact> 0.52986007E+04</totfact>
</mgrwt>
</event>
<event>
 7    0  0.4705418E-002  0.4560741E+03  0.7546771E-02  0.1025926E+00
         21   -1    0    0  502  501  0.00000000000E+00  0.00000000000E+00  0.43509801545E+02  0.43509801545E+02  0.00000000000E+00 0.  1.
         21   -1    0    0  501  502 -0.00000000000E+00 -0.00000000000E+00 -0.11951537219E+04  0.11951537219E+04  0.00000000000E+00 0.  1.
      99926    2    1    2    0    0  0.00000000000E+00  0.35527136788E-14 -0.11516439204E+04  0.12386635235E+04  0.45607412230E+03 0.  0.
      99925    2    3    3    0    0  0.74961786322E+02 -0.11028397963E+02 -0.49238453721E+03  0.56337740828E+03  0.26307922135E+03 0.  0.
         25    1    4    4    0    0  0.22588659855E+02 -0.43407417951E+02 -0.24571699438E+03  0.28003357105E+03  0.12509000000E+03 0.  0.
         25    1    3    3    0    0 -0.74961786322E+02  0.11028397963E+02 -0.65925938319E+03  0.67528611521E+03  0.12509000000E+03 0.  0.
         25    1    4    4    0    0  0.52373126467E+02  0.32379019988E+02 -0.24666754283E+03  0.28334383723E+03  0.12509000000E+03 0.  0.
<mgrwt>
<rscale>  2 0.45607412E+03</rscale>
<asrwt>0</asrwt>
<pdfrwt beam="1">  1       21 0.63985018E-02 0.45607412E+03</pdfrwt>
<pdfrwt beam="2">  1       21 0.17575786E+00 0.45607412E+03</pdfrwt>
<totfact> 0.30691905E+04</totfact>
</mgrwt>
</event>
<event>
 7    0  0.4705418E-002  0.4514973E+03  0.7546771E-02  0.1027276E+00
         21   -1    0    0  502  501  0.00000000000E+00  0.00000000000E+00  0.39961593106E+03  0.39961593106E+03  0.00000000000E+00 0. -1.
         21   -1    0    0  501  502 -0.00000000000E+00 -0.00000000000E+00 -0.12752858657E+03  0.12752858657E+03  0.00000000000E+00 0. -1.
      99926    2    1    2    0    0  0.88817841970E-15  0.14210854715E-13  0.27208734449E+03  0.52714451763E+03  0.45149730833E+03 0.  0.
      99925    2    3    3    0    0  0.68901462005E+01 -0.82933457824E+02  0.25519742284E+03  0.37595519891E+03  0.26323213030E+03 0.  0.
         25    1    4    4    0    0 -0.10873164548E+02 -0.73458756727E+01  0.14565377286E+03  0.19244406264E+03  0.12509000000E+03 0.  0.
         25    1    3    3    0    0 -0.68901462005E+01  0.82933457824E+02  0.16889921656E+02  0.15118931872E+03  0.12509000000E+03 0.  0.
         25    1    4    4    0    0  0.17763310748E+02 -0.75587582151E+02  0.10954364998E+03  0.18351113627E+03  0.12509000000E+03 0.  0.
<mgrwt>
<rscale>  2 0.45149731E+03</rscale>
<asrwt>0</asrwt>
<pdfrwt beam="1">  1       21 0.58767048E-01 0.45149731E+03</pdfrwt>
<pdfrwt beam="2">  1       21 0.18754204E-01 0.45149731E+03</pdfrwt>
<totfact> 0.65191440E+04</totfact>
</mgrwt>
</event>
<event>
 7    0  0.4705418E-002  0.4303364E+03  0.7546771E-02  0.1033754E+00
         21   -1    0    0  502  501  0.00000000000E+00  0.00000000000E+00  0.34495596220E+03  0.34495596220E+03  0.00000000000E+00 0. -1.
         21   -1    0    0  501  502 -0.00000000000E+00 -0.00000000000E+00 -0.13421236901E+03  0.13421236901E+03  0.00000000000E+00 0. -1.
      99926    2    1    2    0    0  0.35527136788E-14  0.00000000000E+00  0.21074359319E+03  0.47916833121E+03  0.43033641208E+03 0.  0.
      99925    2    3    3    0    0  0.18909110529E+02 -0.40459445998E+02  0.51305853865E+02  0.27165345932E+03  0.26299960093E+03 0.  0.
         25    1    4    4    0    0 -0.23761313310E+02 -0.41292968412E+02  0.35918092119E+02  0.13859050001E+03  0.12509000000E+03 0.  0.
         25    1    3    3    0    0 -0.18909110529E+02  0.40459445998E+02  0.15943773933E+03  0.20751487188E+03  0.12509000000E+03 0.  0.
         25    1    4    4    0    0  0.42670423840E+02  0.83352241411E+00  0.15387761746E+02  0.13306295932E+03  0.12509000000E+03 0.  0.
<mgrwt>
<rscale>  2 0.43033641E+03</rscale>
<asrwt>0</asrwt>
<pdfrwt beam="1">  1       21 0.50728818E-01 0.43033641E+03</pdfrwt>
<pdfrwt beam="2">  1       21 0.19737113E-01 0.43033641E+03</pdfrwt>
<totfact> 0.81605332E+04</totfact>
</mgrwt>
</event>
<event>
 7    0  0.4705418E-002  0.4608843E+03  0.7546771E-02  0.1024525E+00
         21   -1    0    0  502  501  0.00000000000E+00  0.00000000000E+00  0.92943278586E+03  0.92943278586E+03  0.00000000000E+00 0. -1.
         21   -1    0    0  501  502 -0.00000000000E+00 -0.00000000000E+00 -0.57135471790E+02  0.57135471790E+02  0.00000000000E+00 0. -1.
      99926    2    1    2    0    0  0.00000000000E+00 -0.35527136788E-14  0.87229731407E+03  0.98656825765E+03  0.46088428360E+03 0.  0.
      99925    2    3    3    0    0  0.71391339548E+02  0.30268019269E+02  0.35409201389E+03  0.44786878894E+03  0.26304452371E+03 0.  0.
         25    1    4    4    0    0  0.29049531567E+02  0.50400125683E+02  0.21114169363E+03  0.25221492985E+03  0.12509000000E+03 0.  0.
         25    1    3    3    0    0 -0.71391339548E+02 -0.30268019269E+02  0.51820530018E+03  0.53869946871E+03  0.12509000000E+03 0.  0.
         25    1    4    4    0    0  0.42341807982E+02 -0.20132106415E+02  0.14295032026E+03  0.19565385908E+03  0.12509000000E+03 0.  0.
<mgrwt>
<rscale>  2 0.46088428E+03</rscale>
<asrwt>0</asrwt>
<pdfrwt beam="1">  1       21 0.13668128E+00 0.46088428E+03</pdfrwt>
<pdfrwt beam="2">  1       21 0.84022758E-02 0.46088428E+03</pdfrwt>
<totfact> 0.37919763E+04</totfact>
</mgrwt>
</event>
<event>
 7    0  0.4705418E-002  0.4372918E+03  0.7546771E-02  0.1031581E+00
         21   -1    0    0  502  501  0.00000000000E+00  0.00000000000E+00  0.28456813350E+03  0.28456813350E+03  0.00000000000E+00 0. -1.
         21   -1    0    0  501  502 -0.00000000000E+00 -0.00000000000E+00 -0.16799503912E+03  0.16799503912E+03  0.00000000000E+00 0. -1.
      99926    2    1    2    0    0  0.71054273576E-14 -0.14210854715E-13  0.11657309438E+03  0.45256317263E+03  0.43729182348E+03 0.  0.
      99925    2    3    3    0    0  0.48680074569E+02 -0.81148254696E+02  0.60831756465E+02  0.28610178446E+03  0.26305691318E+03 0.  0.
         25    1    4    4    0    0  0.30037584531E+02 -0.69630154391E+02  0.23789241940E+01  0.14630031533E+03  0.12509000000E+03 0.  0.
         25    1    3    3    0    0 -0.48680074569E+02  0.81148254696E+02  0.55741337915E+02  0.16646138817E+03  0.12509000000E+03 0.  0.
         25    1    4    4    0    0  0.18642490038E+02 -0.11518100304E+02  0.58452832270E+02  0.13980146913E+03  0.12509000000E+03 0.  0.
<mgrwt>
<rscale>  2 0.43729182E+03</rscale>
<asrwt>0</asrwt>
<pdfrwt beam="1">  1       21 0.41848255E-01 0.43729182E+03</pdfrwt>
<pdfrwt beam="2">  1       21 0.24705153E-01 0.43729182E+03</pdfrwt>
<totfact> 0.79325341E+04</totfact>
</mgrwt>
</event>
<event>
 7    0  0.4705418E-002  0.4509461E+03  0.7546771E-02  0.1027440E+00
         21   -1    0    0  502  501  0.00000000000E+00  0.00000000000E+00  0.23923082494E+03  0.23923082494E+03  0.00000000000E+00 0.  1.
         21   -1    0    0  501  502 -0.00000000000E+00 -0.00000000000E+00 -0.21250641671E+03  0.21250641671E+03  0.00000000000E+00 0.  1.
      99926    2    1    2    0    0  0.00000000000E+00  0.00000000000E+00  0.26724408237E+02  0.45173724165E+03  0.45094605165E+03 0.  0.
      99925    2    3    3    0    0 -0.10232589381E+03 -0.17473025308E+02  0.52034095366E+02  0.28722589396E+03  0.26270757873E+03 0.  0.
         25    1    4    4    0    0 -0.72977669176E+02 -0.40162075619E+02  0.12084441128E+02  0.15077225983E+03  0.12509000000E+03 0.  0.
         25    1    4    4    0    0 -0.29348224631E+02  0.22689050312E+02  0.39949654237E+02  0.13645363413E+03  0.12509000000E+03 0.  0.
         25    1    3    3    0    0  0.10232589381E+03  0.17473025308E+02 -0.25309687128E+02  0.16451134769E+03  0.12509000000E+03 0.  0.
<mgrwt>
<rscale>  2 0.45094605E+03</rscale>
<asrwt>0</asrwt>
<pdfrwt beam="1">  1       21 0.35181004E-01 0.45094605E+03</pdfrwt>
<pdfrwt beam="2">  1       21 0.31250944E-01 0.45094605E+03</pdfrwt>
<totfact> 0.71056216E+04</totfact>
</mgrwt>
</event>
<event>
 7    0  0.4705418E-002  0.4511034E+03  0.7546771E-02  0.1027394E+00
         21   -1    0    0  502  501  0.00000000000E+00  0.00000000000E+00  0.61952184646E+03  0.61952184646E+03  0.00000000000E+00 0. -1.
         21   -1    0    0  501  502 -0.00000000000E+00 -0.00000000000E+00 -0.82117470492E+02  0.82117470492E+02  0.00000000000E+00 0. -1.
      99926    2    1    2    0    0  0.00000000000E+00  0.00000000000E+00  0.53740437597E+03  0.70163931695E+03  0.45110338924E+03 0.  0.
      99925    2    3    3    0    0  0.85951247586E+02  0.57897397427E+02  0.39430068955E+03  0.48515398545E+03  0.26298598865E+03 0.  0.
         25    1    4    4    0    0  0.84931943995E+02  0.27626735006E+02  0.20416497849E+03  0.25555335674E+03  0.12509000000E+03 0.  0.
         25    1    4    4    0    0  0.10193035905E+01  0.30270662421E+02  0.19013571106E+03  0.22960062871E+03  0.12509000000E+03 0.  0.
         25    1    3    3    0    0 -0.85951247586E+02 -0.57897397427E+02  0.14310368642E+03  0.21648533150E+03  0.12509000000E+03 0.  0.
<mgrwt>
<rscale>  2 0.45110339E+03</rscale>
<asrwt>0</asrwt>
<pdfrwt beam="1">  1       21 0.91106151E-01 0.45110339E+03</pdfrwt>
<pdfrwt beam="2">  1       21 0.12076099E-01 0.45110339E+03</pdfrwt>
<totfact> 0.54465032E+04</totfact>
</mgrwt>
</event>
<event>
 7    0  0.4705418E-002  0.4547148E+03  0.7546771E-02  0.1026325E+00
         21   -1    0    0  502  501  0.00000000000E+00  0.00000000000E+00  0.23514300314E+03  0.23514300314E+03  0.00000000000E+00 0.  1.
         21   -1    0    0  501  502 -0.00000000000E+00 -0.00000000000E+00 -0.21982958892E+03  0.21982958892E+03  0.00000000000E+00 0.  1.
      99926    2    1    2    0    0  0.00000000000E+00  0.00000000000E+00  0.15313414222E+02  0.45497259206E+03  0.45471481048E+03 0.  0.
      99925    2    3    3    0    0  0.76670361969E+02  0.63696965629E+02 -0.43317694581E+02  0.28461777747E+03  0.26304982181E+03 0.  0.
         25    1    4    4    0    0  0.24965042129E+02  0.47153473913E+01  0.90351220117E+01  0.12796339070E+03  0.12509000000E+03 0.  0.
         25    1    4    4    0    0  0.51705319840E+02  0.58981618238E+02 -0.52352816593E+02  0.15665438677E+03  0.12509000000E+03 0.  0.
         25    1    3    3    0    0 -0.76670361969E+02 -0.63696965629E+02  0.58631108803E+02  0.17035481459E+03  0.12509000000E+03 0.  0.
<mgrwt>
<rscale>  2 0.45471481E+03</rscale>
<asrwt>0</asrwt>
<pdfrwt beam="1">  1       21 0.34579854E-01 0.45471481E+03</pdfrwt>
<pdfrwt beam="2">  1       21 0.32327881E-01 0.45471481E+03</pdfrwt>
<totfact> 0.68704017E+04</totfact>
</mgrwt>
</event>
<event>
 7    0  0.4705418E-002  0.4758773E+03  0.7546771E-02  0.1020274E+00
         21   -1    0    0  502  501  0.00000000000E+00  0.00000000000E+00  0.21188172795E+03  0.21188172795E+03  0.00000000000E+00 0.  1.
         21   -1    0    0  501  502 -0.00000000000E+00 -0.00000000000E+00 -0.26720001528E+03  0.26720001528E+03  0.00000000000E+00 0.  1.
      99926    2    1    2    0    0  0.14210854715E-13  0.00000000000E+00 -0.55318287332E+02  0.47908174322E+03  0.47587729908E+03 0.  0.
      99925    2    3    3    0    0  0.92583584259E+02 -0.86111760815E+02  0.32426545992E+01  0.29182831216E+03  0.26299485460E+03 0.  0.
         25    1    4    4    0    0  0.13855147033E+02 -0.58829477830E+02 -0.17804678927E+02  0.14006208357E+03  0.12509000000E+03 0.  0.
         25    1    3    3    0    0 -0.92583584259E+02  0.86111760815E+02 -0.58560941931E+02  0.18725343106E+03  0.12509000000E+03 0.  0.
         25    1    4    4    0    0  0.78728437226E+02 -0.27282282985E+02  0.21047333526E+02  0.15176622859E+03  0.12509000000E+03 0.  0.
<mgrwt>
<rscale>  2 0.47587730E+03</rscale>
<asrwt>0</asrwt>
<pdfrwt beam="1">  1       21 0.31159078E-01 0.47587730E+03</pdfrwt>
<pdfrwt beam="2">  1       21 0.39294120E-01 0.47587730E+03</pdfrwt>
<totfact> 0.56756685E+04</totfact>
</mgrwt>
</event>
<event>
 7    0  0.4705418E-002  0.4521149E+03  0.7546771E-02  0.1027093E+00
         21   -1    0    0  502  501  0.00000000000E+00  0.00000000000E+00  0.10154174832E+03  0.10154174832E+03  0.00000000000E+00 0. -1.
         21   -1    0    0  501  502 -0.00000000000E+00 -0.00000000000E+00 -0.50326061327E+03  0.50326061327E+03  0.00000000000E+00 0. -1.
      99926    2    1    2    0    0  0.71054273576E-14  0.14210854715E-13 -0.40171886496E+03  0.60480236159E+03  0.45211486386E+03 0.  0.
      99925    2    3    3    0    0  0.46685080179E+02  0.96755556842E+02 -0.28773281261E+03  0.40434921813E+03  0.26299616777E+03 0.  0.
         25    1    4    4    0    0  0.45559578623E+01  0.38818670265E+02 -0.87319343153E+02  0.15747959138E+03  0.12509000000E+03 0.  0.
         25    1    3    3    0    0 -0.46685080179E+02 -0.96755556842E+02 -0.11398605235E+03  0.20045314346E+03  0.12509000000E+03 0.  0.
         25    1    4    4    0    0  0.42129122317E+02  0.57936886577E+02 -0.20041346945E+03  0.24686962675E+03  0.12509000000E+03 0.  0.
<mgrwt>
<rscale>  2 0.45211486E+03</rscale>
<asrwt>0</asrwt>
<pdfrwt beam="1">  1       21 0.14932610E-01 0.45211486E+03</pdfrwt>
<pdfrwt beam="2">  1       21 0.74008913E-01 0.45211486E+03</pdfrwt>
<totfact> 0.59733528E+04</totfact>
</mgrwt>
</event>
<event>
 7    0  0.4705418E-002  0.4600093E+03  0.7546771E-02  0.1024779E+00
         21   -1    0    0  502  501  0.00000000000E+00  0.00000000000E+00  0.88117659201E+02  0.88117659201E+02  0.00000000000E+00 0.  1.
         21   -1    0    0  501  502 -0.00000000000E+00 -0.00000000000E+00 -0.60035792205E+03  0.60035792205E+03  0.00000000000E+00 0.  1.
      99926    2    1    2    0    0  0.00000000000E+00  0.00000000000E+00 -0.51224026285E+03  0.68847558125E+03  0.46000928153E+03 0.  0.
      99925    2    3    3    0    0  0.75359052671E+02  0.81431285753E+02 -0.38132404641E+03  0.47611596893E+03  0.26261825218E+03 0.  0.
         25    1    3    3    0    0 -0.75359052671E+02 -0.81431285753E+02 -0.13091621644E+03  0.21235961232E+03  0.12509000000E+03 0.  0.
         25    1    4    4    0    0  0.91869446772E+01  0.50506820091E+02 -0.13985145648E+03  0.19452834449E+03  0.12509000000E+03 0.  0.
         25    1    4    4    0    0  0.66172107993E+02  0.30924465661E+02 -0.24147258993E+03  0.28158762444E+03  0.12509000000E+03 0.  0.
<mgrwt>
<rscale>  2 0.46000928E+03</rscale>
<asrwt>0</asrwt>
<pdfrwt beam="1">  1       21 0.12958480E-01 0.46000928E+03</pdfrwt>
<pdfrwt beam="2">  1       21 0.88287928E-01 0.46000928E+03</pdfrwt>
<totfact> 0.51472963E+04</totfact>
</mgrwt>
</event>
<event>
 7    0  0.4705418E-002  0.4537146E+03  0.7546771E-02  0.1026620E+00
         21   -1    0    0  502  501  0.00000000000E+00  0.00000000000E+00  0.10742944424E+03  0.10742944424E+03  0.00000000000E+00 0.  1.
         21   -1    0    0  501  502 -0.00000000000E+00 -0.00000000000E+00 -0.47905148650E+03  0.47905148650E+03  0.00000000000E+00 0.  1.
      99926    2    1    2    0    0  0.14210854715E-13 -0.71054273576E-14 -0.37162204226E+03  0.58648093073E+03  0.45371460173E+03 0.  0.
      99925    2    3    3    0    0 -0.68599058519E+02  0.48459751632E+02 -0.32987049277E+03  0.43013235113E+03  0.26295459520E+03 0.  0.
         25    1    4    4    0    0 -0.43780170455E+02 -0.30888252386E+00 -0.11456166742E+03  0.17518185544E+03  0.12509000000E+03 0.  0.
         25    1    4    4    0    0 -0.24818888063E+02  0.48768634156E+02 -0.21530882534E+03  0.25495049569E+03  0.12509000000E+03 0.  0.
         25    1    3    3    0    0  0.68599058519E+02 -0.48459751632E+02 -0.41751549493E+02  0.15634857960E+03  0.12509000000E+03 0.  0.
<mgrwt>
<rscale>  2 0.45371460E+03</rscale>
<asrwt>0</asrwt>
<pdfrwt beam="1">  1       21 0.15798447E-01 0.45371460E+03</pdfrwt>
<pdfrwt beam="2">  1       21 0.70448750E-01 0.45371460E+03</pdfrwt>
<totfact> 0.60126782E+04</totfact>
</mgrwt>
</event>
<event>
 7    0  0.4705418E-002  0.4573895E+03  0.7546771E-02  0.1025541E+00
         21   -1    0    0  502  501  0.00000000000E+00  0.00000000000E+00  0.64034405655E+02  0.64034405655E+02  0.00000000000E+00 0.  1.
         21   -1    0    0  501  502 -0.00000000000E+00 -0.00000000000E+00 -0.81676865767E+03  0.81676865767E+03  0.00000000000E+00 0.  1.
      99926    2    1    2    0    0  0.00000000000E+00 -0.17763568394E-14 -0.75273425202E+03  0.88080306333E+03  0.45738953006E+03 0.  0.
      99925    2    3    3    0    0  0.64622755963E+02 -0.11781703571E+02 -0.65533178892E+03  0.70919403954E+03  0.26302380696E+03 0.  0.
         25    1    4    4    0    0  0.38572532756E+02  0.26042377710E+02 -0.39140401952E+03  0.41353435204E+03  0.12509000000E+03 0.  0.
         25    1    4    4    0    0  0.26050223207E+02 -0.37824081280E+02 -0.26392776940E+03  0.29565968750E+03  0.12509000000E+03 0.  0.
         25    1    3    3    0    0 -0.64622755963E+02  0.11781703571E+02 -0.97402463098E+02  0.17160902379E+03  0.12509000000E+03 0.  0.
<mgrwt>
<rscale>  2 0.45738953E+03</rscale>
<asrwt>0</asrwt>
<pdfrwt beam="1">  1       21 0.94168243E-02 0.45738953E+03</pdfrwt>
<pdfrwt beam="2">  1       21 0.12011304E+00 0.45738953E+03</pdfrwt>
<totfact> 0.43258872E+04</totfact>
</mgrwt>
</event>
<event>
 7    0  0.4705418E-002  0.4587522E+03  0.7546771E-02  0.1025144E+00
         21   -1    0    0  502  501  0.00000000000E+00  0.00000000000E+00  0.11648424559E+03  0.11648424559E+03  0.00000000000E+00 0.  1.
         21   -1    0    0  501  502 -0.00000000000E+00 -0.00000000000E+00 -0.45167829013E+03  0.45167829013E+03  0.00000000000E+00 0.  1.
      99926    2    1    2    0    0 -0.17763568394E-14  0.71054273576E-14 -0.33519404453E+03  0.56816253572E+03  0.45875224196E+03 0.  0.
      99925    2    3    3    0    0 -0.15587229178E+02 -0.32490141958E+02 -0.73001967050E+02  0.27543268648E+03  0.26312602789E+03 0.  0.
         25    1    4    4    0    0 -0.38913794761E+02  0.34259224264E+01 -0.18192732984E+02  0.13230458798E+03  0.12509000000E+03 0.  0.
         25    1    4    4    0    0  0.23326565583E+02 -0.35916064384E+02 -0.54809234066E+02  0.14312809850E+03  0.12509000000E+03 0.  0.
         25    1    3    3    0    0  0.15587229178E+02  0.32490141958E+02 -0.26219207748E+03  0.29272984924E+03  0.12509000000E+03 0.  0.
<mgrwt>
<rscale>  2 0.45875224E+03</rscale>
<asrwt>0</asrwt>
<pdfrwt beam="1">  1       21 0.17130036E-01 0.45875224E+03</pdfrwt>
<pdfrwt beam="2">  1       21 0.66423279E-01 0.45875224E+03</pdfrwt>
<totfact> 0.58914262E+04</totfact>
</mgrwt>
</event>
<event>
 7    0  0.4705418E-002  0.4662103E+03  0.7546771E-02  0.1022995E+00
         21   -1    0    0  502  501  0.00000000000E+00  0.00000000000E+00  0.30443530855E+02  0.30443530855E+02  0.00000000000E+00 0.  1.
         21   -1    0    0  501  502 -0.00000000000E+00 -0.00000000000E+00 -0.17848788069E+04  0.17848788069E+04  0.00000000000E+00 0.  1.
      99926    2    1    2    0    0  0.35527136788E-14  0.00000000000E+00 -0.17544352760E+04  0.18153223377E+04  0.46621030889E+03 0.  0.
      99925    2    3    3    0    0  0.25141234254E+02 -0.65717371624E+02 -0.14872393506E+04  0.15120204662E+04  0.26338972976E+03 0.  0.
         25    1    3    3    0    0 -0.25141234254E+02  0.65717371624E+02 -0.26719592543E+03  0.30330187151E+03  0.12509000000E+03 0.  0.
         25    1    4    4    0    0  0.39543902233E+02 -0.47792692115E+02 -0.93197078029E+03  0.94237195684E+03  0.12509000000E+03 0.  0.
         25    1    4    4    0    0 -0.14402667980E+02 -0.17924679509E+02 -0.55526857031E+03  0.56964850940E+03  0.12509000000E+03 0.  0.
<mgrwt>
<rscale>  2 0.46621031E+03</rscale>
<asrwt>0</asrwt>
<pdfrwt beam="1">  1       21 0.44769897E-02 0.46621031E+03</pdfrwt>
<pdfrwt beam="2">  1       21 0.26248218E+00 0.46621031E+03</pdfrwt>
<totfact> 0.15567344E+04</totfact>
</mgrwt>
</event>
<event>
 7    0  0.4705418E-002  0.4422711E+03  0.7546771E-02  0.1030052E+00
         21   -1    0    0  502  501  0.00000000000E+00  0.00000000000E+00  0.81353433223E+03  0.81353433223E+03  0.00000000000E+00 0.  1.
         21   -1    0    0  501  502 -0.00000000000E+00 -0.00000000000E+00 -0.60109245437E+02  0.60109245437E+02  0.00000000000E+00 0.  1.
      99926    2    1    2    0    0 -0.35527136788E-14  0.00000000000E+00  0.75342508679E+03  0.87364357767E+03  0.44227111526E+03 0.  0.
      99925    2    3    3    0    0  0.16281356698E+02  0.86363844928E+02  0.38218009558E+03  0.47215366760E+03  0.26295182845E+03 0.  0.
         25    1    4    4    0    0  0.28633511039E+02  0.79650749201E+02  0.19681827652E+03  0.24809083392E+03  0.12509000000E+03 0.  0.
         25    1    3    3    0    0 -0.16281356698E+02 -0.86363844928E+02  0.37124499121E+03  0.40148991007E+03  0.12509000000E+03 0.  0.
         25    1    4    4    0    0 -0.12352154341E+02  0.67130957276E+01  0.18536181906E+03  0.22406283368E+03  0.12509000000E+03 0.  0.
<mgrwt>
<rscale>  2 0.44227112E+03</rscale>
<asrwt>0</asrwt>
<pdfrwt beam="1">  1       21 0.11963740E+00 0.44227112E+03</pdfrwt>
<pdfrwt beam="2">  1       21 0.88395954E-02 0.44227112E+03</pdfrwt>
<totfact> 0.49108745E+04</totfact>
</mgrwt>
</event>
<event>
 7    0  0.4705418E-002  0.4419169E+03  0.7546771E-02  0.1030160E+00
         21   -1    0    0  502  501  0.00000000000E+00  0.00000000000E+00  0.55056192432E+02  0.55056192432E+02  0.00000000000E+00 0. -1.
         21   -1    0    0  501  502 -0.00000000000E+00 -0.00000000000E+00 -0.88677813807E+03  0.88677813807E+03  0.00000000000E+00 0. -1.
      99926    2    1    2    0    0  0.35527136788E-14  0.28421709430E-13 -0.83172194564E+03  0.94183433050E+03  0.44191686012E+03 0.  0.
      99925    2    3    3    0    0 -0.24285279193E+02 -0.89229495187E+02 -0.44691011328E+03  0.52676887540E+03  0.26306866241E+03 0.  0.
         25    1    4    4    0    0 -0.19830365846E+02 -0.29423043374E+01 -0.21127920792E+03  0.24634997942E+03  0.12509000000E+03 0.  0.
         25    1    3    3    0    0  0.24285279193E+02  0.89229495187E+02 -0.38481183236E+03  0.41506545511E+03  0.12509000000E+03 0.  0.
         25    1    4    4    0    0 -0.44549133471E+01 -0.86287190850E+02 -0.23563090536E+03  0.28041889597E+03  0.12509000000E+03 0.  0.
<mgrwt>
<rscale>  2 0.44191686E+03</rscale>
<asrwt>0</asrwt>
<pdfrwt beam="1">  1       21 0.80964990E-02 0.44191686E+03</pdfrwt>
<pdfrwt beam="2">  1       21 0.13040855E+00 0.44191686E+03</pdfrwt>
<totfact> 0.46002707E+04</totfact>
</mgrwt>
</event>
<event>
 7    0  0.4705418E-002  0.4592787E+03  0.7546771E-02  0.1024991E+00
         21   -1    0    0  502  501  0.00000000000E+00  0.00000000000E+00  0.57691650411E+03  0.57691650411E+03  0.00000000000E+00 0. -1.
         21   -1    0    0  501  502 -0.00000000000E+00 -0.00000000000E+00 -0.91407051315E+02  0.91407051315E+02  0.00000000000E+00 0. -1.
      99926    2    1    2    0    0  0.00000000000E+00  0.35527136788E-14  0.48550945279E+03  0.66832355542E+03  0.45927872363E+03 0.  0.
      99925    2    3    3    0    0 -0.77535976233E+02  0.19583693786E+02  0.42892806891E+03  0.50943897538E+03  0.26297040264E+03 0.  0.
         25    1    4    4    0    0 -0.54392303435E+02 -0.26430802021E+02  0.23470009097E+03  0.27274301232E+03  0.12509000000E+03 0.  0.
         25    1    4    4    0    0 -0.23143672798E+02  0.46014495807E+02  0.19422797794E+03  0.23669596306E+03  0.12509000000E+03 0.  0.
         25    1    3    3    0    0  0.77535976233E+02 -0.19583693786E+02  0.56581383884E+02  0.15888458004E+03  0.12509000000E+03 0.  0.
<mgrwt>
<rscale>  2 0.45927872E+03</rscale>
<asrwt>0</asrwt>
<pdfrwt beam="1">  1       21 0.84840661E-01 0.45927872E+03</pdfrwt>
<pdfrwt beam="2">  1       21 0.13442214E-01 0.45927872E+03</pdfrwt>
<totfact> 0.52851249E+04</totfact>
</mgrwt>
</event>
<event>
 7    0  0.4705418E-002  0.4395079E+03  0.7546771E-02  0.1030898E+00
         21   -1    0    0  502  501  0.00000000000E+00  0.00000000000E+00  0.30092553327E+03  0.30092553327E+03  0.00000000000E+00 0.  1.
         21   -1    0    0  501  502 -0.00000000000E+00 -0.00000000000E+00 -0.16047757289E+03  0.16047757289E+03  0.00000000000E+00 0.  1.
      99926    2    1    2    0    0  0.00000000000E+00  0.00000000000E+00  0.14044796039E+03  0.46140310616E+03  0.43950790300E+03 0.  0.
      99925    2    3    3    0    0 -0.41143970094E+02 -0.16267246079E+02 -0.21905310913E+01  0.26659372004E+03  0.26288773948E+03 0.  0.
         25    1    4    4    0    0 -0.35029730380E+02 -0.99350672056E+01  0.36611997926E+02  0.13532824562E+03  0.12509000000E+03 0.  0.
         25    1    3    3    0    0  0.41143970094E+02  0.16267246079E+02  0.14263849148E+03  0.19480938612E+03  0.12509000000E+03 0.  0.
         25    1    4    4    0    0 -0.61142397131E+01 -0.63321788731E+01 -0.38802529017E+02  0.13126547442E+03  0.12509000000E+03 0.  0.
<mgrwt>
<rscale>  2 0.43950790E+03</rscale>
<asrwt>0</asrwt>
<pdfrwt beam="1">  1       21 0.44253755E-01 0.43950790E+03</pdfrwt>
<pdfrwt beam="2">  1       21 0.23599643E-01 0.43950790E+03</pdfrwt>
<totfact> 0.77134325E+04</totfact>
</mgrwt>
</event>
<event>
 6    0  0.4705418E-002  0.4547310E+03  0.7546771E-02  0.1026321E+00
         21   -1    0    0  502  501  0.00000000000E+00  0.00000000000E+00  0.11853799558E+04  0.11853799558E+04  0.00000000000E+00 0. -1.
         21   -1    0    0  501  502 -0.00000000000E+00 -0.00000000000E+00 -0.43610540623E+02  0.43610540623E+02  0.00000000000E+00 0. -1.
      99926    2    1    2    0    0 -0.14210854715E-13  0.71054273576E-14  0.11417694152E+04  0.12289904965E+04  0.45473095658E+03 0.  0.
         25    1    3    3    0    0  0.41553360415E+01 -0.96216473021E+01  0.25840176892E+03  0.28727830617E+03  0.12509000000E+03 0.  0.
         25    1    3    3    0    0 -0.96263812855E+02  0.46800740981E+02  0.49971652933E+03  0.52613795606E+03  0.12509000000E+03 0.  0.
         25    1    3    3    0    0  0.92108476814E+02 -0.37179093679E+02  0.38365111696E+03  0.41557423422E+03  0.12509000000E+03 0.  0.
<mgrwt>
<rscale>  2 0.45473096E+03</rscale>
<asrwt>0</asrwt>
<pdfrwt beam="1">  1       21 0.17432056E+00 0.45473096E+03</pdfrwt>
<pdfrwt beam="2">  1       21 0.64133155E-02 0.45473096E+03</pdfrwt>
<totfact> 0.31314238E+04</totfact>
</mgrwt>
</event>
<event>
 7    0  0.4705418E-002  0.4553836E+03  0.7546771E-02  0.1026129E+00
         21   -1    0    0  502  501  0.00000000000E+00  0.00000000000E+00  0.49409878619E+03  0.49409878619E+03  0.00000000000E+00 0. -1.
         21   -1    0    0  501  502 -0.00000000000E+00 -0.00000000000E+00 -0.10492550040E+03  0.10492550040E+03  0.00000000000E+00 0. -1.
      99926    2    1    2    0    0  0.00000000000E+00 -0.71054273576E-14  0.38917328579E+03  0.59902428660E+03  0.45538362900E+03 0.  0.
      99925    2    3    3    0    0  0.68494112213E+02  0.49653861828E+02  0.14503216794E+03  0.31195401136E+03  0.26291448431E+03 0.  0.
         25    1    4    4    0    0  0.49608105408E+01  0.14768153091E-01  0.85845210199E+02  0.15179432820E+03  0.12509000000E+03 0.  0.
         25    1    4    4    0    0  0.63533301672E+02  0.49639093675E+02  0.59186957741E+02  0.16015968316E+03  0.12509000000E+03 0.  0.
         25    1    3    3    0    0 -0.68494112213E+02 -0.49653861828E+02  0.24414111785E+03  0.28707027524E+03  0.12509000000E+03 0.  0.
<mgrwt>
<rscale>  2 0.45538363E+03</rscale>
<asrwt>0</asrwt>
<pdfrwt beam="1">  1       21 0.72661585E-01 0.45538363E+03</pdfrwt>
<pdfrwt beam="2">  1       21 0.15430221E-01 0.45538363E+03</pdfrwt>
<totfact> 0.58560652E+04</totfact>
</mgrwt>
</event>
<event>
 7    0  0.4705418E-002  0.4425937E+03  0.7546771E-02  0.1029954E+00
         21   -1    0    0  502  501  0.00000000000E+00  0.00000000000E+00  0.93312557265E+02  0.93312557265E+02  0.00000000000E+00 0.  1.
         21   -1    0    0  501  502 -0.00000000000E+00 -0.00000000000E+00 -0.52481988201E+03  0.52481988201E+03  0.00000000000E+00 0.  1.
      99926    2    1    2    0    0  0.00000000000E+00  0.00000000000E+00 -0.43150732474E+03  0.61813243927E+03  0.44259365243E+03 0.  0.
      99925    2    3    3    0    0  0.20590226784E+02 -0.98857868040E+02 -0.27178365374E+03  0.39151382862E+03  0.26309672756E+03 0.  0.
         25    1    4    4    0    0  0.30740978433E+01 -0.67351846202E+01 -0.12759476860E+03  0.17883720492E+03  0.12509000000E+03 0.  0.
         25    1    3    3    0    0 -0.20590226784E+02  0.98857868040E+02 -0.15972367101E+03  0.22661861065E+03  0.12509000000E+03 0.  0.
         25    1    4    4    0    0  0.17516128940E+02 -0.92122683420E+02 -0.14418888514E+03  0.21267662371E+03  0.12509000000E+03 0.  0.
<mgrwt>
<rscale>  2 0.44259365E+03</rscale>
<asrwt>0</asrwt>
<pdfrwt beam="1">  1       21 0.13722435E-01 0.44259365E+03</pdfrwt>
<pdfrwt beam="2">  1       21 0.77179394E-01 0.44259365E+03</pdfrwt>
<totfact> 0.63579163E+04</totfact>
</mgrwt>
</event>
<event>
 7    0  0.4705418E-002  0.4118484E+03  0.7546771E-02  0.1039752E+00
         21   -1    0    0  502  501  0.00000000000E+00  0.00000000000E+00  0.11969900433E+03  0.11969900433E+03  0.00000000000E+00 0.  1.
         21   -1    0    0  501  502 -0.00000000000E+00 -0.00000000000E+00 -0.35426178129E+03  0.35426178129E+03  0.00000000000E+00 0.  1.
      99926    2    1    2    0    0  0.00000000000E+00 -0.71054273576E-14 -0.23456277696E+03  0.47396078561E+03  0.41184843082E+03 0.  0.
      99925    2    3    3    0    0 -0.40382503068E+02 -0.49481304579E+02 -0.16819652277E+03  0.31861879563E+03  0.26296144318E+03 0.  0.
         25    1    4    4    0    0 -0.45836029136E+01  0.69895631652E+01 -0.10417020355E+03  0.16299939514E+03  0.12509000000E+03 0.  0.
         25    1    4    4    0    0 -0.35798900154E+02 -0.56470867744E+02 -0.64026319227E+02  0.15561940049E+03  0.12509000000E+03 0.  0.
         25    1    3    3    0    0  0.40382503068E+02  0.49481304579E+02 -0.66366254187E+02  0.15534198998E+03  0.12509000000E+03 0.  0.
<mgrwt>
<rscale>  2 0.41184843E+03</rscale>
<asrwt>0</asrwt>
<pdfrwt beam="1">  1       21 0.17602795E-01 0.41184843E+03</pdfrwt>
<pdfrwt beam="2">  1       21 0.52097321E-01 0.41184843E+03</pdfrwt>
<totfact> 0.96055846E+04</totfact>
</mgrwt>
</event>
<event>
 7    0  0.4705418E-002  0.4526475E+03  0.7546771E-02  0.1026935E+00
         21   -1    0    0  502  501  0.00000000000E+00  0.00000000000E+00  0.10236745574E+03  0.10236745574E+03  0.00000000000E+00 0. -1.
         21   -1    0    0  501  502 -0.00000000000E+00 -0.00000000000E+00 -0.50037820466E+03  0.50037820466E+03  0.00000000000E+00 0. -1.
      99926    2    1    2    0    0 -0.14210854715E-13 -0.14210854715E-13 -0.39801074892E+03  0.60274566041E+03  0.45264751726E+03 0.  0.
      99925    2    3    3    0    0  0.75796525874E+02 -0.81066785141E+02 -0.25103328090E+03  0.38010958697E+03  0.26296131465E+03 0.  0.
         25    1    3    3    0    0 -0.75796525874E+02  0.81066785141E+02 -0.14697746802E+03  0.22263607343E+03  0.12509000000E+03 0.  0.
         25    1    4    4    0    0  0.18508721211E+02 -0.15453419239E+02 -0.15204285219E+03  0.19835805486E+03  0.12509000000E+03 0.  0.
         25    1    4    4    0    0  0.57287804663E+02 -0.65613365902E+02 -0.98990428713E+02  0.18175153211E+03  0.12509000000E+03 0.  0.
<mgrwt>
<rscale>  2 0.45264752E+03</rscale>
<asrwt>0</asrwt>
<pdfrwt beam="1">  1       21 0.15054038E-01 0.45264752E+03</pdfrwt>
<pdfrwt beam="2">  1       21 0.73585030E-01 0.45264752E+03</pdfrwt>
<totfact> 0.59609781E+04</totfact>
</mgrwt>
</event>
<event>
 7    0  0.4705418E-002  0.4547660E+03  0.7546771E-02  0.1026310E+00
         21   -1    0    0  502  501  0.00000000000E+00  0.00000000000E+00  0.20341506660E+03  0.20341506660E+03  0.00000000000E+00 0. -1.
         21   -1    0    0  501  502 -0.00000000000E+00 -0.00000000000E+00 -0.25417501542E+03  0.25417501542E+03  0.00000000000E+00 0. -1.
      99926    2    1    2    0    0  0.00000000000E+00  0.35527136788E-14 -0.50759948825E+02  0.45759008202E+03  0.45476599561E+03 0.  0.
      99925    2    3    3    0    0 -0.85782434599E+02 -0.20041670682E+02  0.39143931708E+02  0.28013442422E+03  0.26302614622E+03 0.  0.
         25    1    3    3    0    0  0.85782434599E+02  0.20041670682E+02 -0.89903880533E+02  0.17745565780E+03  0.12509000000E+03 0.  0.
         25    1    4    4    0    0 -0.41645278625E+02  0.56178359212E+01  0.57204173722E+02  0.14382529299E+03  0.12509000000E+03 0.  0.
         25    1    4    4    0    0 -0.44137155974E+02 -0.25659506603E+02 -0.18060242014E+02  0.13630913124E+03  0.12509000000E+03 0.  0.
<mgrwt>
<rscale>  2 0.45476600E+03</rscale>
<asrwt>0</asrwt>
<pdfrwt beam="1">  1       21 0.29913980E-01 0.45476600E+03</pdfrwt>
<pdfrwt beam="2">  1       21 0.37378679E-01 0.45476600E+03</pdfrwt>
<totfact> 0.68484168E+04</totfact>
</mgrwt>
</event>
<event>
 7    0  0.4705418E-002  0.4510300E+03  0.7546771E-02  0.1027415E+00
         21   -1    0    0  502  501  0.00000000000E+00  0.00000000000E+00  0.48888232087E+03  0.48888232087E+03  0.00000000000E+00 0.  1.
         21   -1    0    0  501  502 -0.00000000000E+00 -0.00000000000E+00 -0.10402712866E+03  0.10402712866E+03  0.00000000000E+00 0.  1.
      99926    2    1    2    0    0 -0.17763568394E-14  0.17763568394E-14  0.38485519222E+03  0.59290944953E+03  0.45103003932E+03 0.  0.
      99925    2    3    3    0    0 -0.12729843942E+02  0.96103207768E+01  0.10078485426E+03  0.28210746723E+03  0.26300689920E+03 0.  0.
         25    1    3    3    0    0  0.12729843942E+02 -0.96103207768E+01  0.28407033796E+03  0.31080198230E+03  0.12509000000E+03 0.  0.
         25    1    4    4    0    0  0.22607902573E+01 -0.26059866160E+02  0.23122325931E+02  0.12987061967E+03  0.12509000000E+03 0.  0.
         25    1    4    4    0    0 -0.14990634200E+02  0.35670186937E+02  0.77662528324E+02  0.15223684756E+03  0.12509000000E+03 0.  0.
<mgrwt>
<rscale>  2 0.45103004E+03</rscale>
<asrwt>0</asrwt>
<pdfrwt beam="1">  1       21 0.71894458E-01 0.45103004E+03</pdfrwt>
<pdfrwt beam="2">  1       21 0.15298107E-01 0.45103004E+03</pdfrwt>
<totfact> 0.61008485E+04</totfact>
</mgrwt>
</event>
<event>
 7    0  0.4705418E-002  0.4470124E+03  0.7546771E-02  0.1028617E+00
         21   -1    0    0  502  501  0.00000000000E+00  0.00000000000E+00  0.10639519238E+03  0.10639519238E+03  0.00000000000E+00 0. -1.
         21   -1    0    0  501  502 -0.00000000000E+00 -0.00000000000E+00 -0.46952327194E+03  0.46952327194E+03  0.00000000000E+00 0. -1.
      99926    2    1    2    0    0  0.00000000000E+00  0.00000000000E+00 -0.36312807956E+03  0.57591846432E+03  0.44701238840E+03 0.  0.
      99925    2    3    3    0    0  0.65722450997E+02 -0.82041186505E+02 -0.24405148228E+03  0.37373799799E+03  0.26280937633E+03 0.  0.
         25    1    3    3    0    0 -0.65722450997E+02  0.82041186505E+02 -0.11907659728E+03  0.20218046634E+03  0.12509000000E+03 0.  0.
         25    1    4    4    0    0  0.12711528436E+02 -0.76213615614E+02 -0.12991590470E+03  0.19620333471E+03  0.12509000000E+03 0.  0.
         25    1    4    4    0    0  0.53010922562E+02 -0.58275708907E+01 -0.11413557758E+03  0.17753466327E+03  0.12509000000E+03 0.  0.
<mgrwt>
<rscale>  2 0.44701239E+03</rscale>
<asrwt>0</asrwt>
<pdfrwt beam="1">  1       21 0.15646352E-01 0.44701239E+03</pdfrwt>
<pdfrwt beam="2">  1       21 0.69047539E-01 0.44701239E+03</pdfrwt>
<totfact> 0.64141355E+04</totfact>
</mgrwt>
</event>
<event>
 7    0  0.4705418E-002  0.4569711E+03  0.7546771E-02  0.1025663E+00
         21   -1    0    0  502  501  0.00000000000E+00  0.00000000000E+00  0.13905224529E+03  0.13905224529E+03  0.00000000000E+00 0. -1.
         21   -1    0    0  501  502 -0.00000000000E+00 -0.00000000000E+00 -0.37543899937E+03  0.37543899937E+03  0.00000000000E+00 0. -1.
      99926    2    1    2    0    0  0.00000000000E+00  0.21579960041E-14 -0.23638675408E+03  0.51449124466E+03  0.45697105306E+03 0.  0.
      99925    2    3    3    0    0  0.74614974326E+02 -0.29730373979E-01 -0.24701358150E+03  0.36845072687E+03  0.26300728774E+03 0.  0.
         25    1    4    4    0    0  0.93304776758E+01  0.28792170896E+02 -0.12949619056E+03  0.18257277560E+03  0.12509000000E+03 0.  0.
         25    1    4    4    0    0  0.65284496650E+02 -0.28821901270E+02 -0.11751739094E+03  0.18587795127E+03  0.12509000000E+03 0.  0.
         25    1    3    3    0    0 -0.74614974326E+02  0.29730373979E-01  0.10626827421E+02  0.14604051780E+03  0.12509000000E+03 0.  0.
<mgrwt>
<rscale>  2 0.45697105E+03</rscale>
<asrwt>0</asrwt>
<pdfrwt beam="1">  1       21 0.20448860E-01 0.45697105E+03</pdfrwt>
<pdfrwt beam="2">  1       21 0.55211617E-01 0.45697105E+03</pdfrwt>
<totfact> 0.63268725E+04</totfact>
</mgrwt>
</event>
<event>
 7    0  0.4705418E-002  0.4592543E+03  0.7546771E-02  0.1024998E+00
         21   -1    0    0  502  501  0.00000000000E+00  0.00000000000E+00  0.16495740638E+03  0.16495740638E+03  0.00000000000E+00 0.  1.
         21   -1    0    0  501  502 -0.00000000000E+00 -0.00000000000E+00 -0.31964996485E+03  0.31964996485E+03  0.00000000000E+00 0.  1.
      99926    2    1    2    0    0  0.00000000000E+00  0.00000000000E+00 -0.15469255847E+03  0.48460737122E+03  0.45925430493E+03 0.  0.
      99925    2    3    3    0    0  0.47028652636E+02 -0.73074847238E+02 -0.17974398127E+03  0.33024834378E+03  0.26306737217E+03 0.  0.
         25    1    4    4    0    0 -0.14412999111E+02 -0.25585070546E+02 -0.67732634842E+02  0.14524995112E+03  0.12509000000E+03 0.  0.
         25    1    4    4    0    0  0.61441651747E+02 -0.47489776692E+02 -0.11201134643E+03  0.18499839266E+03  0.12509000000E+03 0.  0.
         25    1    3    3    0    0 -0.47028652636E+02  0.73074847238E+02  0.25051422798E+02  0.15435902744E+03  0.12509000000E+03 0.  0.
<mgrwt>
<rscale>  2 0.45925430E+03</rscale>
<asrwt>0</asrwt>
<pdfrwt beam="1">  1       21 0.24258443E-01 0.45925430E+03</pdfrwt>
<pdfrwt beam="2">  1       21 0.47007347E-01 0.45925430E+03</pdfrwt>
<totfact> 0.64171592E+04</totfact>
</mgrwt>
</event>
<event>
 7    0  0.4705418E-002  0.4533093E+03  0.7546771E-02  0.1026740E+00
         21   -1    0    0  502  501  0.00000000000E+00  0.00000000000E+00  0.10482393736E+03  0.10482393736E+03  0.00000000000E+00 0.  1.
         21   -1    0    0  501  502 -0.00000000000E+00 -0.00000000000E+00 -0.49008201285E+03  0.49008201285E+03  0.00000000000E+00 0.  1.
      99926    2    1    2    0    0  0.00000000000E+00  0.00000000000E+00 -0.38525807549E+03  0.59490595021E+03  0.45330928168E+03 0.  0.
      99925    2    3    3    0    0  0.67436803727E+02  0.86996117369E+02 -0.21883193870E+03  0.35940390341E+03  0.26299753128E+03 0.  0.
         25    1    3    3    0    0 -0.67436803727E+02 -0.86996117369E+02 -0.16642613679E+03  0.23550204679E+03  0.12509000000E+03 0.  0.
         25    1    4    4    0    0  0.56360287275E+02  0.11400258827E+02 -0.11988694629E+03  0.18255639094E+03  0.12509000000E+03 0.  0.
         25    1    4    4    0    0  0.11076516452E+02  0.75595858542E+02 -0.98944992408E+02  0.17684751247E+03  0.12509000000E+03 0.  0.
<mgrwt>
<rscale>  2 0.45330928E+03</rscale>
<asrwt>0</asrwt>
<pdfrwt beam="1">  1       21 0.15415285E-01 0.45330928E+03</pdfrwt>
<pdfrwt beam="2">  1       21 0.72070883E-01 0.45330928E+03</pdfrwt>
<totfact> 0.59787727E+04</totfact>
</mgrwt>
</event>
<event>
 7    0  0.4705418E-002  0.4783555E+03  0.7546771E-02  0.1019588E+00
         21   -1    0    0  502  501  0.00000000000E+00  0.00000000000E+00  0.11185417988E+03  0.11185417988E+03  0.00000000000E+00 0.  1.
         21   -1    0    0  501  502 -0.00000000000E+00 -0.00000000000E+00 -0.51143366713E+03  0.51143366713E+03  0.00000000000E+00 0.  1.
      99926    2    1    2    0    0  0.00000000000E+00  0.14210854715E-13 -0.39957948724E+03  0.62328784701E+03  0.47835548874E+03 0.  0.
      99925    2    3    3    0    0 -0.78738381950E+02  0.74023173553E+02 -0.34919473996E+03  0.45047206685E+03  0.26326593699E+03 0.  0.
         25    1    4    4    0    0 -0.55455855982E+02  0.25855338177E+02 -0.23354635658E+03  0.27191038826E+03  0.12509000000E+03 0.  0.
         25    1    3    3    0    0  0.78738381950E+02 -0.74023173553E+02 -0.50384747286E+02  0.17281578017E+03  0.12509000000E+03 0.  0.
         25    1    4    4    0    0 -0.23282525968E+02  0.48167835376E+02 -0.11564838338E+03  0.17856167858E+03  0.12509000000E+03 0.  0.
<mgrwt>
<rscale>  2 0.47835549E+03</rscale>
<asrwt>0</asrwt>
<pdfrwt beam="1">  1       21 0.16449144E-01 0.47835549E+03</pdfrwt>
<pdfrwt beam="2">  1       21 0.75210833E-01 0.47835549E+03</pdfrwt>
<totfact> 0.47818376E+04</totfact>
</mgrwt>
</event>
<event>
 7    0  0.4705418E-002  0.4564154E+03  0.7546771E-02  0.1025826E+00
         21   -1    0    0  502  501  0.00000000000E+00  0.00000000000E+00  0.17231819675E+02  0.17231819675E+02  0.00000000000E+00 0. -1.
         21   -1    0    0  501  502 -0.00000000000E+00 -0.00000000000E+00 -0.30222436822E+04  0.30222436822E+04  0.00000000000E+00 0. -1.
      99926    2    1    2    0    0 -0.71054273576E-14  0.71054273576E-14 -0.30050118626E+04  0.30394755019E+04  0.45641541668E+03 0.  0.
      99925    2    3    3    0    0 -0.39357681264E+02  0.35483303456E+02 -0.25648104048E+04  0.25787880553E+04  0.26284468793E+03 0.  0.
         25    1    3    3    0    0  0.39357681264E+02 -0.35483303456E+02 -0.44020145777E+03  0.46068744657E+03  0.12509000000E+03 0.  0.
         25    1    4    4    0    0  0.71217699542E+01  0.41093472973E+02 -0.10914863103E+04  0.10994222422E+04  0.12509000000E+03 0.  0.
         25    1    4    4    0    0 -0.46479451218E+02 -0.56101695168E+01 -0.14733240945E+04  0.14793658131E+04  0.12509000000E+03 0.  0.
<mgrwt>
<rscale>  2 0.45641542E+03</rscale>
<asrwt>0</asrwt>
<pdfrwt beam="1">  1       21 0.25340887E-02 0.45641542E+03</pdfrwt>
<pdfrwt beam="2">  1       21 0.44444803E+00 0.45641542E+03</pdfrwt>
<totfact> 0.30004148E+03</totfact>
</mgrwt>
</event>
<event>
 7    0  0.4705418E-002  0.4475328E+03  0.7546771E-02  0.1028460E+00
         21   -1    0    0  502  501  0.00000000000E+00  0.00000000000E+00  0.48125251053E+03  0.48125251053E+03  0.00000000000E+00 0. -1.
         21   -1    0    0  501  502 -0.00000000000E+00 -0.00000000000E+00 -0.10404391465E+03  0.10404391465E+03  0.00000000000E+00 0. -1.
      99926    2    1    2    0    0  0.00000000000E+00  0.00000000000E+00  0.37720859589E+03  0.58529642518E+03  0.44753277033E+03 0.  0.
      99925    2    3    3    0    0  0.23956645122E+02  0.64002328775E+02  0.13290757238E+03  0.30245244501E+03  0.26295026101E+03 0.  0.
         25    1    4    4    0    0  0.40839754110E+02  0.27305946020E+02  0.98353251179E+02  0.16653639338E+03  0.12509000000E+03 0.  0.
         25    1    4    4    0    0 -0.16883108988E+02  0.36696382756E+02  0.34554321206E+02  0.13591605163E+03  0.12509000000E+03 0.  0.
         25    1    3    3    0    0 -0.23956645122E+02 -0.64002328775E+02  0.24430102350E+03  0.28284398017E+03  0.12509000000E+03 0.  0.
<mgrwt>
<rscale>  2 0.44753277E+03</rscale>
<asrwt>0</asrwt>
<pdfrwt beam="1">  1       21 0.70772427E-01 0.44753277E+03</pdfrwt>
<pdfrwt beam="2">  1       21 0.15300576E-01 0.44753277E+03</pdfrwt>
<totfact> 0.63243574E+04</totfact>
</mgrwt>
</event>
<event>
 7    0  0.4705418E-002  0.4548907E+03  0.7546771E-02  0.1026274E+00
         21   -1    0    0  502  501  0.00000000000E+00  0.00000000000E+00  0.74119028010E+02  0.74119028010E+02  0.00000000000E+00 0. -1.
         21   -1    0    0  501  502 -0.00000000000E+00 -0.00000000000E+00 -0.69795003563E+03  0.69795003563E+03  0.00000000000E+00 0. -1.
      99926    2    1    2    0    0  0.00000000000E+00  0.00000000000E+00 -0.62383100762E+03  0.77206906364E+03  0.45489066045E+03 0.  0.
      99925    2    3    3    0    0  0.22240069836E+02  0.51024267481E+02 -0.55964442650E+03  0.62085556598E+03  0.26298603217E+03 0.  0.
         25    1    3    3    0    0 -0.22240069836E+02 -0.51024267481E+02 -0.64186581117E+02  0.15121349766E+03  0.12509000000E+03 0.  0.
         25    1    4    4    0    0  0.37753651004E+02  0.21644841292E+02 -0.21279807834E+03  0.25064789559E+03  0.12509000000E+03 0.  0.
         25    1    4    4    0    0 -0.15513581168E+02  0.29379426189E+02 -0.34684634816E+03  0.37020767039E+03  0.12509000000E+03 0.  0.
<mgrwt>
<rscale>  2 0.45489066E+03</rscale>
<asrwt>0</asrwt>
<pdfrwt beam="1">  1       21 0.10899856E-01 0.45489066E+03</pdfrwt>
<pdfrwt beam="2">  1       21 0.10263972E+00 0.45489066E+03</pdfrwt>
<totfact> 0.49187652E+04</totfact>
</mgrwt>
</event>
<event>
 7    0  0.4705418E-002  0.4574338E+03  0.7546771E-02  0.1025528E+00
         21   -1    0    0  502  501  0.00000000000E+00  0.00000000000E+00  0.40354822503E+03  0.40354822503E+03  0.00000000000E+00 0. -1.
         21   -1    0    0  501  502 -0.00000000000E+00 -0.00000000000E+00 -0.12962869364E+03  0.12962869364E+03  0.00000000000E+00 0. -1.
      99926    2    1    2    0    0  0.00000000000E+00  0.00000000000E+00  0.27391953139E+03  0.53317691867E+03  0.45743383885E+03 0.  0.
      99925    2    3    3    0    0 -0.70328112297E+02  0.89227679251E+02  0.19555358920E+03  0.34690735293E+03  0.26305110368E+03 0.  0.
         25    1    4    4    0    0 -0.12568143218E+02  0.42217345198E+02  0.51986831405E+02  0.14244437932E+03  0.12509000000E+03 0.  0.
         25    1    4    4    0    0 -0.57759969079E+02  0.47010334054E+02  0.14356675779E+03  0.20446297361E+03  0.12509000000E+03 0.  0.
         25    1    3    3    0    0  0.70328112297E+02 -0.89227679251E+02  0.78365942194E+02  0.18626956574E+03  0.12509000000E+03 0.  0.
<mgrwt>
<rscale>  2 0.45743384E+03</rscale>
<asrwt>0</asrwt>
<pdfrwt beam="1">  1       21 0.59345327E-01 0.45743384E+03</pdfrwt>
<pdfrwt beam="2">  1       21 0.19063043E-01 0.45743384E+03</pdfrwt>
<totfact> 0.61791395E+04</totfact>
</mgrwt>
</event>
<event>
 7    0  0.4705418E-002  0.4578955E+03  0.7546771E-02  0.1025393E+00
         21   -1    0    0  502  501  0.00000000000E+00  0.00000000000E+00  0.24476899308E+03  0.24476899308E+03  0.00000000000E+00 0. -1.
         21   -1    0    0  501  502 -0.00000000000E+00 -0.00000000000E+00 -0.21414917311E+03  0.21414917311E+03  0.00000000000E+00 0. -1.
      99926    2    1    2    0    0  0.00000000000E+00  0.00000000000E+00  0.30619819969E+02  0.45891816619E+03  0.45789552290E+03 0.  0.
      99925    2    3    3    0    0 -0.93445423796E+02 -0.67874363641E+02  0.11680610381E+02  0.28761382233E+03  0.26314691271E+03 0.  0.
         25    1    3    3    0    0  0.93445423796E+02  0.67874363641E+02  0.18939209588E+02  0.17130434387E+03  0.12509000000E+03 0.  0.
         25    1    4    4    0    0 -0.85453082322E+02 -0.19999600535E+02  0.13727613244E+02  0.15342153944E+03  0.12509000000E+03 0.  0.
         25    1    4    4    0    0 -0.79923414740E+01 -0.47874763106E+02 -0.20470028630E+01  0.13419228288E+03  0.12509000000E+03 0.  0.
<mgrwt>
<rscale>  2 0.45789552E+03</rscale>
<asrwt>0</asrwt>
<pdfrwt beam="1">  1       21 0.35995440E-01 0.45789552E+03</pdfrwt>
<pdfrwt beam="2">  1       21 0.31492526E-01 0.45789552E+03</pdfrwt>
<totfact> 0.66705289E+04</totfact>
</mgrwt>
</event>
<event>
 7    0  0.4705418E-002  0.4579579E+03  0.7546771E-02  0.1025375E+00
         21   -1    0    0  502  501  0.00000000000E+00  0.00000000000E+00  0.48169673101E+02  0.48169673101E+02  0.00000000000E+00 0.  1.
         21   -1    0    0  501  502 -0.00000000000E+00 -0.00000000000E+00 -0.10884725171E+04  0.10884725171E+04  0.00000000000E+00 0.  1.
      99926    2    1    2    0    0  0.00000000000E+00  0.26645352591E-14 -0.10403028440E+04  0.11366421902E+04  0.45795792526E+03 0.  0.
      99925    2    3    3    0    0 -0.66394955968E+01 -0.62995927046E+01 -0.93974094004E+03  0.97588158432E+03  0.26296019559E+03 0.  0.
         25    1    4    4    0    0 -0.12807023963E+02 -0.33747043349E+02 -0.56526349590E+03  0.58006310923E+03  0.12509000000E+03 0.  0.
         25    1    4    4    0    0  0.61675283660E+01  0.27447450644E+02 -0.37447744414E+03  0.39581847509E+03  0.12509000000E+03 0.  0.
         25    1    3    3    0    0  0.66394955968E+01  0.62995927046E+01 -0.10056190393E+03  0.16076060584E+03  0.12509000000E+03 0.  0.
<mgrwt>
<rscale>  2 0.45795793E+03</rscale>
<asrwt>0</asrwt>
<pdfrwt beam="1">  1       21 0.70837753E-02 0.45795793E+03</pdfrwt>
<pdfrwt beam="2">  1       21 0.16006949E+00 0.45795793E+03</pdfrwt>
<totfact> 0.33453505E+04</totfact>
</mgrwt>
</event>
<event>
 7    0  0.4705418E-002  0.4690858E+03  0.7546771E-02  0.1022179E+00
         21   -1    0    0  502  501  0.00000000000E+00  0.00000000000E+00  0.13874050067E+03  0.13874050067E+03  0.00000000000E+00 0. -1.
         21   -1    0    0  501  502 -0.00000000000E+00 -0.00000000000E+00 -0.39649823425E+03  0.39649823425E+03  0.00000000000E+00 0. -1.
      99926    2    1    2    0    0 -0.14210854715E-13  0.00000000000E+00 -0.25775773358E+03  0.53523873492E+03  0.46908576416E+03 0.  0.
      99925    2    3    3    0    0 -0.69748351202E+02 -0.10085248181E+02 -0.41084340185E+02  0.27531295276E+03  0.26295009835E+03 0.  0.
         25    1    4    4    0    0 -0.74647669571E+02 -0.11630235942E+02 -0.10958805859E+02  0.14654398823E+03  0.12509000000E+03 0.  0.
         25    1    3    3    0    0  0.69748351202E+02  0.10085248181E+02 -0.21667339339E+03  0.25992578216E+03  0.12509000000E+03 0.  0.
         25    1    4    4    0    0  0.48993183694E+01  0.15449877604E+01 -0.30125534326E+02  0.12876896453E+03  0.12509000000E+03 0.  0.
<mgrwt>
<rscale>  2 0.46908576E+03</rscale>
<asrwt>0</asrwt>
<pdfrwt beam="1">  1       21 0.20403015E-01 0.46908576E+03</pdfrwt>
<pdfrwt beam="2">  1       21 0.58308562E-01 0.46908576E+03</pdfrwt>
<totfact> 0.56299638E+04</totfact>
</mgrwt>
</event>
<event>
 7    0  0.4705418E-002  0.4541633E+03  0.7546771E-02  0.1026488E+00
         21   -1    0    0  502  501  0.00000000000E+00  0.00000000000E+00  0.11201738696E+04  0.11201738696E+04  0.00000000000E+00 0. -1.
         21   -1    0    0  501  502 -0.00000000000E+00 -0.00000000000E+00 -0.46033988859E+02  0.46033988859E+02  0.00000000000E+00 0. -1.
      99926    2    1    2    0    0 -0.35527136788E-14  0.00000000000E+00  0.10741398808E+04  0.11662078585E+04  0.45416328092E+03 0.  0.
      99925    2    3    3    0    0  0.21596295436E+02 -0.77175455906E+02  0.47369906489E+03  0.54766187601E+03  0.26290735132E+03 0.  0.
         25    1    3    3    0    0 -0.21596295436E+02  0.77175455906E+02  0.60044081587E+03  0.61854598247E+03  0.12509000000E+03 0.  0.
         25    1    4    4    0    0  0.24536614758E+02 -0.99434159995E+01  0.17320165354E+03  0.21528408644E+03  0.12509000000E+03 0.  0.
         25    1    4    4    0    0 -0.29403193226E+01 -0.67232039906E+02  0.30049741135E+03  0.33237778956E+03  0.12509000000E+03 0.  0.
<mgrwt>
<rscale>  2 0.45416328E+03</rscale>
<asrwt>0</asrwt>
<pdfrwt beam="1">  1       21 0.16473143E+00 0.45416328E+03</pdfrwt>
<pdfrwt beam="2">  1       21 0.67697050E-02 0.45416328E+03</pdfrwt>
<totfact> 0.33463463E+04</totfact>
</mgrwt>
</event>
<event>
 7    0  0.4705418E-002  0.4767958E+03  0.7546771E-02  0.1020020E+00
         21   -1    0    0  502  501  0.00000000000E+00  0.00000000000E+00  0.19915255016E+03  0.19915255016E+03  0.00000000000E+00 0.  1.
         21   -1    0    0  501  502 -0.00000000000E+00 -0.00000000000E+00 -0.28537700686E+03  0.28537700686E+03  0.00000000000E+00 0.  1.
      99926    2    1    2    0    0  0.00000000000E+00  0.28421709430E-13 -0.86224456705E+02  0.48452955702E+03  0.47679579979E+03 0.  0.
      99925    2    3    3    0    0  0.13891450111E+02 -0.13081472503E+03 -0.70186135233E+02  0.30229289626E+03  0.26296280513E+03 0.  0.
         25    1    4    4    0    0  0.26539945292E+02 -0.89044996120E+02 -0.67409546371E+02  0.16977907725E+03  0.12509000000E+03 0.  0.
         25    1    3    3    0    0 -0.13891450111E+02  0.13081472503E+03 -0.16038321472E+02  0.18223666076E+03  0.12509000000E+03 0.  0.
         25    1    4    4    0    0 -0.12648495181E+02 -0.41769728906E+02 -0.27765888626E+01  0.13251381901E+03  0.12509000000E+03 0.  0.
<mgrwt>
<rscale>  2 0.47679580E+03</rscale>
<asrwt>0</asrwt>
<pdfrwt beam="1">  1       21 0.29287140E-01 0.47679580E+03</pdfrwt>
<pdfrwt beam="2">  1       21 0.41967207E-01 0.47679580E+03</pdfrwt>
<totfact> 0.56029198E+04</totfact>
</mgrwt>
</event>
<event>
 7    0  0.4705418E-002  0.4544662E+03  0.7546771E-02  0.1026399E+00
         21   -1    0    0  502  501  0.00000000000E+00  0.00000000000E+00  0.63887759343E+02  0.63887759343E+02  0.00000000000E+00 0.  1.
         21   -1    0    0  501  502 -0.00000000000E+00 -0.00000000000E+00 -0.80821232489E+03  0.80821232489E+03  0.00000000000E+00 0.  1.
      99926    2    1    2    0    0  0.00000000000E+00 -0.33306690739E-15 -0.74432456555E+03  0.87210008424E+03  0.45446616821E+03 0.  0.
      99925    2    3    3    0    0  0.65439679808E+02  0.75694703795E+00 -0.29316988051E+03  0.39937290858E+03  0.26318665736E+03 0.  0.
         25    1    3    3    0    0 -0.65439679808E+02 -0.75694703795E+00 -0.45115468505E+03  0.47272717565E+03  0.12509000000E+03 0.  0.
         25    1    4    4    0    0  0.27897385977E+02 -0.59357393877E+01 -0.86264605061E+02  0.15460461614E+03  0.12509000000E+03 0.  0.
         25    1    4    4    0    0  0.37542293831E+02  0.66926864257E+01 -0.20690527545E+03  0.24476829244E+03  0.12509000000E+03 0.  0.
<mgrwt>
<rscale>  2 0.45446617E+03</rscale>
<asrwt>0</asrwt>
<pdfrwt beam="1">  1       21 0.93952594E-02 0.45446617E+03</pdfrwt>
<pdfrwt beam="2">  1       21 0.11885475E+00 0.45446617E+03</pdfrwt>
<totfact> 0.44648397E+04</totfact>
</mgrwt>
</event>
<event>
 7    0  0.4705418E-002  0.4569589E+03  0.7546771E-02  0.1025667E+00
         21   -1    0    0  502  501  0.00000000000E+00  0.00000000000E+00  0.84355771599E+03  0.84355771599E+03  0.00000000000E+00 0.  1.
         21   -1    0    0  501  502 -0.00000000000E+00 -0.00000000000E+00 -0.61884149115E+02  0.61884149115E+02  0.00000000000E+00 0.  1.
      99926    2    1    2    0    0 -0.14210854715E-13 -0.17763568394E-14  0.78167356687E+03  0.90544186510E+03  0.45695886679E+03 0.  0.
      99925    2    3    3    0    0 -0.80202409825E+02 -0.27708620563E+01  0.32801082482E+03  0.42805575738E+03  0.26305992855E+03 0.  0.
         25    1    3    3    0    0  0.80202409825E+02  0.27708620563E+01  0.45366274206E+03  0.47738610772E+03  0.12509000000E+03 0.  0.
         25    1    4    4    0    0 -0.49790596661E+02  0.34854839291E+02  0.19161935699E+03  0.23676876781E+03  0.12509000000E+03 0.  0.
         25    1    4    4    0    0 -0.30411813164E+02 -0.37625701347E+02  0.13639146783E+03  0.19128698957E+03  0.12509000000E+03 0.  0.
<mgrwt>
<rscale>  2 0.45695887E+03</rscale>
<asrwt>0</asrwt>
<pdfrwt beam="1">  1       21 0.12405260E+00 0.45695887E+03</pdfrwt>
<pdfrwt beam="2">  1       21 0.91006107E-02 0.45695887E+03</pdfrwt>
<totfact> 0.42346104E+04</totfact>
</mgrwt>
</event>
<event>
 7    0  0.4705418E-002  0.4449158E+03  0.7546771E-02  0.1029249E+00
         21   -1    0    0  502  501  0.00000000000E+00  0.00000000000E+00  0.69026145664E+02  0.69026145664E+02  0.00000000000E+00 0. -1.
         21   -1    0    0  501  502 -0.00000000000E+00 -0.00000000000E+00 -0.71693884856E+03  0.71693884856E+03  0.00000000000E+00 0. -1.
      99926    2    1    2    0    0  0.00000000000E+00  0.00000000000E+00 -0.64791270290E+03  0.78596499423E+03  0.44491583650E+03 0.  0.
      99925    2    3    3    0    0 -0.42550847809E+02 -0.70267783927E+02 -0.52252804942E+03  0.59072935318E+03  0.26301610249E+03 0.  0.
         25    1    3    3    0    0  0.42550847809E+02  0.70267783927E+02 -0.12538465348E+03  0.19523564105E+03  0.12509000000E+03 0.  0.
         25    1    4    4    0    0  0.12084470609E+02 -0.35035515048E+02 -0.20067996989E+03  0.23936056518E+03  0.12509000000E+03 0.  0.
         25    1    4    4    0    0 -0.54635318418E+02 -0.35232268879E+02 -0.32184807952E+03  0.35136878800E+03  0.12509000000E+03 0.  0.
<mgrwt>
<rscale>  2 0.44491584E+03</rscale>
<asrwt>0</asrwt>
<pdfrwt beam="1">  1       21 0.10150903E-01 0.44491584E+03</pdfrwt>
<pdfrwt beam="2">  1       21 0.10543219E+00 0.44491584E+03</pdfrwt>
<totfact> 0.52483549E+04</totfact>
</mgrwt>
</event>
<event>
 7    0  0.4705418E-002  0.4543529E+03  0.7546771E-02  0.1026432E+00
         21   -1    0    0  502  501  0.00000000000E+00  0.00000000000E+00  0.63222728335E+02  0.63222728335E+02  0.00000000000E+00 0. -1.
         21   -1    0    0  501  502 -0.00000000000E+00 -0.00000000000E+00 -0.81630657128E+03  0.81630657128E+03  0.00000000000E+00 0. -1.
      99926    2    1    2    0    0  0.00000000000E+00  0.00000000000E+00 -0.75308384294E+03  0.87952929961E+03  0.45435285228E+03 0.  0.
      99925    2    3    3    0    0  0.43556396738E+02  0.81377861492E+01 -0.67449920795E+03  0.72530078014E+03  0.26296132205E+03 0.  0.
         25    1    3    3    0    0 -0.43556396738E+02 -0.81377861492E+01 -0.78584634992E+02  0.15422851947E+03  0.12509000000E+03 0.  0.
         25    1    4    4    0    0  0.33967434840E+02  0.84813104125E+00 -0.23725022307E+03  0.27035103551E+03  0.12509000000E+03 0.  0.
         25    1    4    4    0    0  0.95889618978E+01  0.72896551080E+01 -0.43724898488E+03  0.45494974463E+03  0.12509000000E+03 0.  0.
<mgrwt>
<rscale>  2 0.45435285E+03</rscale>
<asrwt>0</asrwt>
<pdfrwt beam="1">  1       21 0.92974597E-02 0.45435285E+03</pdfrwt>
<pdfrwt beam="2">  1       21 0.12004509E+00 0.45435285E+03</pdfrwt>
<totfact> 0.44355018E+04</totfact>
</mgrwt>
</event>
<event>
 7    0  0.4705418E-002  0.4492948E+03  0.7546771E-02  0.1027933E+00
         21   -1    0    0  502  501  0.00000000000E+00  0.00000000000E+00  0.12766235098E+04  0.12766235098E+04  0.00000000000E+00 0. -1.
         21   -1    0    0  501  502 -0.00000000000E+00 -0.00000000000E+00 -0.39531187949E+02  0.39531187949E+02  0.00000000000E+00 0. -1.
      99926    2    1    2    0    0  0.00000000000E+00  0.44408920985E-15  0.12370923219E+04  0.13161546978E+04  0.44929475361E+03 0.  0.
      99925    2    3    3    0    0  0.85528236675E+02 -0.15122898055E+01  0.58991946593E+03  0.65147614399E+03  0.26286655096E+03 0.  0.
         25    1    4    4    0    0  0.65579701502E+02  0.17496607689E+02  0.24224631574E+03  0.28095838503E+03  0.12509000000E+03 0.  0.
         25    1    3    3    0    0 -0.85528236675E+02  0.15122898055E+01  0.64717285592E+03  0.66467855376E+03  0.12509000000E+03 0.  0.
         25    1    4    4    0    0  0.19948535173E+02 -0.19008897495E+02  0.34767315019E+03  0.37051775896E+03  0.12509000000E+03 0.  0.
<mgrwt>
<rscale>  2 0.44929475E+03</rscale>
<asrwt>0</asrwt>
<pdfrwt beam="1">  1       21 0.18773872E+00 0.44929475E+03</pdfrwt>
<pdfrwt beam="2">  1       21 0.58134108E-02 0.44929475E+03</pdfrwt>
<totfact> 0.29956255E+04</totfact>
</mgrwt>
</event>
<event>
 7    0  0.4705418E-002  0.4540490E+03  0.7546771E-02  0.1026521E+00
         21   -1    0    0  502  501  0.00000000000E+00  0.00000000000E+00  0.17387177902E+03  0.17387177902E+03  0.00000000000E+00 0. -1.
         21   -1    0    0  501  502 -0.00000000000E+00 -0.00000000000E+00 -0.29642599180E+03  0.29642599180E+03  0.00000000000E+00 0. -1.
      99926    2    1    2    0    0  0.00000000000E+00  0.00000000000E+00 -0.12255421278E+03  0.47029777082E+03  0.45404896010E+03 0.  0.
      99925    2    3    3    0    0  0.53182758057E+02 -0.20833310744E+02 -0.17754345045E+03  0.32219727470E+03  0.26272985067E+03 0.  0.
         25    1    3    3    0    0 -0.53182758057E+02  0.20833310744E+02  0.54989237673E+02  0.14810049612E+03  0.12509000000E+03 0.  0.
         25    1    4    4    0    0  0.78850619570E+00  0.20672647596E+02 -0.90730652369E+02  0.15590875370E+03  0.12509000000E+03 0.  0.
         25    1    4    4    0    0  0.52394251862E+02 -0.41505958340E+02 -0.86812798085E+02  0.16628852100E+03  0.12509000000E+03 0.  0.
<mgrwt>
<rscale>  2 0.45404896E+03</rscale>
<asrwt>0</asrwt>
<pdfrwt beam="1">  1       21 0.25569379E-01 0.45404896E+03</pdfrwt>
<pdfrwt beam="2">  1       21 0.43592057E-01 0.45404896E+03</pdfrwt>
<totfact> 0.67924614E+04</totfact>
</mgrwt>
</event>
<event>
 7    0  0.4705418E-002  0.4556228E+03  0.7546771E-02  0.1026058E+00
         21   -1    0    0  502  501  0.00000000000E+00  0.00000000000E+00  0.60240929184E+02  0.60240929184E+02  0.00000000000E+00 0. -1.
         21   -1    0    0  501  502 -0.00000000000E+00 -0.00000000000E+00 -0.86150783645E+03  0.86150783645E+03  0.00000000000E+00 0. -1.
      99926    2    1    2    0    0 -0.14210854715E-13 -0.35527136788E-14 -0.80126690726E+03  0.92174876563E+03  0.45562279384E+03 0.  0.
      99925    2    3    3    0    0  0.81480538079E+02  0.22761812284E+02 -0.34992860013E+03  0.44581709641E+03  0.26295566181E+03 0.  0.
         25    1    4    4    0    0  0.60327143309E+01 -0.10031899618E+02 -0.17742806456E+03  0.21740574704E+03  0.12509000000E+03 0.  0.
         25    1    4    4    0    0  0.75447823748E+02  0.32793711903E+02 -0.17250053557E+03  0.22841134937E+03  0.12509000000E+03 0.  0.
         25    1    3    3    0    0 -0.81480538079E+02 -0.22761812284E+02 -0.45133830714E+03  0.47593166923E+03  0.12509000000E+03 0.  0.
<mgrwt>
<rscale>  2 0.45562279E+03</rscale>
<asrwt>0</asrwt>
<pdfrwt beam="1">  1       21 0.88589605E-02 0.45562279E+03</pdfrwt>
<pdfrwt beam="2">  1       21 0.12669232E+00 0.45562279E+03</pdfrwt>
<totfact> 0.42101058E+04</totfact>
</mgrwt>
</event>
<event>
 7    0  0.4705418E-002  0.4482307E+03  0.7546771E-02  0.1028251E+00
         21   -1    0    0  502  501  0.00000000000E+00  0.00000000000E+00  0.28535452856E+03  0.28535452856E+03  0.00000000000E+00 0. -1.
         21   -1    0    0  501  502 -0.00000000000E+00 -0.00000000000E+00 -0.17601857609E+03  0.17601857609E+03  0.00000000000E+00 0. -1.
      99926    2    1    2    0    0  0.35527136788E-14  0.00000000000E+00  0.10933595247E+03  0.46137310464E+03  0.44823073431E+03 0.  0.
      99925    2    3    3    0    0 -0.27926681104E+02 -0.81149934113E+02  0.13453962916E+03  0.30759422201E+03  0.26296022946E+03 0.  0.
         25    1    4    4    0    0 -0.27741331763E+02 -0.57773029713E+02  0.31954142845E+02  0.14413840500E+03  0.12509000000E+03 0.  0.
         25    1    4    4    0    0 -0.18534934157E+00 -0.23376904400E+02  0.10258548632E+03  0.16345581702E+03  0.12509000000E+03 0.  0.
         25    1    3    3    0    0  0.27926681104E+02  0.81149934113E+02 -0.25203676689E+02  0.15377888263E+03  0.12509000000E+03 0.  0.
<mgrwt>
<rscale>  2 0.44823073E+03</rscale>
<asrwt>0</asrwt>
<pdfrwt beam="1">  1       21 0.41963902E-01 0.44823073E+03</pdfrwt>
<pdfrwt beam="2">  1       21 0.25885085E-01 0.44823073E+03</pdfrwt>
<totfact> 0.71864864E+04</totfact>
</mgrwt>
</event>
<event>
 7    0  0.4705418E-002  0.4581376E+03  0.7546771E-02  0.1025323E+00
         21   -1    0    0  502  501  0.00000000000E+00  0.00000000000E+00  0.21612021109E+02  0.21612021109E+02  0.00000000000E+00 0.  1.
         21   -1    0    0  501  502 -0.00000000000E+00 -0.00000000000E+00 -0.24279315820E+04  0.24279315820E+04  0.00000000000E+00 0.  1.
      99926    2    1    2    0    0  0.00000000000E+00  0.00000000000E+00 -0.24063195609E+04  0.24495436031E+04  0.45813757148E+03 0.  0.
      99925    2    3    3    0    0 -0.41043738359E+02  0.41715396309E+02 -0.97403493607E+03  0.10106163925E+04  0.26301458784E+03 0.  0.
         25    1    4    4    0    0 -0.29025820161E+02 -0.18697872292E+02 -0.49111354141E+03  0.50796862828E+03  0.12509000000E+03 0.  0.
         25    1    3    3    0    0  0.41043738359E+02 -0.41715396309E+02 -0.14322846248E+04  0.14389272106E+04  0.12509000000E+03 0.  0.
         25    1    4    4    0    0 -0.12017918199E+02  0.60413268601E+02 -0.48292139467E+03  0.50264776425E+03  0.12509000000E+03 0.  0.
<mgrwt>
<rscale>  2 0.45813757E+03</rscale>
<asrwt>0</asrwt>
<pdfrwt beam="1">  1       21 0.31782382E-02 0.45813757E+03</pdfrwt>
<pdfrwt beam="2">  1       21 0.35704879E+00 0.45813757E+03</pdfrwt>
<totfact> 0.74779645E+03</totfact>
</mgrwt>
</event>
<event>
 7    0  0.4705418E-002  0.4508395E+03  0.7546771E-02  0.1027472E+00
         21   -1    0    0  502  501  0.00000000000E+00  0.00000000000E+00  0.17146458485E+03  0.17146458485E+03  0.00000000000E+00 0. -1.
         21   -1    0    0  501  502 -0.00000000000E+00 -0.00000000000E+00 -0.29635306487E+03  0.29635306487E+03  0.00000000000E+00 0. -1.
      99926    2    1    2    0    0  0.00000000000E+00  0.00000000000E+00 -0.12488848002E+03  0.46781764972E+03  0.45083946251E+03 0.  0.
      99925    2    3    3    0    0 -0.44725791543E+02  0.73341721668E+02 -0.89574805980E+01  0.27685453996E+03  0.26303763090E+03 0.  0.
         25    1    4    4    0    0  0.23686256471E+00  0.12763903045E+02  0.21688136607E+02  0.12759646035E+03  0.12509000000E+03 0.  0.
         25    1    3    3    0    0  0.44725791543E+02 -0.73341721668E+02 -0.11593099942E+03  0.19096310977E+03  0.12509000000E+03 0.  0.
         25    1    4    4    0    0 -0.44962654108E+02  0.60577818623E+02 -0.30645617205E+02  0.14925807961E+03  0.12509000000E+03 0.  0.
<mgrwt>
<rscale>  2 0.45083946E+03</rscale>
<asrwt>0</asrwt>
<pdfrwt beam="1">  1       21 0.25215380E-01 0.45083946E+03</pdfrwt>
<pdfrwt beam="2">  1       21 0.43581333E-01 0.45083946E+03</pdfrwt>
<totfact> 0.69876447E+04</totfact>
</mgrwt>
</event>
<event>
 7    0  0.4705418E-002  0.4504424E+03  0.7546771E-02  0.1027590E+00
         21   -1    0    0  502  501  0.00000000000E+00  0.00000000000E+00  0.39616266688E+02  0.39616266688E+02  0.00000000000E+00 0.  1.
         21   -1    0    0  501  502 -0.00000000000E+00 -0.00000000000E+00 -0.12803979957E+04  0.12803979957E+04  0.00000000000E+00 0.  1.
      99926    2    1    2    0    0 -0.88817841970E-15  0.00000000000E+00 -0.12407817290E+04  0.13200142624E+04  0.45044239794E+03 0.  0.
      99925    2    3    3    0    0  0.66621882122E+01 -0.85804798657E+02 -0.58806756153E+03  0.64987238133E+03  0.26287602945E+03 0.  0.
         25    1    3    3    0    0 -0.66621882122E+01  0.85804798657E+02 -0.65271416747E+03  0.67014188105E+03  0.12509000000E+03 0.  0.
         25    1    4    4    0    0  0.49892533966E+01 -0.22405295358E+02 -0.36351640559E+03  0.38512150699E+03  0.12509000000E+03 0.  0.
         25    1    4    4    0    0  0.16729348156E+01 -0.63399503299E+02 -0.22455115594E+03  0.26475087434E+03  0.12509000000E+03 0.  0.
<mgrwt>
<rscale>  2 0.45044240E+03</rscale>
<asrwt>0</asrwt>
<pdfrwt beam="1">  1       21 0.58259197E-02 0.45044240E+03</pdfrwt>
<pdfrwt beam="2">  1       21 0.18829388E+00 0.45044240E+03</pdfrwt>
<totfact> 0.29573204E+04</totfact>
</mgrwt>
</event>
<event>
 7    0  0.4705418E-002  0.4523855E+03  0.7546771E-02  0.1027013E+00
         21   -1    0    0  502  501  0.00000000000E+00  0.00000000000E+00  0.89469814347E+02  0.89469814347E+02  0.00000000000E+00 0.  1.
         21   -1    0    0  501  502 -0.00000000000E+00 -0.00000000000E+00 -0.57184835301E+03  0.57184835301E+03  0.00000000000E+00 0.  1.
      99926    2    1    2    0    0  0.00000000000E+00  0.00000000000E+00 -0.48237853866E+03  0.66131816735E+03  0.45238552575E+03 0.  0.
      99925    2    3    3    0    0  0.54591391897E+02 -0.92691162240E+02 -0.26506716735E+03  0.38847460076E+03  0.26283082127E+03 0.  0.
         25    1    4    4    0    0  0.29206658008E+02 -0.51398356833E+02 -0.18908710006E+03  0.23429950804E+03  0.12509000000E+03 0.  0.
         25    1    4    4    0    0  0.25384733889E+02 -0.41292805407E+02 -0.75980067287E+02  0.15417509273E+03  0.12509000000E+03 0.  0.
         25    1    3    3    0    0 -0.54591391897E+02  0.92691162240E+02 -0.21731137132E+03  0.27284356659E+03  0.12509000000E+03 0.  0.
<mgrwt>
<rscale>  2 0.45238553E+03</rscale>
<asrwt>0</asrwt>
<pdfrwt beam="1">  1       21 0.13157326E-01 0.45238553E+03</pdfrwt>
<pdfrwt beam="2">  1       21 0.84095347E-01 0.45238553E+03</pdfrwt>
<totfact> 0.56203260E+04</totfact>
</mgrwt>
</event>
<event>
 7    0  0.4705418E-002  0.4297563E+03  0.7546771E-02  0.1033937E+00
         21   -1    0    0  502  501  0.00000000000E+00  0.00000000000E+00  0.54132573276E+02  0.54132573276E+02  0.00000000000E+00 0.  1.
         21   -1    0    0  501  502 -0.00000000000E+00 -0.00000000000E+00 -0.85295450812E+03  0.85295450812E+03  0.00000000000E+00 0.  1.
      99926    2    1    2    0    0  0.00000000000E+00  0.17763568394E-14 -0.79882193485E+03  0.90708708140E+03  0.42975631426E+03 0.  0.
      99925    2    3    3    0    0 -0.86446636915E+02  0.11836754773E+02 -0.51856627961E+03  0.58801989382E+03  0.26314117766E+03 0.  0.
         25    1    4    4    0    0 -0.15052606474E+02 -0.87873817729E+00 -0.17847028818E+03  0.21846396730E+03  0.12509000000E+03 0.  0.
         25    1    3    3    0    0  0.86446636915E+02 -0.11836754773E+02 -0.28025565523E+03  0.31906718757E+03  0.12509000000E+03 0.  0.
         25    1    4    4    0    0 -0.71394030442E+02  0.12715492950E+02 -0.34009599143E+03  0.36955592653E+03  0.12509000000E+03 0.  0.
<mgrwt>
<rscale>  2 0.42975631E+03</rscale>
<asrwt>0</asrwt>
<pdfrwt beam="1">  1       21 0.79606729E-02 0.42975631E+03</pdfrwt>
<pdfrwt beam="2">  1       21 0.12543448E+00 0.42975631E+03</pdfrwt>
<totfact> 0.52568207E+04</totfact>
</mgrwt>
</event>
<event>
 7    0  0.4705418E-002  0.4176102E+03  0.7546771E-02  0.1037847E+00
         21   -1    0    0  502  501  0.00000000000E+00  0.00000000000E+00  0.99842350849E+03  0.99842350849E+03  0.00000000000E+00 0.  1.
         21   -1    0    0  501  502 -0.00000000000E+00 -0.00000000000E+00 -0.43668418562E+02  0.43668418562E+02  0.00000000000E+00 0.  1.
      99926    2    1    2    0    0  0.00000000000E+00  0.00000000000E+00  0.95475508993E+03  0.10420919271E+04  0.41761022819E+03 0.  0.
      99925    2    3    3    0    0  0.55340378648E+02 -0.46932074595E+02  0.61190962470E+03  0.66999557090E+03  0.26305037367E+03 0.  0.
         25    1    4    4    0    0 -0.10722398133E+02 -0.37772403841E+02  0.29654760504E+03  0.32423712691E+03  0.12509000000E+03 0.  0.
         25    1    3    3    0    0 -0.55340378648E+02  0.46932074595E+02  0.34284546523E+03  0.37209635616E+03  0.12509000000E+03 0.  0.
         25    1    4    4    0    0  0.66062776781E+02 -0.91596707541E+01  0.31536201966E+03  0.34575844399E+03  0.12509000000E+03 0.  0.
<mgrwt>
<rscale>  2 0.41761023E+03</rscale>
<asrwt>0</asrwt>
<pdfrwt beam="1">  1       21 0.14682697E+00 0.41761023E+03</pdfrwt>
<pdfrwt beam="2">  1       21 0.64218269E-02 0.41761023E+03</pdfrwt>
<totfact> 0.50872392E+04</totfact>
</mgrwt>
</event>
<event>
 7    0  0.4705418E-002  0.4543325E+03  0.7546771E-02  0.1026438E+00
         21   -1    0    0  502  501  0.00000000000E+00  0.00000000000E+00  0.11805971141E+03  0.11805971141E+03  0.00000000000E+00 0.  1.
         21   -1    0    0  501  502 -0.00000000000E+00 -0.00000000000E+00 -0.43710516642E+03  0.43710516642E+03  0.00000000000E+00 0.  1.
      99926    2    1    2    0    0  0.00000000000E+00  0.00000000000E+00 -0.31904545501E+03  0.55516487784E+03  0.45433252054E+03 0.  0.
      99925    2    3    3    0    0  0.17532315192E+02  0.67703545758E+02 -0.30857697368E+03  0.41146989050E+03  0.26305240908E+03 0.  0.
         25    1    3    3    0    0 -0.17532315192E+02 -0.67703545758E+02 -0.10468481334E+02  0.14369498734E+03  0.12509000000E+03 0.  0.
         25    1    4    4    0    0  0.46790089939E+02  0.28090596328E+02 -0.13551954839E+03  0.19233161522E+03  0.12509000000E+03 0.  0.
         25    1    4    4    0    0 -0.29257774747E+02  0.39612949430E+02 -0.17305742529E+03  0.21913827528E+03  0.12509000000E+03 0.  0.
<mgrwt>
<rscale>  2 0.45433252E+03</rscale>
<asrwt>0</asrwt>
<pdfrwt beam="1">  1       21 0.17361722E-01 0.45433252E+03</pdfrwt>
<pdfrwt beam="2">  1       21 0.64280173E-01 0.45433252E+03</pdfrwt>
<totfact> 0.61852452E+04</totfact>
</mgrwt>
</event>
<event>
 7    0  0.4705418E-002  0.4559488E+03  0.7546771E-02  0.1025963E+00
         21   -1    0    0  502  501  0.00000000000E+00  0.00000000000E+00  0.11418965204E+03  0.11418965204E+03  0.00000000000E+00 0. -1.
         21   -1    0    0  501  502 -0.00000000000E+00 -0.00000000000E+00 -0.45514052202E+03  0.45514052202E+03  0.00000000000E+00 0. -1.
      99926    2    1    2    0    0  0.71054273576E-14  0.00000000000E+00 -0.34095086998E+03  0.56933017406E+03  0.45594884730E+03 0.  0.
      99925    2    3    3    0    0 -0.63773614371E+02 -0.93923220031E+02 -0.22844828290E+03  0.36636962284E+03  0.26296280618E+03 0.  0.
         25    1    3    3    0    0  0.63773614371E+02  0.93923220031E+02 -0.11250258708E+03  0.20296055122E+03  0.12509000000E+03 0.  0.
         25    1    4    4    0    0 -0.52216424510E+02 -0.65540835062E+02 -0.82363202491E+02  0.17161981609E+03  0.12509000000E+03 0.  0.
         25    1    4    4    0    0 -0.11557189862E+02 -0.28382384969E+02 -0.14608508041E+03  0.19474980676E+03  0.12509000000E+03 0.  0.
<mgrwt>
<rscale>  2 0.45594885E+03</rscale>
<asrwt>0</asrwt>
<pdfrwt beam="1">  1       21 0.16792596E-01 0.45594885E+03</pdfrwt>
<pdfrwt beam="2">  1       21 0.66932430E-01 0.45594885E+03</pdfrwt>
<totfact> 0.60154303E+04</totfact>
</mgrwt>
</event>
<event>
 7    0  0.4705418E-002  0.4334670E+03  0.7546771E-02  0.1032770E+00
         21   -1    0    0  502  501  0.00000000000E+00  0.00000000000E+00  0.58242994593E+02  0.58242994593E+02  0.00000000000E+00 0.  1.
         21   -1    0    0  501  502 -0.00000000000E+00 -0.00000000000E+00 -0.80650762190E+03  0.80650762190E+03  0.00000000000E+00 0.  1.
      99926    2    1    2    0    0  0.00000000000E+00  0.00000000000E+00 -0.74826462730E+03  0.86475061649E+03  0.43346704171E+03 0.  0.
      99925    2    3    3    0    0 -0.17134894654E+02 -0.84493183160E+02 -0.41972230802E+03  0.50278339937E+03  0.26304301589E+03 0.  0.
         25    1    4    4    0    0 -0.34681522379E+01 -0.69532064094E+01 -0.15236308771E+03  0.19728759149E+03  0.12509000000E+03 0.  0.
         25    1    3    3    0    0  0.17134894654E+02  0.84493183160E+02 -0.32854231928E+03  0.36196721712E+03  0.12509000000E+03 0.  0.
         25    1    4    4    0    0 -0.13666742416E+02 -0.77539976750E+02 -0.26735922031E+03  0.30549580787E+03  0.12509000000E+03 0.  0.
<mgrwt>
<rscale>  2 0.43346704E+03</rscale>
<asrwt>0</asrwt>
<pdfrwt beam="1">  1       21 0.85651470E-02 0.43346704E+03</pdfrwt>
<pdfrwt beam="2">  1       21 0.11860405E+00 0.43346704E+03</pdfrwt>
<totfact> 0.53215947E+04</totfact>
</mgrwt>
</event>
<event>
 7    0  0.4705418E-002  0.4398297E+03  0.7546771E-02  0.1030799E+00
         21   -1    0    0  502  501  0.00000000000E+00  0.00000000000E+00  0.70719938326E+03  0.70719938326E+03  0.00000000000E+00 0. -1.
         21   -1    0    0  501  502 -0.00000000000E+00 -0.00000000000E+00 -0.68386005565E+02  0.68386005565E+02  0.00000000000E+00 0. -1.
      99926    2    1    2    0    0  0.44408920985E-14  0.00000000000E+00  0.63881337770E+03  0.77558538883E+03  0.43982969868E+03 0.  0.
      99925    2    3    3    0    0 -0.29084834375E+01 -0.87171684296E+02  0.48797114970E+03  0.56109005632E+03  0.26286659458E+03 0.  0.
         25    1    4    4    0    0  0.38587094442E+02 -0.48445421640E+02  0.24345061964E+03  0.28062721721E+03  0.12509000000E+03 0.  0.
         25    1    4    4    0    0 -0.41495577879E+02 -0.38726262656E+02  0.24452053006E+03  0.28046283911E+03  0.12509000000E+03 0.  0.
         25    1    3    3    0    0  0.29084834375E+01  0.87171684296E+02  0.15084222800E+03  0.21449533250E+03  0.12509000000E+03 0.  0.
<mgrwt>
<rscale>  2 0.43982970E+03</rscale>
<asrwt>0</asrwt>
<pdfrwt beam="1">  1       21 0.10399991E+00 0.43982970E+03</pdfrwt>
<pdfrwt beam="2">  1       21 0.10056766E-01 0.43982970E+03</pdfrwt>
<totfact> 0.55261081E+04</totfact>
</mgrwt>
</event>
<event>
 7    0  0.4705418E-002  0.4679133E+03  0.7546771E-02  0.1022511E+00
         21   -1    0    0  502  501  0.00000000000E+00  0.00000000000E+00  0.69249629294E+03  0.69249629294E+03  0.00000000000E+00 0.  1.
         21   -1    0    0  501  502 -0.00000000000E+00 -0.00000000000E+00 -0.79041152574E+02  0.79041152574E+02  0.00000000000E+00 0.  1.
      99926    2    1    2    0    0  0.00000000000E+00  0.00000000000E+00  0.61345514037E+03  0.77153744552E+03  0.46791326182E+03 0.  0.
      99925    2    3    3    0    0 -0.67713828199E+02  0.98572491860E+02  0.32231887564E+03  0.43284948969E+03  0.26299719476E+03 0.  0.
         25    1    4    4    0    0 -0.55658198148E+02  0.86303684984E+02  0.19691030092E+03  0.25488690781E+03  0.12509000000E+03 0.  0.
         25    1    3    3    0    0  0.67713828199E+02 -0.98572491860E+02  0.29113626473E+03  0.33868795583E+03  0.12509000000E+03 0.  0.
         25    1    4    4    0    0 -0.12055630051E+02  0.12268806876E+02  0.12540857472E+03  0.17796258189E+03  0.12509000000E+03 0.  0.
<mgrwt>
<rscale>  2 0.46791326E+03</rscale>
<asrwt>0</asrwt>
<pdfrwt beam="1">  1       21 0.10183769E+00 0.46791326E+03</pdfrwt>
<pdfrwt beam="2">  1       21 0.11623699E-01 0.46791326E+03</pdfrwt>
<totfact> 0.44488277E+04</totfact>
</mgrwt>
</event>
<event>
 7    0  0.4705418E-002  0.4509692E+03  0.7546771E-02  0.1027433E+00
         21   -1    0    0  502  501  0.00000000000E+00  0.00000000000E+00  0.73877264859E+02  0.73877264859E+02  0.00000000000E+00 0.  1.
         21   -1    0    0  501  502 -0.00000000000E+00 -0.00000000000E+00 -0.68821321435E+03  0.68821321435E+03  0.00000000000E+00 0.  1.
      99926    2    1    2    0    0  0.00000000000E+00  0.00000000000E+00 -0.61433594949E+03  0.76209047921E+03  0.45096922252E+03 0.  0.
      99925    2    3    3    0    0 -0.17895999531E+02  0.83926206869E+02 -0.27326484370E+03  0.38880656273E+03  0.26293153751E+03 0.  0.
         25    1    4    4    0    0  0.90710777484E+01  0.18695669438E+02 -0.16918335530E+03  0.21142925133E+03  0.12509000000E+03 0.  0.
         25    1    4    4    0    0 -0.26967077279E+02  0.65230537431E+02 -0.10408148840E+03  0.17737731139E+03  0.12509000000E+03 0.  0.
         25    1    3    3    0    0  0.17895999531E+02 -0.83926206869E+02 -0.34107110579E+03  0.37328391648E+03  0.12509000000E+03 0.  0.
<mgrwt>
<rscale>  2 0.45096922E+03</rscale>
<asrwt>0</asrwt>
<pdfrwt beam="1">  1       21 0.10864304E-01 0.45096922E+03</pdfrwt>
<pdfrwt beam="2">  1       21 0.10120782E+00 0.45096922E+03</pdfrwt>
<totfact> 0.51255665E+04</totfact>
</mgrwt>
</event>
<event>
 7    0  0.4705418E-002  0.4551622E+03  0.7546771E-02  0.1026194E+00
         21   -1    0    0  502  501  0.00000000000E+00  0.00000000000E+00  0.84699545399E+03  0.84699545399E+03  0.00000000000E+00 0.  1.
         21   -1    0    0  501  502 -0.00000000000E+00 -0.00000000000E+00 -0.61149273849E+02  0.61149273849E+02  0.00000000000E+00 0.  1.
      99926    2    1    2    0    0  0.35527136788E-14  0.00000000000E+00  0.78584618014E+03  0.90814472784E+03  0.45516219951E+03 0.  0.
      99925    2    3    3    0    0  0.12297255251E+02 -0.93283934043E+02  0.36829306261E+03  0.46221734709E+03  0.26296764279E+03 0.  0.
         25    1    4    4    0    0 -0.23662474066E+02 -0.46426322909E+02  0.13688772345E+03  0.19261638837E+03  0.12509000000E+03 0.  0.
         25    1    3    3    0    0 -0.12297255251E+02  0.93283934043E+02  0.41755311754E+03  0.44592738075E+03  0.12509000000E+03 0.  0.
         25    1    4    4    0    0  0.35959729316E+02 -0.46857611134E+02  0.23140533916E+03  0.26960095872E+03  0.12509000000E+03 0.  0.
<mgrwt>
<rscale>  2 0.45516220E+03</rscale>
<asrwt>0</asrwt>
<pdfrwt beam="1">  1       21 0.12455815E+00 0.45516220E+03</pdfrwt>
<pdfrwt beam="2">  1       21 0.89925408E-02 0.45516220E+03</pdfrwt>
<totfact> 0.42829042E+04</totfact>
</mgrwt>
</event>
<event>
 7    0  0.4705418E-002  0.4590163E+03  0.7546771E-02  0.1025067E+00
         21   -1    0    0  502  501  0.00000000000E+00  0.00000000000E+00  0.66442365233E+03  0.66442365233E+03  0.00000000000E+00 0.  1.
         21   -1    0    0  501  502 -0.00000000000E+00 -0.00000000000E+00 -0.79277710908E+02  0.79277710908E+02  0.00000000000E+00 0.  1.
      99926    2    1    2    0    0  0.00000000000E+00  0.00000000000E+00  0.58514594142E+03  0.74370136324E+03  0.45901627958E+03 0.  0.
      99925    2    3    3    0    0  0.84855126125E+02  0.54390363992E+02  0.27077387068E+03  0.39066310598E+03  0.26294575335E+03 0.  0.
         25    1    4    4    0    0  0.47970057733E+01  0.72925664457E+01  0.13116622168E+03  0.18146150721E+03  0.12509000000E+03 0.  0.
         25    1    3    3    0    0 -0.84855126125E+02 -0.54390363992E+02  0.31437207074E+03  0.35303825726E+03  0.12509000000E+03 0.  0.
         25    1    4    4    0    0  0.80058120351E+02  0.47097797546E+02  0.13960764900E+03  0.20920159877E+03  0.12509000000E+03 0.  0.
<mgrwt>
<rscale>  2 0.45901628E+03</rscale>
<asrwt>0</asrwt>
<pdfrwt beam="1">  1       21 0.97709358E-01 0.45901628E+03</pdfrwt>
<pdfrwt beam="2">  1       21 0.11658487E-01 0.45901628E+03</pdfrwt>
<totfact> 0.49027362E+04</totfact>
</mgrwt>
</event>
<event>
 7    0  0.4705418E-002  0.4436802E+03  0.7546771E-02  0.1029624E+00
         21   -1    0    0  502  501  0.00000000000E+00  0.00000000000E+00  0.16418557017E+03  0.16418557017E+03  0.00000000000E+00 0. -1.
         21   -1    0    0  501  502 -0.00000000000E+00 -0.00000000000E+00 -0.29974034846E+03  0.29974034846E+03  0.00000000000E+00 0. -1.
      99926    2    1    2    0    0  0.00000000000E+00  0.00000000000E+00 -0.13555477829E+03  0.46392591863E+03  0.44368024529E+03 0.  0.
      99925    2    3    3    0    0  0.55188936163E+02 -0.78331003096E+02 -0.49002065642E+02  0.28414704087E+03  0.26297675501E+03 0.  0.
         25    1    4    4    0    0  0.34622230973E+02 -0.17603954738E+02  0.10725367537E+02  0.13141970822E+03  0.12509000000E+03 0.  0.
         25    1    4    4    0    0  0.20566705190E+02 -0.60727048358E+02 -0.59727433179E+02  0.15272733265E+03  0.12509000000E+03 0.  0.
         25    1    3    3    0    0 -0.55188936163E+02  0.78331003096E+02 -0.86552712648E+02  0.17977887776E+03  0.12509000000E+03 0.  0.
<mgrwt>
<rscale>  2 0.44368025E+03</rscale>
<asrwt>0</asrwt>
<pdfrwt beam="1">  1       21 0.24144937E-01 0.44368025E+03</pdfrwt>
<pdfrwt beam="2">  1       21 0.44079462E-01 0.44368025E+03</pdfrwt>
<totfact> 0.74346109E+04</totfact>
</mgrwt>
</event>
<event>
 7    0  0.4705418E-002  0.4482442E+03  0.7546771E-02  0.1028247E+00
         21   -1    0    0  502  501  0.00000000000E+00  0.00000000000E+00  0.63195669832E+02  0.63195669832E+02  0.00000000000E+00 0. -1.
         21   -1    0    0  501  502 -0.00000000000E+00 -0.00000000000E+00 -0.79484419090E+03  0.79484419090E+03  0.00000000000E+00 0. -1.
      99926    2    1    2    0    0  0.00000000000E+00  0.00000000000E+00 -0.73164852107E+03  0.85803986073E+03  0.44824417924E+03 0.  0.
      99925    2    3    3    0    0 -0.53555174670E+02 -0.89424950976E+02 -0.41948079288E+03  0.50595865247E+03  0.26299247864E+03 0.  0.
         25    1    4    4    0    0 -0.32128542059E+01 -0.28298280629E+02 -0.24944756920E+03  0.28050439034E+03  0.12509000000E+03 0.  0.
         25    1    4    4    0    0 -0.50342320465E+02 -0.61126670347E+02 -0.17003322368E+03  0.22545426213E+03  0.12509000000E+03 0.  0.
         25    1    3    3    0    0  0.53555174670E+02  0.89424950976E+02 -0.31216772818E+03  0.35208120826E+03  0.12509000000E+03 0.  0.
<mgrwt>
<rscale>  2 0.44824418E+03</rscale>
<asrwt>0</asrwt>
<pdfrwt beam="1">  1       21 0.92934803E-02 0.44824418E+03</pdfrwt>
<pdfrwt beam="2">  1       21 0.11688886E+00 0.44824418E+03</pdfrwt>
<totfact> 0.47551953E+04</totfact>
</mgrwt>
</event>
<event>
 7    0  0.4705418E-002  0.4578897E+03  0.7546771E-02  0.1025395E+00
         21   -1    0    0  502  501  0.00000000000E+00  0.00000000000E+00  0.50971016257E+03  0.50971016257E+03  0.00000000000E+00 0.  1.
         21   -1    0    0  501  502 -0.00000000000E+00 -0.00000000000E+00 -0.10283440210E+03  0.10283440210E+03  0.00000000000E+00 0.  1.
      99926    2    1    2    0    0 -0.71054273576E-14  0.00000000000E+00  0.40687576047E+03  0.61254456467E+03  0.45788968022E+03 0.  0.
      99925    2    3    3    0    0  0.57991732832E+02  0.35007446248E+02  0.38111059247E+03  0.46797653795E+03  0.26299846768E+03 0.  0.
         25    1    4    4    0    0  0.34771451778E+02  0.23387567831E+02  0.12484490487E+03  0.18163091851E+03  0.12509000000E+03 0.  0.
         25    1    3    3    0    0 -0.57991732832E+02 -0.35007446248E+02  0.25765167992E+02  0.14456802673E+03  0.12509000000E+03 0.  0.
         25    1    4    4    0    0  0.23220281054E+02  0.11619878417E+02  0.25626568760E+03  0.28634561943E+03  0.12509000000E+03 0.  0.
<mgrwt>
<rscale>  2 0.45788968E+03</rscale>
<asrwt>0</asrwt>
<pdfrwt beam="1">  1       21 0.74957376E-01 0.45788968E+03</pdfrwt>
<pdfrwt beam="2">  1       21 0.15122706E-01 0.45788968E+03</pdfrwt>
<totfact> 0.56609526E+04</totfact>
</mgrwt>
</event>
<event>
 7    0  0.4705418E-002  0.4521459E+03  0.7546771E-02  0.1027084E+00
         21   -1    0    0  502  501  0.00000000000E+00  0.00000000000E+00  0.11468614428E+03  0.11468614428E+03  0.00000000000E+00 0.  1.
         21   -1    0    0  501  502 -0.00000000000E+00 -0.00000000000E+00 -0.44564207698E+03  0.44564207698E+03  0.00000000000E+00 0.  1.
      99926    2    1    2    0    0  0.00000000000E+00  0.00000000000E+00 -0.33095593270E+03  0.56032822125E+03  0.45214586821E+03 0.  0.
      99925    2    3    3    0    0  0.16791182115E+02  0.72462998229E+02 -0.10715784420E+03  0.29337144118E+03  0.26277589124E+03 0.  0.
         25    1    4    4    0    0  0.18691250278E+02 -0.89845954246E+00 -0.65736209589E+02  0.14254447523E+03  0.12509000000E+03 0.  0.
         25    1    3    3    0    0 -0.16791182115E+02 -0.72462998229E+02 -0.22379808850E+03  0.26695678007E+03  0.12509000000E+03 0.  0.
         25    1    4    4    0    0 -0.19000681626E+01  0.73361457771E+02 -0.41421634613E+02  0.15082696596E+03  0.12509000000E+03 0.  0.
<mgrwt>
<rscale>  2 0.45214587E+03</rscale>
<asrwt>0</asrwt>
<pdfrwt beam="1">  1       21 0.16865610E-01 0.45214587E+03</pdfrwt>
<pdfrwt beam="2">  1       21 0.65535599E-01 0.45214587E+03</pdfrwt>
<totfact> 0.62590215E+04</totfact>
</mgrwt>
</event>
<event>
 7    0  0.4705418E-002  0.4591054E+03  0.7546771E-02  0.1025041E+00
         21   -1    0    0  502  501  0.00000000000E+00  0.00000000000E+00  0.74977263915E+02  0.74977263915E+02  0.00000000000E+00 0.  1.
         21   -1    0    0  501  502 -0.00000000000E+00 -0.00000000000E+00 -0.70280568094E+03  0.70280568094E+03  0.00000000000E+00 0.  1.
      99926    2    1    2    0    0  0.00000000000E+00 -0.71054273576E-14 -0.62782841702E+03  0.77778294485E+03  0.45910542154E+03 0.  0.
      99925    2    3    3    0    0 -0.68956465808E+02 -0.58619395850E+02 -0.26786310558E+03  0.38610225693E+03  0.26293170545E+03 0.  0.
         25    1    4    4    0    0 -0.26013804485E+02 -0.65423425010E+02 -0.11558489351E+03  0.18429410808E+03  0.12509000000E+03 0.  0.
         25    1    4    4    0    0 -0.42942661324E+02  0.68040291597E+01 -0.15227821207E+03  0.20180814886E+03  0.12509000000E+03 0.  0.
         25    1    3    3    0    0  0.68956465808E+02  0.58619395850E+02 -0.35996531145E+03  0.39168068792E+03  0.12509000000E+03 0.  0.
<mgrwt>
<rscale>  2 0.45910542E+03</rscale>
<asrwt>0</asrwt>
<pdfrwt beam="1">  1       21 0.11026069E-01 0.45910542E+03</pdfrwt>
<pdfrwt beam="2">  1       21 0.10335377E+00 0.45910542E+03</pdfrwt>
<totfact> 0.47314987E+04</totfact>
</mgrwt>
</event>
<event>
 7    0  0.4705418E-002  0.4536300E+03  0.7546771E-02  0.1026645E+00
         21   -1    0    0  502  501  0.00000000000E+00  0.00000000000E+00  0.37861735102E+03  0.37861735102E+03  0.00000000000E+00 0.  1.
         21   -1    0    0  501  502 -0.00000000000E+00 -0.00000000000E+00 -0.13587608249E+03  0.13587608249E+03  0.00000000000E+00 0.  1.
      99926    2    1    2    0    0  0.00000000000E+00  0.35527136788E-14  0.24274126853E+03  0.51449343352E+03  0.45362999205E+03 0.  0.
      99925    2    3    3    0    0  0.70793244900E+02  0.14973544615E+02  0.56553112089E+02  0.27880417144E+03  0.26324441297E+03 0.  0.
         25    1    4    4    0    0  0.65973662754E+02  0.32276381017E+02  0.15272057788E+02  0.14585963389E+03  0.12509000000E+03 0.  0.
         25    1    3    3    0    0 -0.70793244900E+02 -0.14973544615E+02  0.18618815644E+03  0.23568926208E+03  0.12509000000E+03 0.  0.
         25    1    4    4    0    0  0.48195821461E+01 -0.17302836401E+02  0.41281054301E+02  0.13294453755E+03  0.12509000000E+03 0.  0.
<mgrwt>
<rscale>  2 0.45362999E+03</rscale>
<asrwt>0</asrwt>
<pdfrwt beam="1">  1       21 0.55679022E-01 0.45362999E+03</pdfrwt>
<pdfrwt beam="2">  1       21 0.19981777E-01 0.45362999E+03</pdfrwt>
<totfact> 0.64967382E+04</totfact>
</mgrwt>
</event>
<event>
 7    0  0.4705418E-002  0.4673681E+03  0.7546771E-02  0.1022666E+00
         21   -1    0    0  502  501  0.00000000000E+00  0.00000000000E+00  0.11855063386E+04  0.11855063386E+04  0.00000000000E+00 0.  1.
         21   -1    0    0  501  502 -0.00000000000E+00 -0.00000000000E+00 -0.46063208362E+02  0.46063208362E+02  0.00000000000E+00 0.  1.
      99926    2    1    2    0    0  0.26645352591E-14 -0.14210854715E-13  0.11394431302E+04  0.12315695469E+04  0.46736805833E+03 0.  0.
      99925    2    3    3    0    0 -0.79295956707E+01 -0.12231385795E+03  0.65385577828E+03  0.71536596037E+03  0.26305421518E+03 0.  0.
         25    1    4    4    0    0  0.27942776399E+02 -0.84896862814E+02  0.31695463712E+03  0.35227265884E+03  0.12509000000E+03 0.  0.
         25    1    3    3    0    0  0.79295956707E+01  0.12231385795E+03  0.48558735192E+03  0.51620358656E+03  0.12509000000E+03 0.  0.
         25    1    4    4    0    0 -0.35872372070E+02 -0.37416995132E+02  0.33690114116E+03  0.36309330153E+03  0.12509000000E+03 0.  0.
<mgrwt>
<rscale>  2 0.46736806E+03</rscale>
<asrwt>0</asrwt>
<pdfrwt beam="1">  1       21 0.17433915E+00 0.46736806E+03</pdfrwt>
<pdfrwt beam="2">  1       21 0.67740020E-02 0.46736806E+03</pdfrwt>
<totfact> 0.28339696E+04</totfact>
</mgrwt>
</event>
<event>
 7    0  0.4705418E-002  0.4536894E+03  0.7546771E-02  0.1026628E+00
         21   -1    0    0  502  501  0.00000000000E+00  0.00000000000E+00  0.10560694713E+03  0.10560694713E+03  0.00000000000E+00 0.  1.
         21   -1    0    0  501  502 -0.00000000000E+00 -0.00000000000E+00 -0.48726449774E+03  0.48726449774E+03  0.00000000000E+00 0.  1.
      99926    2    1    2    0    0  0.00000000000E+00  0.17763568394E-14 -0.38165755060E+03  0.59287144487E+03  0.45368939178E+03 0.  0.
      99925    2    3    3    0    0 -0.22963275997E+02 -0.12565461659E+02 -0.38243332654E+03  0.46506959512E+03  0.26334250737E+03 0.  0.
         25    1    3    3    0    0  0.22963275997E+02  0.12565461659E+02  0.77577593223E+00  0.12780184975E+03  0.12509000000E+03 0.  0.
         25    1    4    4    0    0 -0.45874745845E+02  0.16573905665E+01 -0.23229195336E+03  0.26779525565E+03  0.12509000000E+03 0.  0.
         25    1    4    4    0    0  0.22911469848E+02 -0.14222852225E+02 -0.15014137317E+03  0.19727433947E+03  0.12509000000E+03 0.  0.
<mgrwt>
<rscale>  2 0.45368939E+03</rscale>
<asrwt>0</asrwt>
<pdfrwt beam="1">  1       21 0.15530433E-01 0.45368939E+03</pdfrwt>
<pdfrwt beam="2">  1       21 0.71656544E-01 0.45368939E+03</pdfrwt>
<totfact> 0.59735518E+04</totfact>
</mgrwt>
</event>
<event>
 7    0  0.4705418E-002  0.4621612E+03  0.7546771E-02  0.1024156E+00
         21   -1    0    0  502  501  0.00000000000E+00  0.00000000000E+00  0.64552990809E+03  0.64552990809E+03  0.00000000000E+00 0. -1.
         21   -1    0    0  501  502 -0.00000000000E+00 -0.00000000000E+00 -0.82720019428E+02  0.82720019428E+02  0.00000000000E+00 0. -1.
      99926    2    1    2    0    0  0.00000000000E+00 -0.35527136788E-14  0.56280988866E+03  0.72824992751E+03  0.46216121230E+03 0.  0.
      99925    2    3    3    0    0 -0.10524617297E+03  0.25990758810E+02  0.43148288020E+03  0.51695258319E+03  0.26326834388E+03 0.  0.
         25    1    4    4    0    0 -0.43996056760E+02  0.40401231507E+02  0.26779171257E+03  0.30154240487E+03  0.12509000000E+03 0.  0.
         25    1    4    4    0    0 -0.61250116214E+02 -0.14410472696E+02  0.16369116763E+03  0.21541017831E+03  0.12509000000E+03 0.  0.
         25    1    3    3    0    0  0.10524617297E+03 -0.25990758810E+02  0.13132700846E+03  0.21129734433E+03  0.12509000000E+03 0.  0.
<mgrwt>
<rscale>  2 0.46216121E+03</rscale>
<asrwt>0</asrwt>
<pdfrwt beam="1">  1       21 0.94930866E-01 0.46216121E+03</pdfrwt>
<pdfrwt beam="2">  1       21 0.12164709E-01 0.46216121E+03</pdfrwt>
<totfact> 0.48600545E+04</totfact>
</mgrwt>
</event>
<event>
 7    0  0.4705418E-002  0.4629586E+03  0.7546771E-02  0.1023927E+00
         21   -1    0    0  502  501  0.00000000000E+00  0.00000000000E+00  0.19561715533E+03  0.19561715533E+03  0.00000000000E+00 0. -1.
         21   -1    0    0  501  502 -0.00000000000E+00 -0.00000000000E+00 -0.27391594193E+03  0.27391594193E+03  0.00000000000E+00 0. -1.
      99926    2    1    2    0    0  0.00000000000E+00 -0.71054273576E-14 -0.78298786591E+02  0.46953309726E+03  0.46295856126E+03 0.  0.
      99925    2    3    3    0    0 -0.15689113822E+02 -0.59991312871E+02 -0.15372774046E+03  0.31084427883E+03  0.26295787035E+03 0.  0.
         25    1    4    4    0    0  0.11792534038E+02 -0.59562126098E+02 -0.56686765200E+02  0.15015861005E+03  0.12509000000E+03 0.  0.
         25    1    3    3    0    0  0.15689113822E+02  0.59991312871E+02  0.75428953872E+02  0.15868881843E+03  0.12509000000E+03 0.  0.
         25    1    4    4    0    0 -0.27481647860E+02 -0.42918677254E+00 -0.97040975263E+02  0.16068566878E+03  0.12509000000E+03 0.  0.
<mgrwt>
<rscale>  2 0.46295856E+03</rscale>
<asrwt>0</asrwt>
<pdfrwt beam="1">  1       21 0.28767229E-01 0.46295856E+03</pdfrwt>
<pdfrwt beam="2">  1       21 0.40281756E-01 0.46295856E+03</pdfrwt>
<totfact> 0.63369915E+04</totfact>
</mgrwt>
</event>
<event>
 7    0  0.4705418E-002  0.4575015E+03  0.7546771E-02  0.1025508E+00
         21   -1    0    0  502  501  0.00000000000E+00  0.00000000000E+00  0.45106305034E+02  0.45106305034E+02  0.00000000000E+00 0.  1.
         21   -1    0    0  501  502 -0.00000000000E+00 -0.00000000000E+00 -0.11600798238E+04  0.11600798238E+04  0.00000000000E+00 0.  1.
      99926    2    1    2    0    0 -0.88817841970E-15  0.00000000000E+00 -0.11149735187E+04  0.12051861288E+04  0.45750153833E+03 0.  0.
      99925    2    3    3    0    0  0.40050177590E+01 -0.91109202496E+02 -0.51306304760E+03  0.58368741577E+03  0.26294558669E+03 0.  0.
         25    1    4    4    0    0  0.24953426669E+02 -0.80874737149E+02 -0.27387540901E+03  0.31275972307E+03  0.12509000000E+03 0.  0.
         25    1    4    4    0    0 -0.20948408910E+02 -0.10234465347E+02 -0.23918763859E+03  0.27092769270E+03  0.12509000000E+03 0.  0.
         25    1    3    3    0    0 -0.40050177590E+01  0.91109202496E+02 -0.60191047114E+03  0.62149871304E+03  0.12509000000E+03 0.  0.
<mgrwt>
<rscale>  2 0.45750154E+03</rscale>
<asrwt>0</asrwt>
<pdfrwt beam="1">  1       21 0.66332800E-02 0.45750154E+03</pdfrwt>
<pdfrwt beam="2">  1       21 0.17059998E+00 0.45750154E+03</pdfrwt>
<totfact> 0.31376143E+04</totfact>
</mgrwt>
</event>
<event>
 7    0  0.4705418E-002  0.4546517E+03  0.7546771E-02  0.1026344E+00
         21   -1    0    0  502  501  0.00000000000E+00  0.00000000000E+00  0.16442097686E+03  0.16442097686E+03  0.00000000000E+00 0. -1.
         21   -1    0    0  501  502 -0.00000000000E+00 -0.00000000000E+00 -0.31429711621E+03  0.31429711621E+03  0.00000000000E+00 0. -1.
      99926    2    1    2    0    0  0.00000000000E+00 -0.14210854715E-13 -0.14987613936E+03  0.47871809307E+03  0.45465168589E+03 0.  0.
      99925    2    3    3    0    0 -0.79440542958E+02  0.74715153696E+02 -0.12386382706E+03  0.31073802715E+03  0.26329208079E+03 0.  0.
         25    1    4    4    0    0 -0.11704033795E+02  0.24583961964E+02 -0.89050707416E+02  0.15594515762E+03  0.12509000000E+03 0.  0.
         25    1    4    4    0    0 -0.67736509163E+02  0.50131191731E+02 -0.34813119640E+02  0.15479286953E+03  0.12509000000E+03 0.  0.
         25    1    3    3    0    0  0.79440542958E+02 -0.74715153696E+02 -0.26012312299E+02  0.16798006593E+03  0.12509000000E+03 0.  0.
<mgrwt>
<rscale>  2 0.45465169E+03</rscale>
<asrwt>0</asrwt>
<pdfrwt beam="1">  1       21 0.24179556E-01 0.45465169E+03</pdfrwt>
<pdfrwt beam="2">  1       21 0.46220164E-01 0.45465169E+03</pdfrwt>
<totfact> 0.66978506E+04</totfact>
</mgrwt>
</event>
<event>
 7    0  0.4705418E-002  0.4701144E+03  0.7546771E-02  0.1021888E+00
         21   -1    0    0  502  501  0.00000000000E+00  0.00000000000E+00  0.82123174262E+02  0.82123174262E+02  0.00000000000E+00 0.  1.
         21   -1    0    0  501  502 -0.00000000000E+00 -0.00000000000E+00 -0.67279281273E+03  0.67279281273E+03  0.00000000000E+00 0.  1.
      99926    2    1    2    0    0  0.00000000000E+00  0.71054273576E-14 -0.59066963846E+03  0.75491598699E+03  0.47011437503E+03 0.  0.
      99925    2    3    3    0    0 -0.89372668157E+02  0.54889714535E+02 -0.48134708462E+03  0.55844898352E+03  0.26300170482E+03 0.  0.
         25    1    4    4    0    0 -0.11072840865E+02 -0.25493900608E+00 -0.20999467664E+03  0.24467926989E+03  0.12509000000E+03 0.  0.
         25    1    3    3    0    0  0.89372668157E+02 -0.54889714535E+02 -0.10932255384E+03  0.19646700347E+03  0.12509000000E+03 0.  0.
         25    1    4    4    0    0 -0.78299827292E+02  0.55144653541E+02 -0.27135240798E+03  0.31376971362E+03  0.12509000000E+03 0.  0.
<mgrwt>
<rscale>  2 0.47011438E+03</rscale>
<asrwt>0</asrwt>
<pdfrwt beam="1">  1       21 0.12076938E-01 0.47011438E+03</pdfrwt>
<pdfrwt beam="2">  1       21 0.98940118E-01 0.47011438E+03</pdfrwt>
<totfact> 0.44495335E+04</totfact>
</mgrwt>
</event>
<event>
 7    0  0.4705418E-002  0.4765445E+03  0.7546771E-02  0.1020089E+00
         21   -1    0    0  502  501  0.00000000000E+00  0.00000000000E+00  0.58395986433E+03  0.58395986433E+03  0.00000000000E+00 0. -1.
         21   -1    0    0  501  502 -0.00000000000E+00 -0.00000000000E+00 -0.97221870627E+02  0.97221870627E+02  0.00000000000E+00 0. -1.
      99926    2    1    2    0    0  0.14210854715E-13  0.14210854715E-13  0.48673799371E+03  0.68118173496E+03  0.47654452208E+03 0.  0.
      99925    2    3    3    0    0 -0.10102667014E+03 -0.71811452990E+02  0.23444388903E+03  0.37350805033E+03  0.26302291477E+03 0.  0.
         25    1    3    3    0    0  0.10102667014E+03  0.71811452990E+02  0.25229410467E+03  0.30767368463E+03  0.12509000000E+03 0.  0.
         25    1    4    4    0    0 -0.80848031320E+02 -0.13215942219E+02  0.14098173069E+03  0.20551015008E+03  0.12509000000E+03 0.  0.
         25    1    4    4    0    0 -0.20178638824E+02 -0.58595510771E+02  0.93462158349E+02  0.16799790026E+03  0.12509000000E+03 0.  0.
<mgrwt>
<rscale>  2 0.47654452E+03</rscale>
<asrwt>0</asrwt>
<pdfrwt beam="1">  1       21 0.85876449E-01 0.47654452E+03</pdfrwt>
<pdfrwt beam="2">  1       21 0.14297334E-01 0.47654452E+03</pdfrwt>
<totfact> 0.45673394E+04</totfact>
</mgrwt>
</event>
<event>
 7    0  0.4705418E-002  0.4528762E+03  0.7546771E-02  0.1026868E+00
         21   -1    0    0  502  501  0.00000000000E+00  0.00000000000E+00  0.18415224054E+04  0.18415224054E+04  0.00000000000E+00 0.  1.
         21   -1    0    0  501  502 -0.00000000000E+00 -0.00000000000E+00 -0.27843377079E+02  0.27843377079E+02  0.00000000000E+00 0.  1.
      99926    2    1    2    0    0 -0.14210854715E-13  0.00000000000E+00  0.18136790283E+04  0.18693657824E+04  0.45287615407E+03 0.  0.
      99925    2    3    3    0    0 -0.82377769758E+02  0.49166270575E+02  0.91197797335E+03  0.95398841780E+03  0.26303356882E+03 0.  0.
         25    1    4    4    0    0 -0.53353286264E+02 -0.10117149211E+02  0.38844905548E+03  0.41169054722E+03  0.12509000000E+03 0.  0.
         25    1    4    4    0    0 -0.29024483494E+02  0.59283419786E+02  0.52352891786E+03  0.54229787059E+03  0.12509000000E+03 0.  0.
         25    1    3    3    0    0  0.82377769758E+02 -0.49166270575E+02  0.90170105494E+03  0.91537736464E+03  0.12509000000E+03 0.  0.
<mgrwt>
<rscale>  2 0.45287615E+03</rscale>
<asrwt>0</asrwt>
<pdfrwt beam="1">  1       21 0.27081204E+00 0.45287615E+03</pdfrwt>
<pdfrwt beam="2">  1       21 0.40946155E-02 0.45287615E+03</pdfrwt>
<totfact> 0.16228011E+04</totfact>
</mgrwt>
</event>
<event>
 7    0  0.4705418E-002  0.4509673E+03  0.7546771E-02  0.1027434E+00
         21   -1    0    0  502  501  0.00000000000E+00  0.00000000000E+00  0.38706957992E+03  0.38706957992E+03  0.00000000000E+00 0. -1.
         21   -1    0    0  501  502 -0.00000000000E+00 -0.00000000000E+00 -0.13135331468E+03  0.13135331468E+03  0.00000000000E+00 0. -1.
      99926    2    1    2    0    0  0.00000000000E+00 -0.14210854715E-13  0.25571626524E+03  0.51842289460E+03  0.45096728190E+03 0.  0.
      99925    2    3    3    0    0 -0.63350586539E+02  0.80169444044E+02  0.11726231142E+03  0.30568492902E+03  0.26315848757E+03 0.  0.
         25    1    3    3    0    0  0.63350586539E+02 -0.80169444044E+02  0.13845395381E+03  0.21273796558E+03  0.12509000000E+03 0.  0.
         25    1    4    4    0    0 -0.63156781143E+02  0.45049430763E+02  0.33061918794E+02  0.15086029561E+03  0.12509000000E+03 0.  0.
         25    1    4    4    0    0 -0.19380539628E+00  0.35120013280E+02  0.84200392629E+02  0.15482463342E+03  0.12509000000E+03 0.  0.
<mgrwt>
<rscale>  2 0.45096728E+03</rscale>
<asrwt>0</asrwt>
<pdfrwt beam="1">  1       21 0.56921997E-01 0.45096728E+03</pdfrwt>
<pdfrwt beam="2">  1       21 0.19316664E-01 0.45096728E+03</pdfrwt>
<totfact> 0.66083937E+04</totfact>
</mgrwt>
</event>
<event>
 7    0  0.4705418E-002  0.4446147E+03  0.7546771E-02  0.1029340E+00
         21   -1    0    0  502  501  0.00000000000E+00  0.00000000000E+00  0.40928247904E+03  0.40928247904E+03  0.00000000000E+00 0. -1.
         21   -1    0    0  501  502 -0.00000000000E+00 -0.00000000000E+00 -0.12074925050E+03  0.12074925050E+03  0.00000000000E+00 0. -1.
      99926    2    1    2    0    0  0.00000000000E+00  0.14210854715E-13  0.28853322854E+03  0.53003172955E+03  0.44461467627E+03 0.  0.
      99925    2    3    3    0    0  0.76020008294E+02 -0.67151512402E+02  0.16324529350E+03  0.32599020915E+03  0.26331012767E+03 0.  0.
         25    1    4    4    0    0  0.17552080209E+02 -0.65189566666E+02  0.63745794217E+02  0.15578443280E+03  0.12509000000E+03 0.  0.
         25    1    4    4    0    0  0.58467928085E+02 -0.19619457362E+01  0.99499499281E+02  0.17020577635E+03  0.12509000000E+03 0.  0.
         25    1    3    3    0    0 -0.76020008294E+02  0.67151512402E+02  0.12528793504E+03  0.20404152040E+03  0.12509000000E+03 0.  0.
<mgrwt>
<rscale>  2 0.44461468E+03</rscale>
<asrwt>0</asrwt>
<pdfrwt beam="1">  1       21 0.60188599E-01 0.44461468E+03</pdfrwt>
<pdfrwt beam="2">  1       21 0.17757243E-01 0.44461468E+03</pdfrwt>
<totfact> 0.68679933E+04</totfact>
</mgrwt>
</event>
<event>
 7    0  0.4705418E-002  0.4526297E+03  0.7546771E-02  0.1026941E+00
         21   -1    0    0  502  501  0.00000000000E+00  0.00000000000E+00  0.21758532607E+02  0.21758532607E+02  0.00000000000E+00 0. -1.
         21   -1    0    0  501  502 -0.00000000000E+00 -0.00000000000E+00 -0.23539459109E+04  0.23539459109E+04  0.00000000000E+00 0. -1.
      99926    2    1    2    0    0  0.00000000000E+00  0.00000000000E+00 -0.23321873783E+04  0.23757044435E+04  0.45262968908E+03 0.  0.
      99925    2    3    3    0    0  0.47254189201E+02 -0.10010285405E+03 -0.15171374157E+04  0.15437143658E+04  0.26285845101E+03 0.  0.
         25    1    4    4    0    0  0.73352733812E+01 -0.75129717433E+02 -0.94112447967E+03  0.95239754043E+03  0.12509000000E+03 0.  0.
         25    1    4    4    0    0  0.39918915820E+02 -0.24973136613E+02 -0.57601293600E+03  0.59131682534E+03  0.12509000000E+03 0.  0.
         25    1    3    3    0    0 -0.47254189201E+02  0.10010285405E+03 -0.81504996264E+03  0.83199007776E+03  0.12509000000E+03 0.  0.
<mgrwt>
<rscale>  2 0.45262969E+03</rscale>
<asrwt>0</asrwt>
<pdfrwt beam="1">  1       21 0.31997825E-02 0.45262969E+03</pdfrwt>
<pdfrwt beam="2">  1       21 0.34616871E+00 0.45262969E+03</pdfrwt>
<totfact> 0.86467090E+03</totfact>
</mgrwt>
</event>
<event>
 7    0  0.4705418E-002  0.4618273E+03  0.7546771E-02  0.1024253E+00
         21   -1    0    0  502  501  0.00000000000E+00  0.00000000000E+00  0.71880901560E+03  0.71880901560E+03  0.00000000000E+00 0.  1.
         21   -1    0    0  501  502 -0.00000000000E+00 -0.00000000000E+00 -0.74179816473E+02  0.74179816473E+02  0.00000000000E+00 0.  1.
      99926    2    1    2    0    0  0.00000000000E+00  0.14210854715E-13  0.64462919913E+03  0.79298883207E+03  0.46182733075E+03 0.  0.
      99925    2    3    3    0    0 -0.39615329186E+02  0.10183087645E+03  0.32029328653E+03  0.42859866480E+03  0.26300213757E+03 0.  0.
         25    1    3    3    0    0  0.39615329186E+02 -0.10183087645E+03  0.32433591260E+03  0.36439016727E+03  0.12509000000E+03 0.  0.
         25    1    4    4    0    0 -0.16574926943E+02  0.81971188050E+01  0.15382076399E+03  0.19912372157E+03  0.12509000000E+03 0.  0.
         25    1    4    4    0    0 -0.23040402243E+02  0.93633757647E+02  0.16647252255E+03  0.22947494323E+03  0.12509000000E+03 0.  0.
<mgrwt>
<rscale>  2 0.46182733E+03</rscale>
<asrwt>0</asrwt>
<pdfrwt beam="1">  1       21 0.10570720E+00 0.46182733E+03</pdfrwt>
<pdfrwt beam="2">  1       21 0.10908797E-01 0.46182733E+03</pdfrwt>
<totfact> 0.45612259E+04</totfact>
</mgrwt>
</event>
<event>
 7    0  0.4705418E-002  0.4532516E+03  0.7546771E-02  0.1026757E+00
         21   -1    0    0  502  501  0.00000000000E+00  0.00000000000E+00  0.16195026525E+03  0.16195026525E+03  0.00000000000E+00 0. -1.
         21   -1    0    0  501  502 -0.00000000000E+00 -0.00000000000E+00 -0.31712979016E+03  0.31712979016E+03  0.00000000000E+00 0. -1.
      99926    2    1    2    0    0  0.00000000000E+00  0.00000000000E+00 -0.15517952491E+03  0.47908005541E+03  0.45325160181E+03 0.  0.
      99925    2    3    3    0    0  0.64748604112E+02 -0.81478593452E+02 -0.55542281165E+02  0.28827588521E+03  0.26303402455E+03 0.  0.
         25    1    4    4    0    0  0.45445448354E+02 -0.36248400718E+01 -0.39156020292E+02  0.13877726855E+03  0.12509000000E+03 0.  0.
         25    1    4    4    0    0  0.19303155758E+02 -0.77853753381E+02 -0.16386260873E+02  0.14949861666E+03  0.12509000000E+03 0.  0.
         25    1    3    3    0    0 -0.64748604112E+02  0.81478593452E+02 -0.99637243746E+02  0.19080417020E+03  0.12509000000E+03 0.  0.
<mgrwt>
<rscale>  2 0.45325160E+03</rscale>
<asrwt>0</asrwt>
<pdfrwt beam="1">  1       21 0.23816216E-01 0.45325160E+03</pdfrwt>
<pdfrwt beam="2">  1       21 0.46636733E-01 0.45325160E+03</pdfrwt>
<totfact> 0.67701811E+04</totfact>
</mgrwt>
</event>
<event>
 7    0  0.4705418E-002  0.4514685E+03  0.7546771E-02  0.1027285E+00
         21   -1    0    0  502  501  0.00000000000E+00  0.00000000000E+00  0.84767493888E+02  0.84767493888E+02  0.00000000000E+00 0. -1.
         21   -1    0    0  501  502 -0.00000000000E+00 -0.00000000000E+00 -0.60112598793E+03  0.60112598793E+03  0.00000000000E+00 0. -1.
      99926    2    1    2    0    0  0.14210854715E-13  0.00000000000E+00 -0.51635849404E+03  0.68589348182E+03  0.45146846405E+03 0.  0.
      99925    2    3    3    0    0 -0.66574779335E+02  0.23924677961E+02 -0.19834293064E+03  0.33691497514E+03  0.26299656058E+03 0.  0.
         25    1    3    3    0    0  0.66574779335E+02 -0.23924677961E+02 -0.31801556340E+03  0.34897850668E+03  0.12509000000E+03 0.  0.
         25    1    4    4    0    0 -0.24838935768E+02 -0.13266377074E+02 -0.57828371114E+02  0.14065773387E+03  0.12509000000E+03 0.  0.
         25    1    4    4    0    0 -0.41735843567E+02  0.37191055035E+02 -0.14051455953E+03  0.19625724127E+03  0.12509000000E+03 0.  0.
<mgrwt>
<rscale>  2 0.45146846E+03</rscale>
<asrwt>0</asrwt>
<pdfrwt beam="1">  1       21 0.12465808E-01 0.45146846E+03</pdfrwt>
<pdfrwt beam="2">  1       21 0.88400880E-01 0.45146846E+03</pdfrwt>
<totfact> 0.55194402E+04</totfact>
</mgrwt>
</event>
<event>
 6    0  0.7077947E-002  0.4186593E+03  0.7546771E-02  0.1037504E+00
         21   -1    0    0  502  501  0.00000000000E+00  0.00000000000E+00  0.16804614037E+03  0.16804614037E+03  0.00000000000E+00 0. -1.
         21   -1    0    0  501  502 -0.00000000000E+00 -0.00000000000E+00 -0.26075522539E+03  0.26075522539E+03  0.00000000000E+00 0. -1.
      99926    2    1    2    0    0 -0.35527136788E-14  0.00000000000E+00 -0.92709085024E+02  0.42880136575E+03  0.41865933266E+03 0.  0.
         25    1    3    3    0    0 -0.35668574099E+02  0.19610070740E+02 -0.19545131359E+01  0.13156036741E+03  0.12509000000E+03 0.  0.
         25    1    3    3    0    0  0.23464566547E+02  0.44219354129E+02 -0.78043988632E+02  0.15570584261E+03  0.12509000000E+03 0.  0.
         25    1    3    3    0    0  0.12204007551E+02 -0.63829424869E+02 -0.12710583256E+02  0.14153515572E+03  0.12509000000E+03 0.  0.
<mgrwt>
<rscale>  2 0.41865933E+03</rscale>
<asrwt>0</asrwt>
<pdfrwt beam="1">  1       21 0.24712668E-01 0.41865933E+03</pdfrwt>
<pdfrwt beam="2">  1       21 0.38346356E-01 0.41865933E+03</pdfrwt>
<totfact> 0.95257154E+04</totfact>
</mgrwt>
</event>
<event>
 7    0  0.4705418E-002  0.4595900E+03  0.7546771E-02  0.1024900E+00
         21   -1    0    0  502  501  0.00000000000E+00  0.00000000000E+00  0.14420216671E+04  0.14420216671E+04  0.00000000000E+00 0.  1.
         21   -1    0    0  501  502 -0.00000000000E+00 -0.00000000000E+00 -0.36619241188E+02  0.36619241188E+02  0.00000000000E+00 0.  1.
      99926    2    1    2    0    0  0.00000000000E+00  0.00000000000E+00  0.14054024259E+04  0.14786409082E+04  0.45958998781E+03 0.  0.
      99925    2    3    3    0    0 -0.65385552086E+02 -0.75587439299E+02  0.10786726954E+04  0.11147885257E+04  0.26311583354E+03 0.  0.
         25    1    3    3    0    0  0.65385552086E+02  0.75587439299E+02  0.32672973048E+03  0.36385238254E+03  0.12509000000E+03 0.  0.
         25    1    4    4    0    0 -0.29348567774E+02 -0.58189772050E+02  0.41704341439E+03  0.44025004894E+03  0.12509000000E+03 0.  0.
         25    1    4    4    0    0 -0.36036984312E+02 -0.17397667248E+02  0.66162928100E+03  0.67453847676E+03  0.12509000000E+03 0.  0.
<mgrwt>
<rscale>  2 0.45958999E+03</rscale>
<asrwt>0</asrwt>
<pdfrwt beam="1">  1       21 0.21206197E+00 0.45958999E+03</pdfrwt>
<pdfrwt beam="2">  1       21 0.53851835E-02 0.45958999E+03</pdfrwt>
<totfact> 0.23459839E+04</totfact>
</mgrwt>
</event>
<event>
 7    0  0.4705418E-002  0.4482144E+03  0.7546771E-02  0.1028256E+00
         21   -1    0    0  502  501  0.00000000000E+00  0.00000000000E+00  0.28148717996E+02  0.28148717996E+02  0.00000000000E+00 0. -1.
         21   -1    0    0  501  502 -0.00000000000E+00 -0.00000000000E+00 -0.17842387550E+04  0.17842387550E+04  0.00000000000E+00 0. -1.
      99926    2    1    2    0    0 -0.14210854715E-13  0.00000000000E+00 -0.17560900370E+04  0.18123874730E+04  0.44821438421E+03 0.  0.
      99925    2    3    3    0    0  0.73810366896E+02 -0.74662063431E+02 -0.11882430514E+04  0.12215236129E+04  0.26301329579E+03 0.  0.
         25    1    4    4    0    0  0.64774243935E+02 -0.49335350614E+02 -0.51327755370E+03  0.53453815087E+03  0.12509000000E+03 0.  0.
         25    1    4    4    0    0  0.90361229611E+01 -0.25326712817E+02 -0.67496549765E+03  0.68698546202E+03  0.12509000000E+03 0.  0.
         25    1    3    3    0    0 -0.73810366896E+02  0.74662063431E+02 -0.56784698568E+03  0.59086386014E+03  0.12509000000E+03 0.  0.
<mgrwt>
<rscale>  2 0.44821438E+03</rscale>
<asrwt>0</asrwt>
<pdfrwt beam="1">  1       21 0.41395167E-02 0.44821438E+03</pdfrwt>
<pdfrwt beam="2">  1       21 0.26238809E+00 0.44821438E+03</pdfrwt>
<totfact> 0.17949509E+04</totfact>
</mgrwt>
</event>
<event>
 7    0  0.4705418E-002  0.4547162E+03  0.7546771E-02  0.1026325E+00
         21   -1    0    0  502  501  0.00000000000E+00  0.00000000000E+00  0.12726966429E+03  0.12726966429E+03  0.00000000000E+00 0. -1.
         21   -1    0    0  501  502 -0.00000000000E+00 -0.00000000000E+00 -0.40615890301E+03  0.40615890301E+03  0.00000000000E+00 0. -1.
      99926    2    1    2    0    0  0.14210854715E-13 -0.35527136788E-14 -0.27888923872E+03  0.53342856731E+03  0.45471620704E+03 0.  0.
      99925    2    3    3    0    0 -0.10540737063E+03  0.31592661977E+02 -0.14558594779E+03  0.32006014052E+03  0.26293424137E+03 0.  0.
         25    1    3    3    0    0  0.10540737063E+03 -0.31592661977E+02 -0.13330329093E+03  0.21336842678E+03  0.12509000000E+03 0.  0.
         25    1    4    4    0    0 -0.88452931080E+02  0.37872319397E+02 -0.92899760528E+02  0.18312866296E+03  0.12509000000E+03 0.  0.
         25    1    4    4    0    0 -0.16954439552E+02 -0.62796574200E+01 -0.52686187264E+02  0.13693147756E+03  0.12509000000E+03 0.  0.
<mgrwt>
<rscale>  2 0.45471621E+03</rscale>
<asrwt>0</asrwt>
<pdfrwt beam="1">  1       21 0.18716127E-01 0.45471621E+03</pdfrwt>
<pdfrwt beam="2">  1       21 0.59729251E-01 0.45471621E+03</pdfrwt>
<totfact> 0.63116683E+04</totfact>
</mgrwt>
</event>
<event>
 7    0  0.4705418E-002  0.4487030E+03  0.7546771E-02  0.1028110E+00
         21   -1    0    0  502  501  0.00000000000E+00  0.00000000000E+00  0.10203602061E+04  0.10203602061E+04  0.00000000000E+00 0. -1.
         21   -1    0    0  501  502 -0.00000000000E+00 -0.00000000000E+00 -0.49329248523E+02  0.49329248523E+02  0.00000000000E+00 0. -1.
      99926    2    1    2    0    0 -0.13322676296E-14  0.00000000000E+00  0.97103095760E+03  0.10696894546E+04  0.44870302959E+03 0.  0.
      99925    2    3    3    0    0  0.33029033243E+01  0.10571850133E+03  0.57087652285E+03  0.63730260188E+03  0.26280656637E+03 0.  0.
         25    1    4    4    0    0 -0.35173708389E+02  0.45601736209E+02  0.24571796483E+03  0.28167629372E+03  0.12509000000E+03 0.  0.
         25    1    4    4    0    0  0.38476611714E+02  0.60116765125E+02  0.32515855803E+03  0.35562630816E+03  0.12509000000E+03 0.  0.
         25    1    3    3    0    0 -0.33029033243E+01 -0.10571850133E+03  0.40015443475E+03  0.43238685277E+03  0.12509000000E+03 0.  0.
<mgrwt>
<rscale>  2 0.44870303E+03</rscale>
<asrwt>0</asrwt>
<pdfrwt beam="1">  1       21 0.15005296E+00 0.44870303E+03</pdfrwt>
<pdfrwt beam="2">  1       21 0.72543019E-02 0.44870303E+03</pdfrwt>
<totfact> 0.38416432E+04</totfact>
</mgrwt>
</event>
<event>
 7    0  0.4705418E-002  0.4592316E+03  0.7546771E-02  0.1025004E+00
         21   -1    0    0  502  501  0.00000000000E+00  0.00000000000E+00  0.27467338963E+04  0.27467338963E+04  0.00000000000E+00 0.  1.
         21   -1    0    0  501  502 -0.00000000000E+00 -0.00000000000E+00 -0.19194949601E+02  0.19194949601E+02  0.00000000000E+00 0.  1.
      99926    2    1    2    0    0  0.00000000000E+00  0.00000000000E+00  0.27275389467E+04  0.27659288459E+04  0.45923161349E+03 0.  0.
      99925    2    3    3    0    0 -0.53441560694E+02  0.10227026358E+03  0.18307194541E+04  0.18531047020E+04  0.26296028190E+03 0.  0.
         25    1    4    4    0    0 -0.63125403019E+02  0.74304664485E+02  0.10226841057E+04  0.10349088307E+04  0.12509000000E+03 0.  0.
         25    1    4    4    0    0  0.96838423247E+01  0.27965599092E+02  0.80803534837E+03  0.81819587132E+03  0.12509000000E+03 0.  0.
         25    1    3    3    0    0  0.53441560694E+02 -0.10227026358E+03  0.89681949260E+03  0.91282414387E+03  0.12509000000E+03 0.  0.
<mgrwt>
<rscale>  2 0.45923161E+03</rscale>
<asrwt>0</asrwt>
<pdfrwt beam="1">  1       21 0.40393118E+00 0.45923161E+03</pdfrwt>
<pdfrwt beam="2">  1       21 0.28227886E-02 0.45923161E+03</pdfrwt>
<totfact> 0.46218748E+03</totfact>
</mgrwt>
</event>
<event>
 7    0  0.4705418E-002  0.4514145E+03  0.7546771E-02  0.1027301E+00
         21   -1    0    0  502  501  0.00000000000E+00  0.00000000000E+00  0.21910705611E+03  0.21910705611E+03  0.00000000000E+00 0. -1.
         21   -1    0    0  501  502 -0.00000000000E+00 -0.00000000000E+00 -0.23250630146E+03  0.23250630146E+03  0.00000000000E+00 0. -1.
      99926    2    1    2    0    0  0.00000000000E+00 -0.17763568394E-14 -0.13399245356E+02  0.45161335757E+03  0.45141453782E+03 0.  0.
      99925    2    3    3    0    0 -0.64022057324E+02 -0.12068628943E+02 -0.96868628030E+02  0.28772583037E+03  0.26297936561E+03 0.  0.
         25    1    4    4    0    0 -0.94590398363E+01 -0.39768035019E+02 -0.50443673131E+02  0.14093630584E+03  0.12509000000E+03 0.  0.
         25    1    4    4    0    0 -0.54563017487E+02  0.27699406076E+02 -0.46424954899E+02  0.14678952453E+03  0.12509000000E+03 0.  0.
         25    1    3    3    0    0  0.64022057324E+02  0.12068628943E+02  0.83469382674E+02  0.16388752720E+03  0.12509000000E+03 0.  0.
<mgrwt>
<rscale>  2 0.45141454E+03</rscale>
<asrwt>0</asrwt>
<pdfrwt beam="1">  1       21 0.32221626E-01 0.45141454E+03</pdfrwt>
<pdfrwt beam="2">  1       21 0.34192103E-01 0.45141454E+03</pdfrwt>
<totfact> 0.70798457E+04</totfact>
</mgrwt>
</event>
<event>
 7    0  0.4705418E-002  0.4620739E+03  0.7546771E-02  0.1024181E+00
         21   -1    0    0  502  501  0.00000000000E+00  0.00000000000E+00  0.34963948719E+03  0.34963948719E+03  0.00000000000E+00 0. -1.
         21   -1    0    0  501  502 -0.00000000000E+00 -0.00000000000E+00 -0.15266600717E+03  0.15266600717E+03  0.00000000000E+00 0. -1.
      99926    2    1    2    0    0  0.00000000000E+00  0.88817841970E-15  0.19697348003E+03  0.50230549436E+03  0.46207386620E+03 0.  0.
      99925    2    3    3    0    0 -0.35225739254E+02  0.37276436651E+01 -0.70172763781E+00  0.26570933239E+03  0.26333668348E+03 0.  0.
         25    1    3    3    0    0  0.35225739254E+02 -0.37276436651E+01  0.19767520766E+03  0.23659616197E+03  0.12509000000E+03 0.  0.
         25    1    4    4    0    0 -0.23016605571E+02  0.20579826162E+02 -0.36554587783E+02  0.13392923267E+03  0.12509000000E+03 0.  0.
         25    1    4    4    0    0 -0.12209133683E+02 -0.16852182497E+02  0.35852860145E+02  0.13178009971E+03  0.12509000000E+03 0.  0.
<mgrwt>
<rscale>  2 0.46207387E+03</rscale>
<asrwt>0</asrwt>
<pdfrwt beam="1">  1       21 0.51417572E-01 0.46207387E+03</pdfrwt>
<pdfrwt beam="2">  1       21 0.22450883E-01 0.46207387E+03</pdfrwt>
<totfact> 0.61577829E+04</totfact>
</mgrwt>
</event>
<event>
 7    0  0.4705418E-002  0.4402297E+03  0.7546771E-02  0.1030676E+00
         21   -1    0    0  502  501  0.00000000000E+00  0.00000000000E+00  0.71092142496E+02  0.71092142496E+02  0.00000000000E+00 0.  1.
         21   -1    0    0  501  502 -0.00000000000E+00 -0.00000000000E+00 -0.68151773362E+03  0.68151773362E+03  0.00000000000E+00 0.  1.
      99926    2    1    2    0    0  0.00000000000E+00  0.00000000000E+00 -0.61042559113E+03  0.75260987612E+03  0.44022973926E+03 0.  0.
      99925    2    3    3    0    0  0.83005486822E+02 -0.45501468107E+02 -0.43746485056E+03  0.51910779836E+03  0.26293937779E+03 0.  0.
         25    1    3    3    0    0 -0.83005486822E+02  0.45501468107E+02 -0.17296074056E+03  0.23350207776E+03  0.12509000000E+03 0.  0.
         25    1    4    4    0    0  0.47012838747E+02 -0.63646092879E+02 -0.23482023212E+03  0.27757716343E+03  0.12509000000E+03 0.  0.
         25    1    4    4    0    0  0.35992648076E+02  0.18144624772E+02 -0.20264461844E+03  0.24153063492E+03  0.12509000000E+03 0.  0.
<mgrwt>
<rscale>  2 0.44022974E+03</rscale>
<asrwt>0</asrwt>
<pdfrwt beam="1">  1       21 0.10454727E-01 0.44022974E+03</pdfrwt>
<pdfrwt beam="2">  1       21 0.10022320E+00 0.44022974E+03</pdfrwt>
<totfact> 0.56404302E+04</totfact>
</mgrwt>
</event>
<event>
 7    0  0.4705418E-002  0.4519266E+03  0.7546771E-02  0.1027149E+00
         21   -1    0    0  502  501  0.00000000000E+00  0.00000000000E+00  0.83259587726E+03  0.83259587726E+03  0.00000000000E+00 0.  1.
         21   -1    0    0  501  502 -0.00000000000E+00 -0.00000000000E+00 -0.61325563125E+02  0.61325563125E+02  0.00000000000E+00 0.  1.
      99926    2    1    2    0    0  0.00000000000E+00  0.00000000000E+00  0.77127031414E+03  0.89392144039E+03  0.45192659151E+03 0.  0.
      99925    2    3    3    0    0  0.90206772050E+02  0.58752644560E+02  0.53320486643E+03  0.60424610409E+03  0.26309083937E+03 0.  0.
         25    1    4    4    0    0  0.33821079910E+02 -0.17181298186E+00  0.30665071983E+03  0.33290549265E+03  0.12509000000E+03 0.  0.
         25    1    4    4    0    0  0.56385692140E+02  0.58924457542E+02  0.22655414660E+03  0.27134061144E+03  0.12509000000E+03 0.  0.
         25    1    3    3    0    0 -0.90206772050E+02 -0.58752644560E+02  0.23806544771E+03  0.28967533630E+03  0.12509000000E+03 0.  0.
<mgrwt>
<rscale>  2 0.45192659E+03</rscale>
<asrwt>0</asrwt>
<pdfrwt beam="1">  1       21 0.12244056E+00 0.45192659E+03</pdfrwt>
<pdfrwt beam="2">  1       21 0.90184657E-02 0.45192659E+03</pdfrwt>
<totfact> 0.44560258E+04</totfact>
</mgrwt>
</event>
<event>
 7    0  0.4705418E-002  0.4449824E+03  0.7546771E-02  0.1029229E+00
         21   -1    0    0  502  501  0.00000000000E+00  0.00000000000E+00  0.34975589256E+02  0.34975589256E+02  0.00000000000E+00 0.  1.
         21   -1    0    0  501  502 -0.00000000000E+00 -0.00000000000E+00 -0.14153394427E+04  0.14153394427E+04  0.00000000000E+00 0.  1.
      99926    2    1    2    0    0  0.00000000000E+00  0.00000000000E+00 -0.13803638534E+04  0.14503150319E+04  0.44498238619E+03 0.  0.
      99925    2    3    3    0    0 -0.39084071527E+02  0.72286805270E+02 -0.10818599712E+04  0.11163913540E+04  0.26297473492E+03 0.  0.
         25    1    4    4    0    0 -0.41864222494E+02  0.54565582682E+02 -0.45297997152E+03  0.47494039483E+03  0.12509000000E+03 0.  0.
         25    1    4    4    0    0  0.27801509664E+01  0.17721222588E+02 -0.62887999965E+03  0.64145095918E+03  0.12509000000E+03 0.  0.
         25    1    3    3    0    0  0.39084071527E+02 -0.72286805270E+02 -0.29850388224E+03  0.33392367792E+03  0.12509000000E+03 0.  0.
<mgrwt>
<rscale>  2 0.44498239E+03</rscale>
<asrwt>0</asrwt>
<pdfrwt beam="1">  1       21 0.51434686E-02 0.44498239E+03</pdfrwt>
<pdfrwt beam="2">  1       21 0.20813817E+00 0.44498239E+03</pdfrwt>
<totfact> 0.27067751E+04</totfact>
</mgrwt>
</event>
<event>
 7    0  0.4705418E-002  0.4522128E+03  0.7546771E-02  0.1027064E+00
         21   -1    0    0  502  501  0.00000000000E+00  0.00000000000E+00  0.19167781292E+03  0.19167781292E+03  0.00000000000E+00 0. -1.
         21   -1    0    0  501  502 -0.00000000000E+00 -0.00000000000E+00 -0.26671893935E+03  0.26671893935E+03  0.00000000000E+00 0. -1.
      99926    2    1    2    0    0  0.35527136788E-14 -0.35527136788E-14 -0.75041126437E+02  0.45839675227E+03  0.45221279486E+03 0.  0.
      99925    2    3    3    0    0 -0.18010391952E+02  0.23151996609E+02  0.60850348832E+02  0.27138234021E+03  0.26284067505E+03 0.  0.
         25    1    3    3    0    0  0.18010391952E+02 -0.23151996609E+02 -0.13589147527E+03  0.18701441205E+03  0.12509000000E+03 0.  0.
         25    1    4    4    0    0 -0.23684238691E+02 -0.20210478506E+02  0.94636427054E+01  0.12925353085E+03  0.12509000000E+03 0.  0.
         25    1    4    4    0    0  0.56738467398E+01  0.43362475115E+02  0.51386706127E+02  0.14212880936E+03  0.12509000000E+03 0.  0.
<mgrwt>
<rscale>  2 0.45221279E+03</rscale>
<asrwt>0</asrwt>
<pdfrwt beam="1">  1       21 0.28187914E-01 0.45221279E+03</pdfrwt>
<pdfrwt beam="2">  1       21 0.39223373E-01 0.45221279E+03</pdfrwt>
<totfact> 0.69836857E+04</totfact>
</mgrwt>
</event>
<event>
 7    0  0.4705418E-002  0.4527269E+03  0.7546771E-02  0.1026912E+00
         21   -1    0    0  502  501  0.00000000000E+00  0.00000000000E+00  0.26454336158E+03  0.26454336158E+03  0.00000000000E+00 0. -1.
         21   -1    0    0  501  502 -0.00000000000E+00 -0.00000000000E+00 -0.19369383521E+03  0.19369383521E+03  0.00000000000E+00 0. -1.
      99926    2    1    2    0    0  0.17763568394E-14  0.00000000000E+00  0.70849526378E+02  0.45823719679E+03  0.45272692999E+03 0.  0.
      99925    2    3    3    0    0 -0.92274834507E+01 -0.10915530842E+03  0.62879049630E+02  0.29177079055E+03  0.26301405196E+03 0.  0.
         25    1    4    4    0    0 -0.28328680358E+02 -0.55589541691E+02  0.65418835441E+02  0.15433678566E+03  0.12509000000E+03 0.  0.
         25    1    4    4    0    0  0.19101196907E+02 -0.53565766730E+02 -0.25397858115E+01  0.13743400489E+03  0.12509000000E+03 0.  0.
         25    1    3    3    0    0  0.92274834507E+01  0.10915530842E+03  0.79704767481E+01  0.16646640624E+03  0.12509000000E+03 0.  0.
<mgrwt>
<rscale>  2 0.45272693E+03</rscale>
<asrwt>0</asrwt>
<pdfrwt beam="1">  1       21 0.38903436E-01 0.45272693E+03</pdfrwt>
<pdfrwt beam="2">  1       21 0.28484388E-01 0.45272693E+03</pdfrwt>
<totfact> 0.69561609E+04</totfact>
</mgrwt>
</event>
<event>
 7    0  0.4705418E-002  0.4479872E+03  0.7546771E-02  0.1028324E+00
         21   -1    0    0  502  501  0.00000000000E+00  0.00000000000E+00  0.89873289757E+03  0.89873289757E+03  0.00000000000E+00 0. -1.
         21   -1    0    0  501  502 -0.00000000000E+00 -0.00000000000E+00 -0.55826519658E+02  0.55826519658E+02  0.00000000000E+00 0. -1.
      99926    2    1    2    0    0  0.00000000000E+00  0.14210854715E-13  0.84290637791E+03  0.95455941722E+03  0.44798718630E+03 0.  0.
      99925    2    3    3    0    0 -0.49811584751E+02  0.91811676667E+02  0.48867224588E+03  0.56463646798E+03  0.26287487354E+03 0.  0.
         25    1    4    4    0    0 -0.55611566722E+02  0.25669839675E+02  0.20909049005E+03  0.25123281663E+03  0.12509000000E+03 0.  0.
         25    1    3    3    0    0  0.49811584751E+02 -0.91811676667E+02  0.35423413203E+03  0.38992294924E+03  0.12509000000E+03 0.  0.
         25    1    4    4    0    0  0.57999819705E+01  0.66141836992E+02  0.27958175582E+03  0.31340365135E+03  0.12509000000E+03 0.  0.
<mgrwt>
<rscale>  2 0.44798719E+03</rscale>
<asrwt>0</asrwt>
<pdfrwt beam="1">  1       21 0.13216659E+00 0.44798719E+03</pdfrwt>
<pdfrwt beam="2">  1       21 0.82097828E-02 0.44798719E+03</pdfrwt>
<totfact> 0.43281821E+04</totfact>
</mgrwt>
</event>
<event>
 7    0  0.4705418E-002  0.4476176E+03  0.7546771E-02  0.1028435E+00
         21   -1    0    0  502  501  0.00000000000E+00  0.00000000000E+00  0.25332122861E+04  0.25332122861E+04  0.00000000000E+00 0.  1.
         21   -1    0    0  501  502 -0.00000000000E+00 -0.00000000000E+00 -0.19773463874E+02  0.19773463874E+02  0.00000000000E+00 0.  1.
      99926    2    1    2    0    0  0.22204460493E-15  0.00000000000E+00  0.25134388222E+04  0.25529857500E+04  0.44761761192E+03 0.  0.
      99925    2    3    3    0    0  0.10263590970E+01  0.32681053718E+02  0.10165728347E+04  0.10505462679E+04  0.26297913985E+03 0.  0.
         25    1    3    3    0    0 -0.10263590970E+01 -0.32681053718E+02  0.14968659875E+04  0.15024394821E+04  0.12509000000E+03 0.  0.
         25    1    4    4    0    0  0.15215400180E+02  0.34574628378E+02  0.64853165808E+03  0.66156460982E+03  0.12509000000E+03 0.  0.
         25    1    4    4    0    0 -0.14189041083E+02 -0.18935746601E+01  0.36804117663E+03  0.38898165806E+03  0.12509000000E+03 0.  0.
<mgrwt>
<rscale>  2 0.44761761E+03</rscale>
<asrwt>0</asrwt>
<pdfrwt beam="1">  1       21 0.37253100E+00 0.44761761E+03</pdfrwt>
<pdfrwt beam="2">  1       21 0.29078641E-02 0.44761761E+03</pdfrwt>
<totfact> 0.69979334E+03</totfact>
</mgrwt>
</event>
<event>
 7    0  0.4705418E-002  0.4555781E+03  0.7546771E-02  0.1026072E+00
         21   -1    0    0  502  501  0.00000000000E+00  0.00000000000E+00  0.21082849926E+04  0.21082849926E+04  0.00000000000E+00 0.  1.
         21   -1    0    0  501  502 -0.00000000000E+00 -0.00000000000E+00 -0.24611398169E+02  0.24611398169E+02  0.00000000000E+00 0.  1.
      99926    2    1    2    0    0  0.00000000000E+00  0.00000000000E+00  0.20836735944E+04  0.21328963908E+04  0.45557805657E+03 0.  0.
      99925    2    3    3    0    0 -0.17926918441E+02 -0.77195307223E+02  0.92884863896E+03  0.96861606553E+03  0.26301482552E+03 0.  0.
         25    1    3    3    0    0  0.17926918441E+02  0.77195307223E+02  0.11548249555E+04  0.11642803252E+04  0.12509000000E+03 0.  0.
         25    1    4    4    0    0 -0.48954945118E+02 -0.44387837399E+02  0.49863563950E+03  0.51831638585E+03  0.12509000000E+03 0.  0.
         25    1    4    4    0    0  0.31028026677E+02 -0.32807469825E+02  0.43021299945E+03  0.45029967968E+03  0.12509000000E+03 0.  0.
<mgrwt>
<rscale>  2 0.45557806E+03</rscale>
<asrwt>0</asrwt>
<pdfrwt beam="1">  1       21 0.31004179E+00 0.45557806E+03</pdfrwt>
<pdfrwt beam="2">  1       21 0.36193247E-02 0.45557806E+03</pdfrwt>
<totfact> 0.11606699E+04</totfact>
</mgrwt>
</event>
<event>
 7    0  0.4705418E-002  0.4544103E+03  0.7546771E-02  0.1026415E+00
         21   -1    0    0  502  501  0.00000000000E+00  0.00000000000E+00  0.47586947863E+03  0.47586947863E+03  0.00000000000E+00 0. -1.
         21   -1    0    0  501  502 -0.00000000000E+00 -0.00000000000E+00 -0.10847970175E+03  0.10847970175E+03  0.00000000000E+00 0. -1.
      99926    2    1    2    0    0  0.00000000000E+00 -0.11102230246E-15  0.36738977689E+03  0.58434918038E+03  0.45441029527E+03 0.  0.
      99925    2    3    3    0    0 -0.26844138741E+02 -0.54883105800E+00  0.90817379547E+02  0.27961863043E+03  0.26309289815E+03 0.  0.
         25    1    3    3    0    0  0.26844138741E+02  0.54883105800E+00  0.27657239734E+03  0.30473054995E+03  0.12509000000E+03 0.  0.
         25    1    4    4    0    0  0.26561437428E+02 -0.57149118082E+01  0.36921319133E+02  0.13322485535E+03  0.12509000000E+03 0.  0.
         25    1    4    4    0    0 -0.53405576169E+02  0.51660807502E+01  0.53896060414E+02  0.14639377509E+03  0.12509000000E+03 0.  0.
<mgrwt>
<rscale>  2 0.45441030E+03</rscale>
<asrwt>0</asrwt>
<pdfrwt beam="1">  1       21 0.69980805E-01 0.45441030E+03</pdfrwt>
<pdfrwt beam="2">  1       21 0.15952897E-01 0.45441030E+03</pdfrwt>
<totfact> 0.59930984E+04</totfact>
</mgrwt>
</event>
<event>
 7    0  0.4705418E-002  0.4582839E+03  0.7546771E-02  0.1025280E+00
         21   -1    0    0  502  501  0.00000000000E+00  0.00000000000E+00  0.26612158088E+03  0.26612158088E+03  0.00000000000E+00 0.  1.
         21   -1    0    0  501  502 -0.00000000000E+00 -0.00000000000E+00 -0.19730093399E+03  0.19730093399E+03  0.00000000000E+00 0.  1.
      99926    2    1    2    0    0  0.00000000000E+00  0.00000000000E+00  0.68820646897E+02  0.46342251487E+03  0.45828391402E+03 0.  0.
      99925    2    3    3    0    0 -0.10760905181E+03  0.41319711804E+02  0.58141918469E+02  0.29298610457E+03  0.26300826635E+03 0.  0.
         25    1    4    4    0    0 -0.55839239938E+02  0.54313320343E+02  0.53927277093E+02  0.15691914096E+03  0.12509000000E+03 0.  0.
         25    1    3    3    0    0  0.10760905181E+03 -0.41319711804E+02  0.10678728428E+02  0.17043641030E+03  0.12509000000E+03 0.  0.
         25    1    4    4    0    0 -0.51769811875E+02 -0.12993608539E+02  0.42146413762E+01  0.13606696361E+03  0.12509000000E+03 0.  0.
<mgrwt>
<rscale>  2 0.45828391E+03</rscale>
<asrwt>0</asrwt>
<pdfrwt beam="1">  1       21 0.39135527E-01 0.45828391E+03</pdfrwt>
<pdfrwt beam="2">  1       21 0.29014843E-01 0.45828391E+03</pdfrwt>
<totfact> 0.66181633E+04</totfact>
</mgrwt>
</event>
<event>
 7    0  0.4705418E-002  0.4529994E+03  0.7546771E-02  0.1026831E+00
         21   -1    0    0  502  501  0.00000000000E+00  0.00000000000E+00  0.88061124075E+02  0.88061124075E+02  0.00000000000E+00 0.  1.
         21   -1    0    0  501  502 -0.00000000000E+00 -0.00000000000E+00 -0.58257402049E+03  0.58257402049E+03  0.00000000000E+00 0.  1.
      99926    2    1    2    0    0  0.00000000000E+00  0.00000000000E+00 -0.49451289642E+03  0.67063514457E+03  0.45299943974E+03 0.  0.
      99925    2    3    3    0    0 -0.75735931119E+02 -0.19843848108E+02 -0.42882114059E+03  0.50910302871E+03  0.26299926550E+03 0.  0.
         25    1    4    4    0    0 -0.37731260422E+02 -0.23393731304E+02 -0.14488594000E+03  0.19649518667E+03  0.12509000000E+03 0.  0.
         25    1    3    3    0    0  0.75735931119E+02  0.19843848108E+02 -0.65691755827E+02  0.16153211586E+03  0.12509000000E+03 0.  0.
         25    1    4    4    0    0 -0.38004670697E+02  0.35498831960E+01 -0.28393520059E+03  0.31260784203E+03  0.12509000000E+03 0.  0.
<mgrwt>
<rscale>  2 0.45299944E+03</rscale>
<asrwt>0</asrwt>
<pdfrwt beam="1">  1       21 0.12950165E-01 0.45299944E+03</pdfrwt>
<pdfrwt beam="2">  1       21 0.85672649E-01 0.45299944E+03</pdfrwt>
<totfact> 0.55394986E+04</totfact>
</mgrwt>
</event>
<event>
 7    0  0.4705418E-002  0.4448405E+03  0.7546771E-02  0.1029272E+00
         21   -1    0    0  502  501  0.00000000000E+00  0.00000000000E+00  0.20925217311E+03  0.20925217311E+03  0.00000000000E+00 0. -1.
         21   -1    0    0  501  502 -0.00000000000E+00 -0.00000000000E+00 -0.23641700211E+03  0.23641700211E+03  0.00000000000E+00 0. -1.
      99926    2    1    2    0    0  0.00000000000E+00  0.17763568394E-14 -0.27164828996E+02  0.44566917522E+03  0.44484051727E+03 0.  0.
      99925    2    3    3    0    0 -0.46305218547E+02 -0.67288230253E+01 -0.10839855578E+03  0.28934938508E+03  0.26416542057E+03 0.  0.
         25    1    4    4    0    0  0.70495784632E+01  0.13777260464E+02 -0.24973581059E+02  0.12849395828E+03  0.12509000000E+03 0.  0.
         25    1    3    3    0    0  0.46305218547E+02  0.67288230253E+01  0.81233726783E+02  0.15631979015E+03  0.12509000000E+03 0.  0.
         25    1    4    4    0    0 -0.53354797011E+02 -0.20506083489E+02 -0.83424974719E+02  0.16085542680E+03  0.12509000000E+03 0.  0.
<mgrwt>
<rscale>  2 0.44484052E+03</rscale>
<asrwt>0</asrwt>
<pdfrwt beam="1">  1       21 0.30772378E-01 0.44484052E+03</pdfrwt>
<pdfrwt beam="2">  1       21 0.34767206E-01 0.44484052E+03</pdfrwt>
<totfact> 0.75143826E+04</totfact>
</mgrwt>
</event>
<event>
 7    0  0.4705418E-002  0.4564909E+03  0.7546771E-02  0.1025804E+00
         21   -1    0    0  502  501  0.00000000000E+00  0.00000000000E+00  0.38079345044E+03  0.38079345044E+03  0.00000000000E+00 0. -1.
         21   -1    0    0  501  502 -0.00000000000E+00 -0.00000000000E+00 -0.13680904076E+03  0.13680904076E+03  0.00000000000E+00 0. -1.
      99926    2    1    2    0    0  0.00000000000E+00  0.00000000000E+00  0.24398440968E+03  0.51760249120E+03  0.45649090542E+03 0.  0.
      99925    2    3    3    0    0  0.55483666875E+02  0.97459330788E+02  0.12649585712E+03  0.31259559734E+03  0.26294114771E+03 0.  0.
         25    1    4    4    0    0  0.14548190983E+02  0.62420658529E+02  0.25057904339E+02  0.14277042811E+03  0.12509000000E+03 0.  0.
         25    1    4    4    0    0  0.40935475891E+02  0.35038672259E+02  0.10143795279E+03  0.16982516923E+03  0.12509000000E+03 0.  0.
         25    1    3    3    0    0 -0.55483666875E+02 -0.97459330788E+02  0.11748855255E+03  0.20500689386E+03  0.12509000000E+03 0.  0.
<mgrwt>
<rscale>  2 0.45649091E+03</rscale>
<asrwt>0</asrwt>
<pdfrwt beam="1">  1       21 0.55999037E-01 0.45649091E+03</pdfrwt>
<pdfrwt beam="2">  1       21 0.20118977E-01 0.45649091E+03</pdfrwt>
<totfact> 0.63298780E+04</totfact>
</mgrwt>
</event>
<event>
 7    0  0.4705418E-002  0.4078859E+03  0.7546771E-02  0.1041083E+00
         21   -1    0    0  502  501  0.00000000000E+00  0.00000000000E+00  0.83537258404E+02  0.83537258404E+02  0.00000000000E+00 0. -1.
         21   -1    0    0  501  502 -0.00000000000E+00 -0.00000000000E+00 -0.49789437514E+03  0.49789437514E+03  0.00000000000E+00 0. -1.
      99926    2    1    2    0    0  0.35527136788E-14 -0.71054273576E-14 -0.41435711673E+03  0.58143163354E+03  0.40788592069E+03 0.  0.
      99925    2    3    3    0    0 -0.21073809962E+02 -0.50912962313E+02 -0.30377526022E+03  0.40561328897E+03  0.26307127602E+03 0.  0.
         25    1    4    4    0    0 -0.44731767006E+02 -0.10484642470E+02 -0.12734665410E+03  0.18432454291E+03  0.12509000000E+03 0.  0.
         25    1    4    4    0    0  0.23657957044E+02 -0.40428319843E+02 -0.17642860612E+03  0.22128874606E+03  0.12509000000E+03 0.  0.
         25    1    3    3    0    0  0.21073809962E+02  0.50912962313E+02 -0.11058185651E+03  0.17581834457E+03  0.12509000000E+03 0.  0.
<mgrwt>
<rscale>  2 0.40788592E+03</rscale>
<asrwt>0</asrwt>
<pdfrwt beam="1">  1       21 0.12284891E-01 0.40788592E+03</pdfrwt>
<pdfrwt beam="2">  1       21 0.73219760E-01 0.40788592E+03</pdfrwt>
<totfact> 0.88449366E+04</totfact>
</mgrwt>
</event>
<event>
 7    0  0.4705418E-002  0.4522811E+03  0.7546771E-02  0.1027044E+00
         21   -1    0    0  502  501  0.00000000000E+00  0.00000000000E+00  0.13114680212E+04  0.13114680212E+04  0.00000000000E+00 0. -1.
         21   -1    0    0  501  502 -0.00000000000E+00 -0.00000000000E+00 -0.38994126489E+02  0.38994126489E+02  0.00000000000E+00 0. -1.
      99926    2    1    2    0    0  0.00000000000E+00  0.55511151231E-16  0.12724738947E+04  0.13504621477E+04  0.45228110686E+03 0.  0.
      99925    2    3    3    0    0 -0.34812525198E+02  0.27114858868E+00  0.11161702441E+04  0.11472619392E+04  0.26298661165E+03 0.  0.
         25    1    3    3    0    0  0.34812525198E+02 -0.27114858868E+00  0.15630365060E+03  0.20320020847E+03  0.12509000000E+03 0.  0.
         25    1    4    4    0    0  0.19036711059E+02 -0.72577980499E+01  0.46515648091E+03  0.48211319400E+03  0.12509000000E+03 0.  0.
         25    1    4    4    0    0 -0.53849236257E+02  0.75289466386E+01  0.65101376322E+03  0.66514874524E+03  0.12509000000E+03 0.  0.
<mgrwt>
<rscale>  2 0.45228111E+03</rscale>
<asrwt>0</asrwt>
<pdfrwt beam="1">  1       21 0.19286292E+00 0.45228111E+03</pdfrwt>
<pdfrwt beam="2">  1       21 0.57344312E-02 0.45228111E+03</pdfrwt>
<totfact> 0.28275398E+04</totfact>
</mgrwt>
</event>
<event>
 7    0  0.4705418E-002  0.4563231E+03  0.7546771E-02  0.1025853E+00
         21   -1    0    0  502  501  0.00000000000E+00  0.00000000000E+00  0.15551760766E+03  0.15551760766E+03  0.00000000000E+00 0.  1.
         21   -1    0    0  501  502 -0.00000000000E+00 -0.00000000000E+00 -0.33473828012E+03  0.33473828012E+03  0.00000000000E+00 0.  1.
      99926    2    1    2    0    0  0.00000000000E+00  0.00000000000E+00 -0.17922067246E+03  0.49025588779E+03  0.45632311587E+03 0.  0.
      99925    2    3    3    0    0 -0.89238714184E+02 -0.71584609964E+02 -0.10967418342E+03  0.30702890634E+03  0.26296467125E+03 0.  0.
         25    1    4    4    0    0 -0.67188280079E+02 -0.32116643825E+01 -0.45424824584E+02  0.14911573544E+03  0.12509000000E+03 0.  0.
         25    1    3    3    0    0  0.89238714184E+02  0.71584609964E+02 -0.69546489037E+02  0.18322698145E+03  0.12509000000E+03 0.  0.
         25    1    4    4    0    0 -0.22050434105E+02 -0.68372945581E+02 -0.64249358835E+02  0.15791317090E+03  0.12509000000E+03 0.  0.
<mgrwt>
<rscale>  2 0.45632312E+03</rscale>
<asrwt>0</asrwt>
<pdfrwt beam="1">  1       21 0.22870237E-01 0.45632312E+03</pdfrwt>
<pdfrwt beam="2">  1       21 0.49226217E-01 0.45632312E+03</pdfrwt>
<totfact> 0.65272477E+04</totfact>
</mgrwt>
</event>
<event>
 7    0  0.4705418E-002  0.4627083E+03  0.7546771E-02  0.1023999E+00
         21   -1    0    0  502  501  0.00000000000E+00  0.00000000000E+00  0.24260745481E+04  0.24260745481E+04  0.00000000000E+00 0. -1.
         21   -1    0    0  501  502 -0.00000000000E+00 -0.00000000000E+00 -0.22062280872E+02  0.22062280872E+02  0.00000000000E+00 0. -1.
      99926    2    1    2    0    0 -0.88817841970E-15  0.71054273576E-14  0.24040122672E+04  0.24481368290E+04  0.46270828001E+03 0.  0.
      99925    2    3    3    0    0  0.30178147623E+01  0.46553210743E+02  0.91680337441E+03  0.95494758858E+03  0.26309724623E+03 0.  0.
         25    1    4    4    0    0 -0.19600199844E+02 -0.99686817845E+01  0.39496399759E+03  0.41488264599E+03  0.12509000000E+03 0.  0.
         25    1    3    3    0    0 -0.30178147623E+01 -0.46553210743E+02  0.14872088928E+04  0.14931892404E+04  0.12509000000E+03 0.  0.
         25    1    4    4    0    0  0.22618014606E+02  0.56521892528E+02  0.52183937682E+03  0.54006494260E+03  0.12509000000E+03 0.  0.
<mgrwt>
<rscale>  2 0.46270828E+03</rscale>
<asrwt>0</asrwt>
<pdfrwt beam="1">  1       21 0.35677549E+00 0.46270828E+03</pdfrwt>
<pdfrwt beam="2">  1       21 0.32444547E-02 0.46270828E+03</pdfrwt>
<totfact> 0.72339594E+03</totfact>
</mgrwt>
</event>
<event>
 7    0  0.4705418E-002  0.4579262E+03  0.7546771E-02  0.1025384E+00
         21   -1    0    0  502  501  0.00000000000E+00  0.00000000000E+00  0.64021857040E+02  0.64021857040E+02  0.00000000000E+00 0. -1.
         21   -1    0    0  501  502 -0.00000000000E+00 -0.00000000000E+00 -0.81884692733E+03  0.81884692733E+03  0.00000000000E+00 0. -1.
      99926    2    1    2    0    0  0.00000000000E+00  0.00000000000E+00 -0.75482507029E+03  0.88286878437E+03  0.45792619894E+03 0.  0.
      99925    2    3    3    0    0 -0.65817692655E+02 -0.91588696717E+02 -0.43134326766E+03  0.51816555877E+03  0.26404180295E+03 0.  0.
         25    1    4    4    0    0 -0.27403732563E+01 -0.64269926933E+02 -0.17252743507E+03  0.22260134121E+03  0.12509000000E+03 0.  0.
         25    1    4    4    0    0 -0.63077319399E+02 -0.27318769783E+02 -0.25881583258E+03  0.29556421756E+03  0.12509000000E+03 0.  0.
         25    1    3    3    0    0  0.65817692655E+02  0.91588696717E+02 -0.32348180263E+03  0.36470322561E+03  0.12509000000E+03 0.  0.
<mgrwt>
<rscale>  2 0.45792620E+03</rscale>
<asrwt>0</asrwt>
<pdfrwt beam="1">  1       21 0.94149791E-02 0.45792620E+03</pdfrwt>
<pdfrwt beam="2">  1       21 0.12041866E+00 0.45792620E+03</pdfrwt>
<totfact> 0.42989029E+04</totfact>
</mgrwt>
</event>
<event>
 7    0  0.4705418E-002  0.4585316E+03  0.7546771E-02  0.1025208E+00
         21   -1    0    0  502  501  0.00000000000E+00  0.00000000000E+00  0.14521599043E+03  0.14521599043E+03  0.00000000000E+00 0.  1.
         21   -1    0    0  501  502 -0.00000000000E+00 -0.00000000000E+00 -0.36196290859E+03  0.36196290859E+03  0.00000000000E+00 0.  1.
      99926    2    1    2    0    0  0.00000000000E+00 -0.71054273576E-14 -0.21674691815E+03  0.50717889902E+03  0.45853157915E+03 0.  0.
      99925    2    3    3    0    0 -0.87250161316E+02 -0.63795338719E+02 -0.87992924431E+02  0.29763765036E+03  0.26298855539E+03 0.  0.
         25    1    4    4    0    0 -0.59768045892E+02 -0.49455314513E+02 -0.11196859656E+02  0.14761749628E+03  0.12509000000E+03 0.  0.
         25    1    4    4    0    0 -0.27482115424E+02 -0.14340024207E+02 -0.76796064775E+02  0.15002015407E+03  0.12509000000E+03 0.  0.
         25    1    3    3    0    0  0.87250161316E+02  0.63795338719E+02 -0.12875399372E+03  0.20954124866E+03  0.12509000000E+03 0.  0.
<mgrwt>
<rscale>  2 0.45853158E+03</rscale>
<asrwt>0</asrwt>
<pdfrwt beam="1">  1       21 0.21355293E-01 0.45853158E+03</pdfrwt>
<pdfrwt beam="2">  1       21 0.53229840E-01 0.45853158E+03</pdfrwt>
<totfact> 0.62985067E+04</totfact>
</mgrwt>
</event>
<event>
 7    0  0.4705418E-002  0.4532107E+03  0.7546771E-02  0.1026769E+00
         21   -1    0    0  502  501  0.00000000000E+00  0.00000000000E+00  0.47208806535E+03  0.47208806535E+03  0.00000000000E+00 0. -1.
         21   -1    0    0  501  502 -0.00000000000E+00 -0.00000000000E+00 -0.10877205815E+03  0.10877205815E+03  0.00000000000E+00 0. -1.
      99926    2    1    2    0    0  0.00000000000E+00  0.00000000000E+00  0.36331600720E+03  0.58086012351E+03  0.45321072581E+03 0.  0.
      99925    2    3    3    0    0 -0.32699101775E+02  0.10658054344E+03  0.22934220444E+03  0.36632543768E+03  0.26299778717E+03 0.  0.
         25    1    3    3    0    0  0.32699101775E+02 -0.10658054344E+03  0.13397380276E+03  0.21453468582E+03  0.12509000000E+03 0.  0.
         25    1    4    4    0    0 -0.22225862276E+02  0.32925646128E+02  0.63894247538E+02  0.14597284027E+03  0.12509000000E+03 0.  0.
         25    1    4    4    0    0 -0.10473239498E+02  0.73654897309E+02  0.16544795691E+03  0.22035259742E+03  0.12509000000E+03 0.  0.
<mgrwt>
<rscale>  2 0.45321073E+03</rscale>
<asrwt>0</asrwt>
<pdfrwt beam="1">  1       21 0.69424715E-01 0.45321073E+03</pdfrwt>
<pdfrwt beam="2">  1       21 0.15995891E-01 0.45321073E+03</pdfrwt>
<totfact> 0.60726551E+04</totfact>
</mgrwt>
</event>
<event>
 7    0  0.4705418E-002  0.4707985E+03  0.7546771E-02  0.1021695E+00
         21   -1    0    0  502  501  0.00000000000E+00  0.00000000000E+00  0.71176216133E+03  0.71176216133E+03  0.00000000000E+00 0. -1.
         21   -1    0    0  501  502 -0.00000000000E+00 -0.00000000000E+00 -0.77852995911E+02  0.77852995911E+02  0.00000000000E+00 0. -1.
      99926    2    1    2    0    0  0.00000000000E+00  0.00000000000E+00  0.63390916542E+03  0.78961515724E+03  0.47079854136E+03 0.  0.
      99925    2    3    3    0    0 -0.57692475425E+02 -0.11259201391E+03  0.37414453703E+03  0.47476510789E+03  0.26346231184E+03 0.  0.
         25    1    4    4    0    0 -0.51421361207E+02 -0.79359002734E+02  0.25128901489E+03  0.29620210129E+03  0.12509000000E+03 0.  0.
         25    1    4    4    0    0 -0.62711142180E+01 -0.33233011176E+02  0.12285552214E+03  0.17856300660E+03  0.12509000000E+03 0.  0.
         25    1    3    3    0    0  0.57692475425E+02  0.11259201391E+03  0.25976462839E+03  0.31485004936E+03  0.12509000000E+03 0.  0.
<mgrwt>
<rscale>  2 0.47079854E+03</rscale>
<asrwt>0</asrwt>
<pdfrwt beam="1">  1       21 0.10467090E+00 0.47079854E+03</pdfrwt>
<pdfrwt beam="2">  1       21 0.11448970E-01 0.47079854E+03</pdfrwt>
<totfact> 0.42722491E+04</totfact>
</mgrwt>
</event>
<event>
 7    0  0.4705418E-002  0.4417642E+03  0.7546771E-02  0.1030207E+00
         21   -1    0    0  502  501  0.00000000000E+00  0.00000000000E+00  0.37897908976E+03  0.37897908976E+03  0.00000000000E+00 0.  1.
         21   -1    0    0  501  502 -0.00000000000E+00 -0.00000000000E+00 -0.12873770227E+03  0.12873770227E+03  0.00000000000E+00 0.  1.
      99926    2    1    2    0    0  0.35527136788E-14  0.71054273576E-14  0.25024138749E+03  0.50771679203E+03  0.44176417792E+03 0.  0.
      99925    2    3    3    0    0 -0.16192010378E+02 -0.58387190426E+02  0.25140513869E+03  0.36872000206E+03  0.26282817762E+03 0.  0.
         25    1    4    4    0    0 -0.18825088407E+02 -0.64416742821E+02  0.15842135757E+03  0.21271750126E+03  0.12509000000E+03 0.  0.
         25    1    4    4    0    0  0.26330780290E+01  0.60295523948E+01  0.92983781126E+02  0.15600250080E+03  0.12509000000E+03 0.  0.
         25    1    3    3    0    0  0.16192010378E+02  0.58387190426E+02 -0.11637512032E+01  0.13899678997E+03  0.12509000000E+03 0.  0.
<mgrwt>
<rscale>  2 0.44176418E+03</rscale>
<asrwt>0</asrwt>
<pdfrwt beam="1">  1       21 0.55732219E-01 0.44176418E+03</pdfrwt>
<pdfrwt beam="2">  1       21 0.18932015E-01 0.44176418E+03</pdfrwt>
<totfact> 0.72001891E+04</totfact>
</mgrwt>
</event>
<event>
 7    0  0.4705418E-002  0.4519380E+03  0.7546771E-02  0.1027146E+00
         21   -1    0    0  502  501  0.00000000000E+00  0.00000000000E+00  0.18630007754E+03  0.18630007754E+03  0.00000000000E+00 0. -1.
         21   -1    0    0  501  502 -0.00000000000E+00 -0.00000000000E+00 -0.27408469390E+03  0.27408469390E+03  0.00000000000E+00 0. -1.
      99926    2    1    2    0    0 -0.14210854715E-13  0.00000000000E+00 -0.87784616353E+02  0.46038477144E+03  0.45193804764E+03 0.  0.
      99925    2    3    3    0    0  0.68546571024E+02 -0.44462439759E+02 -0.13059199763E+03  0.30496430644E+03  0.26319843733E+03 0.  0.
         25    1    3    3    0    0 -0.68546571024E+02  0.44462439759E+02  0.42807381275E+02  0.15542046500E+03  0.12509000000E+03 0.  0.
         25    1    4    4    0    0  0.45551186944E+00 -0.14095293030E+02 -0.86771057809E+02  0.15289084129E+03  0.12509000000E+03 0.  0.
         25    1    4    4    0    0  0.68091059155E+02 -0.30367146729E+02 -0.43820939819E+02  0.15207346515E+03  0.12509000000E+03 0.  0.
<mgrwt>
<rscale>  2 0.45193805E+03</rscale>
<asrwt>0</asrwt>
<pdfrwt beam="1">  1       21 0.27397070E-01 0.45193805E+03</pdfrwt>
<pdfrwt beam="2">  1       21 0.40306573E-01 0.45193805E+03</pdfrwt>
<totfact> 0.69838647E+04</totfact>
</mgrwt>
</event>
<event>
 7    0  0.4705418E-002  0.4573429E+03  0.7546771E-02  0.1025555E+00
         21   -1    0    0  502  501  0.00000000000E+00  0.00000000000E+00  0.19965347681E+03  0.19965347681E+03  0.00000000000E+00 0. -1.
         21   -1    0    0  501  502 -0.00000000000E+00 -0.00000000000E+00 -0.26190693669E+03  0.26190693669E+03  0.00000000000E+00 0. -1.
      99926    2    1    2    0    0  0.00000000000E+00 -0.88817841970E-15 -0.62253459875E+02  0.46156041350E+03  0.45734289329E+03 0.  0.
      99925    2    3    3    0    0 -0.10535477900E+03 -0.61025985949E+01  0.80490275331E+01  0.28344017601E+03  0.26293853914E+03 0.  0.
         25    1    4    4    0    0 -0.47844398493E+02  0.28471876368E+01 -0.35823244421E+02  0.13866508532E+03  0.12509000000E+03 0.  0.
         25    1    3    3    0    0  0.10535477900E+03  0.61025985949E+01 -0.70302487408E+02  0.17812023749E+03  0.12509000000E+03 0.  0.
         25    1    4    4    0    0 -0.57510380508E+02 -0.89497862317E+01  0.43872271954E+02  0.14477509070E+03  0.12509000000E+03 0.  0.
<mgrwt>
<rscale>  2 0.45734289E+03</rscale>
<asrwt>0</asrwt>
<pdfrwt beam="1">  1       21 0.29360805E-01 0.45734289E+03</pdfrwt>
<pdfrwt beam="2">  1       21 0.38515726E-01 0.45734289E+03</pdfrwt>
<totfact> 0.66809963E+04</totfact>
</mgrwt>
</event>
<event>
 7    0  0.4705418E-002  0.4603580E+03  0.7546771E-02  0.1024677E+00
         21   -1    0    0  502  501  0.00000000000E+00  0.00000000000E+00  0.50794076515E+02  0.50794076515E+02  0.00000000000E+00 0.  1.
         21   -1    0    0  501  502 -0.00000000000E+00 -0.00000000000E+00 -0.10430819231E+04  0.10430819231E+04  0.00000000000E+00 0.  1.
      99926    2    1    2    0    0  0.00000000000E+00  0.14210854715E-13 -0.99228784660E+03  0.10938759996E+04  0.46035804767E+03 0.  0.
      99925    2    3    3    0    0  0.13816250991E+02 -0.84980976719E+02 -0.81370072632E+03  0.85945432225E+03  0.26294525063E+03 0.  0.
         25    1    4    4    0    0  0.18450402736E+01 -0.84072235336E+02 -0.42412324940E+03  0.45011063497E+03  0.12509000000E+03 0.  0.
         25    1    4    4    0    0  0.11971210717E+02 -0.90874138251E+00 -0.38957747692E+03  0.40934368729E+03  0.12509000000E+03 0.  0.
         25    1    3    3    0    0 -0.13816250991E+02  0.84980976719E+02 -0.17858712028E+03  0.23442167738E+03  0.12509000000E+03 0.  0.
<mgrwt>
<rscale>  2 0.46035805E+03</rscale>
<asrwt>0</asrwt>
<pdfrwt beam="1">  1       21 0.74697173E-02 0.46035805E+03</pdfrwt>
<pdfrwt beam="2">  1       21 0.15339440E+00 0.46035805E+03</pdfrwt>
<totfact> 0.34252960E+04</totfact>
</mgrwt>
</event>
<event>
 7    0  0.4705418E-002  0.4841332E+03  0.7546771E-02  0.1018005E+00
         21   -1    0    0  502  501  0.00000000000E+00  0.00000000000E+00  0.57878040353E+03  0.57878040353E+03  0.00000000000E+00 0. -1.
         21   -1    0    0  501  502 -0.00000000000E+00 -0.00000000000E+00 -0.10124088411E+03  0.10124088411E+03  0.00000000000E+00 0. -1.
      99926    2    1    2    0    0  0.00000000000E+00  0.14210854715E-13  0.47753951942E+03  0.68002128764E+03  0.48413320381E+03 0.  0.
      99925    2    3    3    0    0  0.12107015596E+03 -0.67553877225E+02  0.28928154500E+03  0.41486080411E+03  0.26306684609E+03 0.  0.
         25    1    4    4    0    0  0.66511530528E+02  0.65072397248E+01  0.12926659043E+03  0.19189446934E+03  0.12509000000E+03 0.  0.
         25    1    4    4    0    0  0.54558625435E+02 -0.74061116950E+02  0.16001495457E+03  0.22296633476E+03  0.12509000000E+03 0.  0.
         25    1    3    3    0    0 -0.12107015596E+03  0.67553877225E+02  0.18825797442E+03  0.26516048353E+03  0.12509000000E+03 0.  0.
<mgrwt>
<rscale>  2 0.48413320E+03</rscale>
<asrwt>0</asrwt>
<pdfrwt beam="1">  1       21 0.85114764E-01 0.48413320E+03</pdfrwt>
<pdfrwt beam="2">  1       21 0.14888366E-01 0.48413320E+03</pdfrwt>
<totfact> 0.43194432E+04</totfact>
</mgrwt>
</event>
<event>
 7    0  0.4705418E-002  0.4595220E+03  0.7546771E-02  0.1024920E+00
         21   -1    0    0  502  501  0.00000000000E+00  0.00000000000E+00  0.93028194547E+03  0.93028194547E+03  0.00000000000E+00 0.  1.
         21   -1    0    0  501  502 -0.00000000000E+00 -0.00000000000E+00 -0.56746365741E+02  0.56746365741E+02  0.00000000000E+00 0.  1.
      99926    2    1    2    0    0  0.00000000000E+00  0.17763568394E-14  0.87353557973E+03  0.98702831121E+03  0.45952201044E+03 0.  0.
      99925    2    3    3    0    0  0.10983715373E+03 -0.14913477514E+02  0.46475348886E+03  0.54539846840E+03  0.26301534512E+03 0.  0.
         25    1    4    4    0    0  0.32498469354E+02  0.27199336041E+02  0.20159671503E+03  0.24100767209E+03  0.12509000000E+03 0.  0.
         25    1    3    3    0    0 -0.10983715373E+03  0.14913477514E+02  0.40878209087E+03  0.44162984282E+03  0.12509000000E+03 0.  0.
         25    1    4    4    0    0  0.77338684380E+02 -0.42112813555E+02  0.26315677383E+03  0.30439079631E+03  0.12509000000E+03 0.  0.
<mgrwt>
<rscale>  2 0.45952201E+03</rscale>
<asrwt>0</asrwt>
<pdfrwt beam="1">  1       21 0.13680616E+00 0.45952201E+03</pdfrwt>
<pdfrwt beam="2">  1       21 0.83450544E-02 0.45952201E+03</pdfrwt>
<totfact> 0.38304050E+04</totfact>
</mgrwt>
</event>
<event>
 7    0  0.4705418E-002  0.4560017E+03  0.7546771E-02  0.1025947E+00
         21   -1    0    0  502  501  0.00000000000E+00  0.00000000000E+00  0.86691550231E+03  0.86691550231E+03  0.00000000000E+00 0. -1.
         21   -1    0    0  501  502 -0.00000000000E+00 -0.00000000000E+00 -0.59964772767E+02  0.59964772767E+02  0.00000000000E+00 0. -1.
      99926    2    1    2    0    0  0.35527136788E-14  0.22204460493E-15  0.80695072954E+03  0.92688027507E+03  0.45600171536E+03 0.  0.
      99925    2    3    3    0    0  0.27431074366E+02  0.13171591012E+01  0.28229896818E+03  0.38682363216E+03  0.26303158787E+03 0.  0.
         25    1    4    4    0    0  0.24338049486E+02  0.17327666993E+02  0.19432622566E+03  0.23302956631E+03  0.12509000000E+03 0.  0.
         25    1    3    3    0    0 -0.27431074366E+02 -0.13171591012E+01  0.52465176136E+03  0.54005664291E+03  0.12509000000E+03 0.  0.
         25    1    4    4    0    0  0.30930248798E+01 -0.16010507892E+02  0.87972742522E+02  0.15379406586E+03  0.12509000000E+03 0.  0.
<mgrwt>
<rscale>  2 0.45600172E+03</rscale>
<asrwt>0</asrwt>
<pdfrwt beam="1">  1       21 0.12748757E+00 0.45600172E+03</pdfrwt>
<pdfrwt beam="2">  1       21 0.88183494E-02 0.45600172E+03</pdfrwt>
<totfact> 0.41763307E+04</totfact>
</mgrwt>
</event>
<event>
 7    0  0.4705418E-002  0.4720927E+03  0.7546771E-02  0.1021331E+00
         21   -1    0    0  502  501  0.00000000000E+00  0.00000000000E+00  0.19618881955E+03  0.19618881955E+03  0.00000000000E+00 0.  1.
         21   -1    0    0  501  502 -0.00000000000E+00 -0.00000000000E+00 -0.28400124181E+03  0.28400124181E+03  0.00000000000E+00 0.  1.
      99926    2    1    2    0    0  0.35527136788E-14  0.00000000000E+00 -0.87812422257E+02  0.48019006136E+03  0.47209265354E+03 0.  0.
      99925    2    3    3    0    0 -0.22158438225E+02  0.32935690300E+02 -0.17889362326E+03  0.32044323242E+03  0.26287864250E+03 0.  0.
         25    1    3    3    0    0  0.22158438225E+02 -0.32935690300E+02  0.91081201003E+02  0.15974682894E+03  0.12509000000E+03 0.  0.
         25    1    4    4    0    0 -0.44829012844E+02  0.28494186890E+02 -0.11532602013E+03  0.17823904763E+03  0.12509000000E+03 0.  0.
         25    1    4    4    0    0  0.22670574619E+02  0.44415034097E+01 -0.63567603128E+02  0.14220418480E+03  0.12509000000E+03 0.  0.
<mgrwt>
<rscale>  2 0.47209265E+03</rscale>
<asrwt>0</asrwt>
<pdfrwt beam="1">  1       21 0.28851297E-01 0.47209265E+03</pdfrwt>
<pdfrwt beam="2">  1       21 0.41764888E-01 0.47209265E+03</pdfrwt>
<totfact> 0.58355910E+04</totfact>
</mgrwt>
</event>
<event>
 7    0  0.4705418E-002  0.4619850E+03  0.7546771E-02  0.1024207E+00
         21   -1    0    0  502  501  0.00000000000E+00  0.00000000000E+00  0.18795174790E+03  0.18795174790E+03  0.00000000000E+00 0. -1.
         21   -1    0    0  501  502 -0.00000000000E+00 -0.00000000000E+00 -0.28388955958E+03  0.28388955958E+03  0.00000000000E+00 0. -1.
      99926    2    1    2    0    0  0.00000000000E+00 -0.71054273576E-14 -0.95937811673E+02  0.47184130748E+03  0.46198501679E+03 0.  0.
      99925    2    3    3    0    0  0.10415551533E+03  0.55737486434E+02 -0.79511394955E+02  0.29900504383E+03  0.26291997934E+03 0.  0.
         25    1    4    4    0    0  0.28216604685E+02  0.19956402400E+01 -0.61003471437E+02  0.14201792488E+03  0.12509000000E+03 0.  0.
         25    1    4    4    0    0  0.75938910644E+02  0.53741846194E+02 -0.18507923518E+02  0.15698711895E+03  0.12509000000E+03 0.  0.
         25    1    3    3    0    0 -0.10415551533E+03 -0.55737486434E+02 -0.16426416719E+02  0.17283626365E+03  0.12509000000E+03 0.  0.
<mgrwt>
<rscale>  2 0.46198502E+03</rscale>
<asrwt>0</asrwt>
<pdfrwt beam="1">  1       21 0.27639963E-01 0.46198502E+03</pdfrwt>
<pdfrwt beam="2">  1       21 0.41748464E-01 0.46198502E+03</pdfrwt>
<totfact> 0.63694673E+04</totfact>
</mgrwt>
</event>
<event>
 7    0  0.4705418E-002  0.4619816E+03  0.7546771E-02  0.1024208E+00
         21   -1    0    0  502  501  0.00000000000E+00  0.00000000000E+00  0.70180752135E+03  0.70180752135E+03  0.00000000000E+00 0. -1.
         21   -1    0    0  501  502 -0.00000000000E+00 -0.00000000000E+00 -0.76027613588E+02  0.76027613588E+02  0.00000000000E+00 0. -1.
      99926    2    1    2    0    0  0.00000000000E+00  0.00000000000E+00  0.62577990777E+03  0.77783513494E+03  0.46198160590E+03 0.  0.
      99925    2    3    3    0    0 -0.54882563091E+02  0.89824507488E+02  0.48689393447E+03  0.56331856319E+03  0.26302388168E+03 0.  0.
         25    1    3    3    0    0  0.54882563091E+02 -0.89824507488E+02  0.13888597330E+03  0.21451657175E+03  0.12509000000E+03 0.  0.
         25    1    4    4    0    0 -0.66967192747E+02  0.57879065554E+02  0.24880057980E+03  0.29220511245E+03  0.12509000000E+03 0.  0.
         25    1    4    4    0    0  0.12084629656E+02  0.31945441934E+02  0.23809335467E+03  0.27111345074E+03  0.12509000000E+03 0.  0.
<mgrwt>
<rscale>  2 0.46198161E+03</rscale>
<asrwt>0</asrwt>
<pdfrwt beam="1">  1       21 0.10320699E+00 0.46198161E+03</pdfrwt>
<pdfrwt beam="2">  1       21 0.11180532E-01 0.46198161E+03</pdfrwt>
<totfact> 0.46267535E+04</totfact>
</mgrwt>
</event>
<event>
 7    0  0.4705418E-002  0.4603354E+03  0.7546771E-02  0.1024684E+00
         21   -1    0    0  502  501  0.00000000000E+00  0.00000000000E+00  0.79969817438E+03  0.79969817438E+03  0.00000000000E+00 0.  1.
         21   -1    0    0  501  502 -0.00000000000E+00 -0.00000000000E+00 -0.66246453445E+02  0.66246453445E+02  0.00000000000E+00 0.  1.
      99926    2    1    2    0    0  0.00000000000E+00  0.00000000000E+00  0.73345172094E+03  0.86594462783E+03  0.46033539025E+03 0.  0.
      99925    2    3    3    0    0  0.11125940763E+03 -0.39661058929E+02  0.45637135193E+03  0.53979635729E+03  0.26297079896E+03 0.  0.
         25    1    3    3    0    0 -0.11125940763E+03  0.39661058929E+02  0.27708036901E+03  0.32614827053E+03  0.12509000000E+03 0.  0.
         25    1    4    4    0    0  0.22743355544E+02 -0.82302920491E+01  0.25252680999E+03  0.28284677087E+03  0.12509000000E+03 0.  0.
         25    1    4    4    0    0  0.88516052088E+02 -0.31430766880E+02  0.20384454194E+03  0.25694958642E+03  0.12509000000E+03 0.  0.
<mgrwt>
<rscale>  2 0.46033539E+03</rscale>
<asrwt>0</asrwt>
<pdfrwt beam="1">  1       21 0.11760267E+00 0.46033539E+03</pdfrwt>
<pdfrwt beam="2">  1       21 0.97421260E-02 0.46033539E+03</pdfrwt>
<totfact> 0.42910249E+04</totfact>
</mgrwt>
</event>
<event>
 7    0  0.4705418E-002  0.4461521E+03  0.7546771E-02  0.1028876E+00
         21   -1    0    0  502  501  0.00000000000E+00  0.00000000000E+00  0.41361954173E+03  0.41361954173E+03  0.00000000000E+00 0. -1.
         21   -1    0    0  501  502 -0.00000000000E+00 -0.00000000000E+00 -0.12031084281E+03  0.12031084281E+03  0.00000000000E+00 0. -1.
      99926    2    1    2    0    0  0.00000000000E+00  0.00000000000E+00  0.29330869892E+03  0.53393038454E+03  0.44615206228E+03 0.  0.
      99925    2    3    3    0    0  0.67677247466E+02  0.40319469913E+02  0.26840412124E+03  0.38401835845E+03  0.26310351166E+03 0.  0.
         25    1    4    4    0    0  0.44855780261E+02  0.12084546334E+02  0.82012432798E+02  0.15662574666E+03  0.12509000000E+03 0.  0.
         25    1    3    3    0    0 -0.67677247466E+02 -0.40319469913E+02  0.24904577679E+02  0.14991202610E+03  0.12509000000E+03 0.  0.
         25    1    4    4    0    0  0.22821467205E+02  0.28234923579E+02  0.18639168845E+03  0.22739261179E+03  0.12509000000E+03 0.  0.
<mgrwt>
<rscale>  2 0.44615206E+03</rscale>
<asrwt>0</asrwt>
<pdfrwt beam="1">  1       21 0.60826403E-01 0.44615206E+03</pdfrwt>
<pdfrwt beam="2">  1       21 0.17692771E-01 0.44615206E+03</pdfrwt>
<totfact> 0.67548775E+04</totfact>
</mgrwt>
</event>
<event>
 7    0  0.4705418E-002  0.4471802E+03  0.7546771E-02  0.1028566E+00
         21   -1    0    0  502  501  0.00000000000E+00  0.00000000000E+00  0.15500218337E+04  0.15500218337E+04  0.00000000000E+00 0. -1.
         21   -1    0    0  501  502 -0.00000000000E+00 -0.00000000000E+00 -0.32252798373E+02  0.32252798373E+02  0.00000000000E+00 0. -1.
      99926    2    1    2    0    0  0.00000000000E+00  0.00000000000E+00  0.15177690353E+04  0.15822746321E+04  0.44718023961E+03 0.  0.
      99925    2    3    3    0    0 -0.76346153720E+02  0.43147473769E+02  0.75218423019E+03  0.80159669487E+03  0.26284159754E+03 0.  0.
         25    1    4    4    0    0 -0.74813262298E+02  0.51445564657E+01  0.42046278942E+03  0.44503927474E+03  0.12509000000E+03 0.  0.
         25    1    4    4    0    0 -0.15328914226E+01  0.38002917304E+02  0.33172144077E+03  0.35655742013E+03  0.12509000000E+03 0.  0.
         25    1    3    3    0    0  0.76346153720E+02 -0.43147473769E+02  0.76558480513E+03  0.78067793719E+03  0.12509000000E+03 0.  0.
<mgrwt>
<rscale>  2 0.44718024E+03</rscale>
<asrwt>0</asrwt>
<pdfrwt beam="1">  1       21 0.22794434E+00 0.44718024E+03</pdfrwt>
<pdfrwt beam="2">  1       21 0.47430596E-02 0.44718024E+03</pdfrwt>
<totfact> 0.23210632E+04</totfact>
</mgrwt>
</event>
<event>
 7    0  0.4705418E-002  0.4556493E+03  0.7546771E-02  0.1026051E+00
         21   -1    0    0  502  501  0.00000000000E+00  0.00000000000E+00  0.16904109044E+03  0.16904109044E+03  0.00000000000E+00 0.  1.
         21   -1    0    0  501  502 -0.00000000000E+00 -0.00000000000E+00 -0.30704997054E+03  0.30704997054E+03  0.00000000000E+00 0.  1.
      99926    2    1    2    0    0  0.14210854715E-13  0.00000000000E+00 -0.13800888010E+03  0.47609106097E+03  0.45564925914E+03 0.  0.
      99925    2    3    3    0    0 -0.74144802443E+02  0.84739483526E+02 -0.10350418552E+03  0.30428793572E+03  0.26305854787E+03 0.  0.
         25    1    4    4    0    0 -0.62938476491E+02  0.76647112480E+02 -0.68075106372E+02  0.17354469131E+03  0.12509000000E+03 0.  0.
         25    1    4    4    0    0 -0.11206325952E+02  0.80923710464E+01 -0.35429079146E+02  0.13074324441E+03  0.12509000000E+03 0.  0.
         25    1    3    3    0    0  0.74144802443E+02 -0.84739483526E+02 -0.34504694579E+02  0.17180312525E+03  0.12509000000E+03 0.  0.
<mgrwt>
<rscale>  2 0.45564926E+03</rscale>
<asrwt>0</asrwt>
<pdfrwt beam="1">  1       21 0.24858984E-01 0.45564926E+03</pdfrwt>
<pdfrwt beam="2">  1       21 0.45154407E-01 0.45564926E+03</pdfrwt>
<totfact> 0.66641722E+04</totfact>
</mgrwt>
</event>
<event>
 7    0  0.4705418E-002  0.4586898E+03  0.7546771E-02  0.1025162E+00
         21   -1    0    0  502  501  0.00000000000E+00  0.00000000000E+00  0.12172661677E+04  0.12172661677E+04  0.00000000000E+00 0. -1.
         21   -1    0    0  501  502 -0.00000000000E+00 -0.00000000000E+00 -0.43210832823E+02  0.43210832823E+02  0.00000000000E+00 0. -1.
      99926    2    1    2    0    0  0.00000000000E+00  0.00000000000E+00  0.11740553349E+04  0.12604770006E+04  0.45868980750E+03 0.  0.
      99925    2    3    3    0    0 -0.45251321525E+02 -0.10332452513E+03  0.81791802008E+03  0.86651642549E+03  0.26293951487E+03 0.  0.
         25    1    4    4    0    0 -0.57504260111E+02 -0.71046063281E+02  0.48769916037E+03  0.51171502046E+03  0.12509000000E+03 0.  0.
         25    1    4    4    0    0  0.12252938586E+02 -0.32278461848E+02  0.33021885971E+03  0.35480140503E+03  0.12509000000E+03 0.  0.
         25    1    3    3    0    0  0.45251321525E+02  0.10332452513E+03  0.35613731484E+03  0.39396057507E+03  0.12509000000E+03 0.  0.
<mgrwt>
<rscale>  2 0.45868981E+03</rscale>
<asrwt>0</asrwt>
<pdfrwt beam="1">  1       21 0.17900971E+00 0.45868981E+03</pdfrwt>
<pdfrwt beam="2">  1       21 0.63545350E-02 0.45868981E+03</pdfrwt>
<totfact> 0.29430099E+04</totfact>
</mgrwt>
</event>
<event>
 7    0  0.4705418E-002  0.4542518E+03  0.7546771E-02  0.1026462E+00
         21   -1    0    0  502  501  0.00000000000E+00  0.00000000000E+00  0.10856263376E+03  0.10856263376E+03  0.00000000000E+00 0.  1.
         21   -1    0    0  501  502 -0.00000000000E+00 -0.00000000000E+00 -0.47517429117E+03  0.47517429117E+03  0.00000000000E+00 0.  1.
      99926    2    1    2    0    0  0.00000000000E+00  0.00000000000E+00 -0.36661165742E+03  0.58373692493E+03  0.45425179160E+03 0.  0.
      99925    2    3    3    0    0 -0.33294467986E+02 -0.70871758424E+02 -0.33452880800E+03  0.43271326762E+03  0.26305877832E+03 0.  0.
         25    1    3    3    0    0  0.33294467986E+02  0.70871758424E+02 -0.32082849421E+02  0.15102365731E+03  0.12509000000E+03 0.  0.
         25    1    4    4    0    0  0.16969028182E+02 -0.47083893301E+02 -0.19701036051E+03  0.23867432031E+03  0.12509000000E+03 0.  0.
         25    1    4    4    0    0 -0.50263496167E+02 -0.23787865123E+02 -0.13751844748E+03  0.19403894731E+03  0.12509000000E+03 0.  0.
<mgrwt>
<rscale>  2 0.45425179E+03</rscale>
<asrwt>0</asrwt>
<pdfrwt beam="1">  1       21 0.15965093E-01 0.45425179E+03</pdfrwt>
<pdfrwt beam="2">  1       21 0.69878571E-01 0.45425179E+03</pdfrwt>
<totfact> 0.60044984E+04</totfact>
</mgrwt>
</event>
<event>
 7    0  0.4705418E-002  0.4693096E+03  0.7546771E-02  0.1022115E+00
         21   -1    0    0  502  501  0.00000000000E+00  0.00000000000E+00  0.29214122620E+03  0.29214122620E+03  0.00000000000E+00 0.  1.
         21   -1    0    0  501  502 -0.00000000000E+00 -0.00000000000E+00 -0.18848035931E+03  0.18848035931E+03  0.00000000000E+00 0.  1.
      99926    2    1    2    0    0 -0.35527136788E-14  0.00000000000E+00  0.10366086689E+03  0.48062158551E+03  0.46930963460E+03 0.  0.
      99925    2    3    3    0    0  0.21945306619E+02  0.97107061650E+02  0.14368404293E+03  0.31581642592E+03  0.26302762742E+03 0.  0.
         25    1    3    3    0    0 -0.21945306619E+02 -0.97107061650E+02 -0.40023176038E+02  0.16480515958E+03  0.12509000000E+03 0.  0.
         25    1    4    4    0    0 -0.17068400911E+02  0.16765763002E+02  0.70720127932E+02  0.14567520624E+03  0.12509000000E+03 0.  0.
         25    1    4    4    0    0  0.39013707530E+02  0.80341298648E+02  0.72963914994E+02  0.17014121968E+03  0.12509000000E+03 0.  0.
<mgrwt>
<rscale>  2 0.46930963E+03</rscale>
<asrwt>0</asrwt>
<pdfrwt beam="1">  1       21 0.42961945E-01 0.46930963E+03</pdfrwt>
<pdfrwt beam="2">  1       21 0.27717700E-01 0.46930963E+03</pdfrwt>
<totfact> 0.59593687E+04</totfact>
</mgrwt>
</event>
<event>
 7    0  0.4705418E-002  0.4501456E+03  0.7546771E-02  0.1027679E+00
         21   -1    0    0  502  501  0.00000000000E+00  0.00000000000E+00  0.23217443808E+03  0.23217443808E+03  0.00000000000E+00 0.  1.
         21   -1    0    0  501  502 -0.00000000000E+00 -0.00000000000E+00 -0.21818836866E+03  0.21818836866E+03  0.00000000000E+00 0.  1.
      99926    2    1    2    0    0  0.00000000000E+00  0.44408920985E-15  0.13986069416E+02  0.45036280674E+03  0.45014558485E+03 0.  0.
      99925    2    3    3    0    0 -0.72339897149E+02  0.12920421010E+01  0.89775894817E+02  0.28718702476E+03  0.26302461065E+03 0.  0.
         25    1    4    4    0    0 -0.35945399166E+02  0.40733420657E+02  0.51667295655E+02  0.14583655516E+03  0.12509000000E+03 0.  0.
         25    1    4    4    0    0 -0.36394497983E+02 -0.39441378556E+02  0.38108599162E+02  0.14135046960E+03  0.12509000000E+03 0.  0.
         25    1    3    3    0    0  0.72339897149E+02 -0.12920421010E+01 -0.75789825401E+02  0.16317578199E+03  0.12509000000E+03 0.  0.
<mgrwt>
<rscale>  2 0.45014558E+03</rscale>
<asrwt>0</asrwt>
<pdfrwt beam="1">  1       21 0.34143300E-01 0.45014558E+03</pdfrwt>
<pdfrwt beam="2">  1       21 0.32086525E-01 0.45014558E+03</pdfrwt>
<totfact> 0.71621020E+04</totfact>
</mgrwt>
</event>
<event>
 7    0  0.4705418E-002  0.4504017E+03  0.7546771E-02  0.1027602E+00
         21   -1    0    0  502  501  0.00000000000E+00  0.00000000000E+00  0.32355840397E+02  0.32355840397E+02  0.00000000000E+00 0. -1.
         21   -1    0    0  501  502 -0.00000000000E+00 -0.00000000000E+00 -0.15674271423E+04  0.15674271423E+04  0.00000000000E+00 0. -1.
      99926    2    1    2    0    0  0.00000000000E+00  0.14210854715E-13 -0.15350713019E+04  0.15997829827E+04  0.45040169826E+03 0.  0.
      99925    2    3    3    0    0  0.58183265511E+02  0.72138867293E+02 -0.11723090906E+04  0.12050257933E+04  0.26303849521E+03 0.  0.
         25    1    4    4    0    0  0.31566513888E+02  0.75332645977E+02 -0.69451583495E+03  0.71040214347E+03  0.12509000000E+03 0.  0.
         25    1    4    4    0    0  0.26616751623E+02 -0.31937786843E+01 -0.47779325565E+03  0.49462364979E+03  0.12509000000E+03 0.  0.
         25    1    3    3    0    0 -0.58183265511E+02 -0.72138867293E+02 -0.36276221128E+03  0.39475718942E+03  0.12509000000E+03 0.  0.
<mgrwt>
<rscale>  2 0.45040170E+03</rscale>
<asrwt>0</asrwt>
<pdfrwt beam="1">  1       21 0.47582110E-02 0.45040170E+03</pdfrwt>
<pdfrwt beam="2">  1       21 0.23050403E+00 0.45040170E+03</pdfrwt>
<totfact> 0.22217451E+04</totfact>
</mgrwt>
</event>
<event>
 7    0  0.4705418E-002  0.4565380E+03  0.7546771E-02  0.1025790E+00
         21   -1    0    0  502  501  0.00000000000E+00  0.00000000000E+00  0.28900612026E+03  0.28900612026E+03  0.00000000000E+00 0.  1.
         21   -1    0    0  501  502 -0.00000000000E+00 -0.00000000000E+00 -0.18029626862E+03  0.18029626862E+03  0.00000000000E+00 0.  1.
      99926    2    1    2    0    0  0.00000000000E+00  0.00000000000E+00  0.10870985164E+03  0.46930238888E+03  0.45653795063E+03 0.  0.
      99925    2    3    3    0    0 -0.55217418693E+02  0.68580170679E+02 -0.66878998050E+01  0.27768727393E+03  0.26327417451E+03 0.  0.
         25    1    4    4    0    0 -0.59178271577E+02  0.40763949832E+02  0.23013342917E+02  0.14608521309E+03  0.12509000000E+03 0.  0.
         25    1    4    4    0    0  0.39608528836E+01  0.27816220848E+02 -0.29701242722E+02  0.13160206084E+03  0.12509000000E+03 0.  0.
         25    1    3    3    0    0  0.55217418693E+02 -0.68580170679E+02  0.11539775144E+03  0.19161511495E+03  0.12509000000E+03 0.  0.
<mgrwt>
<rscale>  2 0.45653795E+03</rscale>
<asrwt>0</asrwt>
<pdfrwt beam="1">  1       21 0.42500900E-01 0.45653795E+03</pdfrwt>
<pdfrwt beam="2">  1       21 0.26514157E-01 0.45653795E+03</pdfrwt>
<totfact> 0.66670673E+04</totfact>
</mgrwt>
</event>
<event>
 7    0  0.4705418E-002  0.4548412E+03  0.7546771E-02  0.1026288E+00
         21   -1    0    0  502  501  0.00000000000E+00  0.00000000000E+00  0.11127703121E+03  0.11127703121E+03  0.00000000000E+00 0.  1.
         21   -1    0    0  501  502 -0.00000000000E+00 -0.00000000000E+00 -0.46478707304E+03  0.46478707304E+03  0.00000000000E+00 0.  1.
      99926    2    1    2    0    0  0.71054273576E-14  0.00000000000E+00 -0.35351004183E+03  0.57606410425E+03  0.45484118386E+03 0.  0.
      99925    2    3    3    0    0  0.59242999740E+02  0.84831289385E+02 -0.16730625665E+03  0.32903083040E+03  0.26374954627E+03 0.  0.
         25    1    4    4    0    0  0.42830748164E+02  0.83768984020E+02 -0.10350325768E+03  0.18764900246E+03  0.12509000000E+03 0.  0.
         25    1    3    3    0    0 -0.59242999740E+02 -0.84831289385E+02 -0.18620378518E+03  0.24703327386E+03  0.12509000000E+03 0.  0.
         25    1    4    4    0    0  0.16412251576E+02  0.10623053651E+01 -0.63802998970E+02  0.14138182794E+03  0.12509000000E+03 0.  0.
<mgrwt>
<rscale>  2 0.45484118E+03</rscale>
<asrwt>0</asrwt>
<pdfrwt beam="1">  1       21 0.16364270E-01 0.45484118E+03</pdfrwt>
<pdfrwt beam="2">  1       21 0.68351039E-01 0.45484118E+03</pdfrwt>
<totfact> 0.60251938E+04</totfact>
</mgrwt>
</event>
<event>
 7    0  0.4705418E-002  0.4551134E+03  0.7546771E-02  0.1026208E+00
         21   -1    0    0  502  501  0.00000000000E+00  0.00000000000E+00  0.10354052312E+03  0.10354052312E+03  0.00000000000E+00 0.  1.
         21   -1    0    0  501  502 -0.00000000000E+00 -0.00000000000E+00 -0.50011384810E+03  0.50011384810E+03  0.00000000000E+00 0.  1.
      99926    2    1    2    0    0  0.00000000000E+00  0.14210854715E-13 -0.39657332497E+03  0.60365437122E+03  0.45511339007E+03 0.  0.
      99925    2    3    3    0    0 -0.70135920818E+02  0.76569568881E+02 -0.18970930167E+03  0.34055329083E+03  0.26306839127E+03 0.  0.
         25    1    3    3    0    0  0.70135920818E+02 -0.76569568881E+02 -0.20686402330E+03  0.26310108039E+03  0.12509000000E+03 0.  0.
         25    1    4    4    0    0 -0.61484636892E+02  0.72499646073E+02 -0.11261966182E+03  0.19330611884E+03  0.12509000000E+03 0.  0.
         25    1    4    4    0    0 -0.86512839265E+01  0.40699228080E+01 -0.77089639856E+02  0.14724717199E+03  0.12509000000E+03 0.  0.
<mgrwt>
<rscale>  2 0.45511339E+03</rscale>
<asrwt>0</asrwt>
<pdfrwt beam="1">  1       21 0.15226548E-01 0.45511339E+03</pdfrwt>
<pdfrwt beam="2">  1       21 0.73546154E-01 0.45511339E+03</pdfrwt>
<totfact> 0.58401559E+04</totfact>
</mgrwt>
</event>
<event>
 7    0  0.4705418E-002  0.4356857E+03  0.7546771E-02  0.1032079E+00
         21   -1    0    0  502  501  0.00000000000E+00  0.00000000000E+00  0.42246268122E+02  0.42246268122E+02  0.00000000000E+00 0. -1.
         21   -1    0    0  501  502 -0.00000000000E+00 -0.00000000000E+00 -0.11233063521E+04  0.11233063521E+04  0.00000000000E+00 0. -1.
      99926    2    1    2    0    0  0.00000000000E+00  0.00000000000E+00 -0.10810600840E+04  0.11655526202E+04  0.43568567263E+03 0.  0.
      99925    2    3    3    0    0 -0.77805753556E+02  0.45086346997E+02 -0.76511061980E+03  0.81404431877E+03  0.26303493765E+03 0.  0.
         25    1    3    3    0    0  0.77805753556E+02 -0.45086346997E+02 -0.31594946417E+03  0.35150830144E+03  0.12509000000E+03 0.  0.
         25    1    4    4    0    0 -0.57458200605E+02  0.31222738067E+02 -0.50521905969E+03  0.52456659307E+03  0.12509000000E+03 0.  0.
         25    1    4    4    0    0 -0.20347552951E+02  0.13863608930E+02 -0.25989156011E+03  0.28947772571E+03  0.12509000000E+03 0.  0.
<mgrwt>
<rscale>  2 0.43568567E+03</rscale>
<asrwt>0</asrwt>
<pdfrwt beam="1">  1       21 0.62126871E-02 0.43568567E+03</pdfrwt>
<pdfrwt beam="2">  1       21 0.16519209E+00 0.43568567E+03</pdfrwt>
<totfact> 0.38783941E+04</totfact>
</mgrwt>
</event>
<event>
 7    0  0.4705418E-002  0.4421651E+03  0.7546771E-02  0.1030085E+00
         21   -1    0    0  502  501  0.00000000000E+00  0.00000000000E+00  0.27931012513E+03  0.27931012513E+03  0.00000000000E+00 0.  1.
         21   -1    0    0  501  502 -0.00000000000E+00 -0.00000000000E+00 -0.17499360771E+03  0.17499360771E+03  0.00000000000E+00 0.  1.
      99926    2    1    2    0    0  0.00000000000E+00 -0.88817841970E-15  0.10431651742E+03  0.45430373284E+03  0.44216506632E+03 0.  0.
      99925    2    3    3    0    0  0.74397087587E+02 -0.25182881079E+01  0.13703737205E+03  0.30510778503E+03  0.26224082583E+03 0.  0.
         25    1    4    4    0    0  0.59328222770E+01 -0.21429893124E+02  0.81308669511E+02  0.15084113012E+03  0.12509000000E+03 0.  0.
         25    1    4    4    0    0  0.68464265310E+02  0.18911605017E+02  0.55728702542E+02  0.15426665491E+03  0.12509000000E+03 0.  0.
         25    1    3    3    0    0 -0.74397087587E+02  0.25182881079E+01 -0.32720854636E+02  0.14919594782E+03  0.12509000000E+03 0.  0.
<mgrwt>
<rscale>  2 0.44216507E+03</rscale>
<asrwt>0</asrwt>
<pdfrwt beam="1">  1       21 0.41075018E-01 0.44216507E+03</pdfrwt>
<pdfrwt beam="2">  1       21 0.25734354E-01 0.44216507E+03</pdfrwt>
<totfact> 0.76076225E+04</totfact>
</mgrwt>
</event>
<event>
 7    0  0.4705418E-002  0.4546409E+03  0.7546771E-02  0.1026347E+00
         21   -1    0    0  502  501  0.00000000000E+00  0.00000000000E+00  0.20836364856E+04  0.20836364856E+04  0.00000000000E+00 0.  1.
         21   -1    0    0  501  502 -0.00000000000E+00 -0.00000000000E+00 -0.24800192856E+02  0.24800192856E+02  0.00000000000E+00 0.  1.
      99926    2    1    2    0    0  0.00000000000E+00  0.00000000000E+00  0.20588362927E+04  0.21084366784E+04  0.45464089866E+03 0.  0.
      99925    2    3    3    0    0 -0.92059046076E+02 -0.63997100947E+02  0.12371243628E+04  0.12697302335E+04  0.26299749037E+03 0.  0.
         25    1    4    4    0    0 -0.13675470189E+02 -0.56530081503E+02  0.61715657877E+03  0.63238628972E+03  0.12509000000E+03 0.  0.
         25    1    3    3    0    0  0.92059046076E+02  0.63997100947E+02  0.82171192988E+03  0.83870644489E+03  0.12509000000E+03 0.  0.
         25    1    4    4    0    0 -0.78383575887E+02 -0.74670194436E+01  0.61996778406E+03  0.63734394381E+03  0.12509000000E+03 0.  0.
<mgrwt>
<rscale>  2 0.45464090E+03</rscale>
<asrwt>0</asrwt>
<pdfrwt beam="1">  1       21 0.30641701E+00 0.45464090E+03</pdfrwt>
<pdfrwt beam="2">  1       21 0.36470886E-02 0.45464090E+03</pdfrwt>
<totfact> 0.12052505E+04</totfact>
</mgrwt>
</event>
<event>
 7    0  0.4705418E-002  0.4477723E+03  0.7546771E-02  0.1028388E+00
         21   -1    0    0  502  501  0.00000000000E+00  0.00000000000E+00  0.11011100699E+03  0.11011100699E+03  0.00000000000E+00 0.  1.
         21   -1    0    0  501  502 -0.00000000000E+00 -0.00000000000E+00 -0.45522250869E+03  0.45522250869E+03  0.00000000000E+00 0.  1.
      99926    2    1    2    0    0  0.44408920985E-15  0.00000000000E+00 -0.34511150170E+03  0.56533351568E+03  0.44777230302E+03 0.  0.
      99925    2    3    3    0    0 -0.28587915947E+01  0.66030032617E+02 -0.11314456079E+03  0.29362722634E+03  0.26276818398E+03 0.  0.
         25    1    4    4    0    0 -0.88198138132E+01  0.62271888763E+02 -0.29792770082E+02  0.14314571071E+03  0.12509000000E+03 0.  0.
         25    1    4    4    0    0  0.59610222185E+01  0.37581438537E+01 -0.83351790712E+02  0.15048151563E+03  0.12509000000E+03 0.  0.
         25    1    3    3    0    0  0.28587915947E+01 -0.66030032617E+02 -0.23196694090E+03  0.27170628934E+03  0.12509000000E+03 0.  0.
<mgrwt>
<rscale>  2 0.44777230E+03</rscale>
<asrwt>0</asrwt>
<pdfrwt beam="1">  1       21 0.16192795E-01 0.44777230E+03</pdfrwt>
<pdfrwt beam="2">  1       21 0.66944487E-01 0.44777230E+03</pdfrwt>
<totfact> 0.64471493E+04</totfact>
</mgrwt>
</event>
<event>
 7    0  0.4705418E-002  0.4178164E+03  0.7546771E-02  0.1037779E+00
         21   -1    0    0  502  501  0.00000000000E+00  0.00000000000E+00  0.40597798079E+03  0.40597798079E+03  0.00000000000E+00 0.  1.
         21   -1    0    0  501  502 -0.00000000000E+00 -0.00000000000E+00 -0.10749998355E+03  0.10749998355E+03  0.00000000000E+00 0.  1.
      99926    2    1    2    0    0  0.00000000000E+00 -0.17763568394E-14  0.29847799725E+03  0.51347796434E+03  0.41781635323E+03 0.  0.
      99925    2    3    3    0    0 -0.71424380451E+02 -0.15643242683E+02  0.19016934570E+03  0.33257902774E+03  0.26286551026E+03 0.  0.
         25    1    4    4    0    0 -0.73201546647E+02  0.93491818539E+01  0.98587543488E+02  0.17553599478E+03  0.12509000000E+03 0.  0.
         25    1    4    4    0    0  0.17771661954E+01 -0.24992424537E+02  0.91581802210E+02  0.15704303296E+03  0.12509000000E+03 0.  0.
         25    1    3    3    0    0  0.71424380451E+02  0.15643242683E+02  0.10830865155E+03  0.18089893660E+03  0.12509000000E+03 0.  0.
<mgrwt>
<rscale>  2 0.41781635E+03</rscale>
<asrwt>0</asrwt>
<pdfrwt beam="1">  1       21 0.59702644E-01 0.41781635E+03</pdfrwt>
<pdfrwt beam="2">  1       21 0.15808821E-01 0.41781635E+03</pdfrwt>
<totfact> 0.87369531E+04</totfact>
</mgrwt>
</event>
<event>
 7    0  0.4705418E-002  0.4573631E+03  0.7546771E-02  0.1025549E+00
         21   -1    0    0  502  501  0.00000000000E+00  0.00000000000E+00  0.88153892840E+03  0.88153892840E+03  0.00000000000E+00 0. -1.
         21   -1    0    0  501  502 -0.00000000000E+00 -0.00000000000E+00 -0.59322669704E+02  0.59322669704E+02  0.00000000000E+00 0. -1.
      99926    2    1    2    0    0  0.00000000000E+00  0.00000000000E+00  0.82221625869E+03  0.94086159810E+03  0.45736306226E+03 0.  0.
      99925    2    3    3    0    0 -0.84572457094E+02 -0.42583219310E+02  0.38073691003E+03  0.47233480648E+03  0.26300901827E+03 0.  0.
         25    1    4    4    0    0 -0.44703459514E+02  0.73271323399E+00  0.12919795870E+03  0.18530665610E+03  0.12509000000E+03 0.  0.
         25    1    3    3    0    0  0.84572457094E+02  0.42583219310E+02  0.44147934866E+03  0.46852679162E+03  0.12509000000E+03 0.  0.
         25    1    4    4    0    0 -0.39868997579E+02 -0.43315932544E+02  0.25153895133E+03  0.28702815039E+03  0.12509000000E+03 0.  0.
<mgrwt>
<rscale>  2 0.45736306E+03</rscale>
<asrwt>0</asrwt>
<pdfrwt beam="1">  1       21 0.12963807E+00 0.45736306E+03</pdfrwt>
<pdfrwt beam="2">  1       21 0.87239226E-02 0.45736306E+03</pdfrwt>
<totfact> 0.40754674E+04</totfact>
</mgrwt>
</event>
<event>
 7    0  0.4705418E-002  0.4498705E+03  0.7546771E-02  0.1027761E+00
         21   -1    0    0  502  501  0.00000000000E+00  0.00000000000E+00  0.89910743860E+02  0.89910743860E+02  0.00000000000E+00 0. -1.
         21   -1    0    0  501  502 -0.00000000000E+00 -0.00000000000E+00 -0.56273441999E+03  0.56273441999E+03  0.00000000000E+00 0. -1.
      99926    2    1    2    0    0  0.00000000000E+00  0.35527136788E-14 -0.47282367613E+03  0.65264516385E+03  0.44987051602E+03 0.  0.
      99925    2    3    3    0    0  0.72750733022E+02  0.19340291729E+02 -0.18606623819E+03  0.33086254724E+03  0.26302597615E+03 0.  0.
         25    1    4    4    0    0  0.40047458648E+02 -0.28539704207E+02 -0.75741003448E+02  0.15428065778E+03  0.12509000000E+03 0.  0.
         25    1    4    4    0    0  0.32703274374E+02  0.47879995936E+02 -0.11032523474E+03  0.17658188946E+03  0.12509000000E+03 0.  0.
         25    1    3    3    0    0 -0.72750733022E+02 -0.19340291729E+02 -0.28675743794E+03  0.32178261661E+03  0.12509000000E+03 0.  0.
<mgrwt>
<rscale>  2 0.44987052E+03</rscale>
<asrwt>0</asrwt>
<pdfrwt beam="1">  1       21 0.13222168E-01 0.44987052E+03</pdfrwt>
<pdfrwt beam="2">  1       21 0.82755064E-01 0.44987052E+03</pdfrwt>
<totfact> 0.57854929E+04</totfact>
</mgrwt>
</event>
<event>
 7    0  0.4705418E-002  0.4424865E+03  0.7546771E-02  0.1029987E+00
         21   -1    0    0  502  501  0.00000000000E+00  0.00000000000E+00  0.14636661977E+03  0.14636661977E+03  0.00000000000E+00 0. -1.
         21   -1    0    0  501  502 -0.00000000000E+00 -0.00000000000E+00 -0.33442441574E+03  0.33442441574E+03  0.00000000000E+00 0. -1.
      99926    2    1    2    0    0  0.00000000000E+00  0.00000000000E+00 -0.18805779596E+03  0.48079103551E+03  0.44248648025E+03 0.  0.
      99925    2    3    3    0    0 -0.93564489436E+02 -0.29968673376E+02 -0.14501695353E+03  0.31601100855E+03  0.26302206304E+03 0.  0.
         25    1    4    4    0    0 -0.76667585834E+02 -0.31785498854E+02 -0.10638431874E+03  0.18399284776E+03  0.12509000000E+03 0.  0.
         25    1    4    4    0    0 -0.16896903602E+02  0.18168254778E+01 -0.38632634796E+02  0.13201816079E+03  0.12509000000E+03 0.  0.
         25    1    3    3    0    0  0.93564489436E+02  0.29968673376E+02 -0.43040842429E+02  0.16478002696E+03  0.12509000000E+03 0.  0.
<mgrwt>
<rscale>  2 0.44248648E+03</rscale>
<asrwt>0</asrwt>
<pdfrwt beam="1">  1       21 0.21524503E-01 0.44248648E+03</pdfrwt>
<pdfrwt beam="2">  1       21 0.49180061E-01 0.44248648E+03</pdfrwt>
<totfact> 0.73695812E+04</totfact>
</mgrwt>
</event>
<event>
 7    0  0.4705418E-002  0.4451034E+03  0.7546771E-02  0.1029192E+00
         21   -1    0    0  502  501  0.00000000000E+00  0.00000000000E+00  0.21570353205E+04  0.21570353205E+04  0.00000000000E+00 0. -1.
         21   -1    0    0  501  502 -0.00000000000E+00 -0.00000000000E+00 -0.22961723476E+02  0.22961723476E+02  0.00000000000E+00 0. -1.
      99926    2    1    2    0    0 -0.17763568394E-14  0.14210854715E-13  0.21340735970E+04  0.21799970439E+04  0.44510335230E+03 0.  0.
      99925    2    3    3    0    0 -0.15449271112E+02  0.84570900635E+02  0.16388261179E+04  0.16620120144E+04  0.26294861475E+03 0.  0.
         25    1    3    3    0    0  0.15449271112E+02 -0.84570900635E+02  0.49524747907E+03  0.51798502955E+03  0.12509000000E+03 0.  0.
         25    1    4    4    0    0 -0.78567649298E+01  0.52811136521E+02  0.10740930285E+04  0.10826698883E+04  0.12509000000E+03 0.  0.
         25    1    4    4    0    0 -0.75925061826E+01  0.31759764113E+02  0.56473308939E+03  0.57934212614E+03  0.12509000000E+03 0.  0.
<mgrwt>
<rscale>  2 0.44510335E+03</rscale>
<asrwt>0</asrwt>
<pdfrwt beam="1">  1       21 0.31721094E+00 0.44510335E+03</pdfrwt>
<pdfrwt beam="2">  1       21 0.33767255E-02 0.44510335E+03</pdfrwt>
<totfact> 0.11874288E+04</totfact>
</mgrwt>
</event>
<event>
 7    0  0.4705418E-002  0.4539630E+03  0.7546771E-02  0.1026547E+00
         21   -1    0    0  502  501  0.00000000000E+00  0.00000000000E+00  0.10001071760E+03  0.10001071760E+03  0.00000000000E+00 0.  1.
         21   -1    0    0  501  502 -0.00000000000E+00 -0.00000000000E+00 -0.51515071417E+03  0.51515071417E+03  0.00000000000E+00 0.  1.
      99926    2    1    2    0    0  0.88817841970E-15  0.17763568394E-14 -0.41513999657E+03  0.61516143177E+03  0.45396296148E+03 0.  0.
      99925    2    3    3    0    0 -0.61548827624E+01 -0.15954887923E+02 -0.11118144414E+03  0.28602506076E+03  0.26297638835E+03 0.  0.
         25    1    4    4    0    0 -0.85127943393E+01 -0.46326586104E+02 -0.43445210275E+02  0.14054755296E+03  0.12509000000E+03 0.  0.
         25    1    4    4    0    0  0.23579115769E+01  0.30371698181E+02 -0.67736233865E+02  0.14547750780E+03  0.12509000000E+03 0.  0.
         25    1    3    3    0    0  0.61548827624E+01  0.15954887923E+02 -0.30395855243E+03  0.32913637101E+03  0.12509000000E+03 0.  0.
<mgrwt>
<rscale>  2 0.45396296E+03</rscale>
<asrwt>0</asrwt>
<pdfrwt beam="1">  1       21 0.14707458E-01 0.45396296E+03</pdfrwt>
<pdfrwt beam="2">  1       21 0.75757458E-01 0.45396296E+03</pdfrwt>
<totfact> 0.58230067E+04</totfact>
</mgrwt>
</event>
<event>
 7    0  0.4705418E-002  0.4559454E+03  0.7546771E-02  0.1025964E+00
         21   -1    0    0  502  501  0.00000000000E+00  0.00000000000E+00  0.44783134907E+03  0.44783134907E+03  0.00000000000E+00 0. -1.
         21   -1    0    0  501  502 -0.00000000000E+00 -0.00000000000E+00 -0.11605161781E+03  0.11605161781E+03  0.00000000000E+00 0. -1.
      99926    2    1    2    0    0  0.14210854715E-13  0.00000000000E+00  0.33177973126E+03  0.56388296689E+03  0.45594540273E+03 0.  0.
      99925    2    3    3    0    0 -0.85429060008E+02  0.13414525446E+02  0.11645072248E+03  0.30026930277E+03  0.26291217095E+03 0.  0.
         25    1    3    3    0    0  0.85429060008E+02 -0.13414525446E+02  0.21532900877E+03  0.26361366411E+03  0.12509000000E+03 0.  0.
         25    1    4    4    0    0 -0.15379065502E+02 -0.15016105386E+01  0.22021247310E+02  0.12795004464E+03  0.12509000000E+03 0.  0.
         25    1    4    4    0    0 -0.70049994506E+02  0.14916135985E+02  0.94429475174E+02  0.17231925814E+03  0.12509000000E+03 0.  0.
<mgrwt>
<rscale>  2 0.45594540E+03</rscale>
<asrwt>0</asrwt>
<pdfrwt beam="1">  1       21 0.65857550E-01 0.45594540E+03</pdfrwt>
<pdfrwt beam="2">  1       21 0.17066415E-01 0.45594540E+03</pdfrwt>
<totfact> 0.60504649E+04</totfact>
</mgrwt>
</event>
<event>
 7    0  0.4705418E-002  0.4519844E+03  0.7546771E-02  0.1027132E+00
         21   -1    0    0  502  501  0.00000000000E+00  0.00000000000E+00  0.14841861018E+03  0.14841861018E+03  0.00000000000E+00 0. -1.
         21   -1    0    0  501  502 -0.00000000000E+00 -0.00000000000E+00 -0.34411097867E+03  0.34411097867E+03  0.00000000000E+00 0. -1.
      99926    2    1    2    0    0 -0.71054273576E-14  0.00000000000E+00 -0.19569236848E+03  0.49252958885E+03  0.45198439443E+03 0.  0.
      99925    2    3    3    0    0 -0.32963998512E+02  0.10307761872E+03 -0.14701929089E+03  0.32011092031E+03  0.26295381481E+03 0.  0.
         25    1    4    4    0    0  0.22336210520E+01  0.83355215418E+02 -0.56879158737E+02  0.16073527242E+03  0.12509000000E+03 0.  0.
         25    1    4    4    0    0 -0.35197619564E+02  0.19722403305E+02 -0.90140132158E+02  0.15937564789E+03  0.12509000000E+03 0.  0.
         25    1    3    3    0    0  0.32963998512E+02 -0.10307761872E+03 -0.48673077589E+02  0.17241866854E+03  0.12509000000E+03 0.  0.
<mgrwt>
<rscale>  2 0.45198439E+03</rscale>
<asrwt>0</asrwt>
<pdfrwt beam="1">  1       21 0.21826267E-01 0.45198439E+03</pdfrwt>
<pdfrwt beam="2">  1       21 0.50604555E-01 0.45198439E+03</pdfrwt>
<totfact> 0.67397812E+04</totfact>
</mgrwt>
</event>
<event>
 7    0  0.4705418E-002  0.4447802E+03  0.7546771E-02  0.1029290E+00
         21   -1    0    0  502  501  0.00000000000E+00  0.00000000000E+00  0.14466324558E+03  0.14466324558E+03  0.00000000000E+00 0. -1.
         21   -1    0    0  501  502 -0.00000000000E+00 -0.00000000000E+00 -0.34187917554E+03  0.34187917554E+03  0.00000000000E+00 0. -1.
      99926    2    1    2    0    0 -0.71054273576E-14 -0.11102230246E-15 -0.19721592997E+03  0.48654242112E+03  0.44478017550E+03 0.  0.
      99925    2    3    3    0    0 -0.46428250251E+02  0.92708219916E+00 -0.24363076678E+02  0.26818020165E+03  0.26300307821E+03 0.  0.
         25    1    3    3    0    0  0.46428250251E+02 -0.92708219916E+00 -0.17285285329E+03  0.21836221947E+03  0.12509000000E+03 0.  0.
         25    1    4    4    0    0 -0.62535134477E+02 -0.11567199008E+02 -0.12148126278E+02  0.14085286014E+03  0.12509000000E+03 0.  0.
         25    1    4    4    0    0  0.16106884227E+02  0.12494281207E+02 -0.12214950400E+02  0.12732734151E+03  0.12509000000E+03 0.  0.
<mgrwt>
<rscale>  2 0.44478018E+03</rscale>
<asrwt>0</asrwt>
<pdfrwt beam="1">  1       21 0.21274007E-01 0.44478018E+03</pdfrwt>
<pdfrwt beam="2">  1       21 0.50276349E-01 0.44478018E+03</pdfrwt>
<totfact> 0.71884279E+04</totfact>
</mgrwt>
</event>
<event>
 7    0  0.4705418E-002  0.4454566E+03  0.7546771E-02  0.1029086E+00
         21   -1    0    0  502  501  0.00000000000E+00  0.00000000000E+00  0.50720312731E+03  0.50720312731E+03  0.00000000000E+00 0. -1.
         21   -1    0    0  501  502 -0.00000000000E+00 -0.00000000000E+00 -0.97806779307E+02  0.97806779307E+02  0.00000000000E+00 0. -1.
      99926    2    1    2    0    0  0.71054273576E-14  0.00000000000E+00  0.40939634800E+03  0.60500990661E+03  0.44545663913E+03 0.  0.
      99925    2    3    3    0    0 -0.59521118191E+02  0.85008182379E+02  0.25097898318E+03  0.37804575931E+03  0.26298097185E+03 0.  0.
         25    1    4    4    0    0 -0.29400600504E+02  0.84764799354E+02  0.13140554264E+03  0.20239661869E+03  0.12509000000E+03 0.  0.
         25    1    4    4    0    0 -0.30120517687E+02  0.24338302517E+00  0.11957344053E+03  0.17564914063E+03  0.12509000000E+03 0.  0.
         25    1    3    3    0    0  0.59521118191E+02 -0.85008182379E+02  0.15841736482E+03  0.22696414730E+03  0.12509000000E+03 0.  0.
<mgrwt>
<rscale>  2 0.44545664E+03</rscale>
<asrwt>0</asrwt>
<pdfrwt beam="1">  1       21 0.74588694E-01 0.44545664E+03</pdfrwt>
<pdfrwt beam="2">  1       21 0.14383350E-01 0.44545664E+03</pdfrwt>
<totfact> 0.62986893E+04</totfact>
</mgrwt>
</event>
<event>
 7    0  0.4705418E-002  0.4557046E+03  0.7546771E-02  0.1026034E+00
         21   -1    0    0  502  501  0.00000000000E+00  0.00000000000E+00  0.34232006101E+03  0.34232006101E+03  0.00000000000E+00 0. -1.
         21   -1    0    0  501  502 -0.00000000000E+00 -0.00000000000E+00 -0.15166120393E+03  0.15166120393E+03  0.00000000000E+00 0. -1.
      99926    2    1    2    0    0  0.00000000000E+00  0.00000000000E+00  0.19065885709E+03  0.49398126494E+03  0.45570460863E+03 0.  0.
      99925    2    3    3    0    0  0.54841513466E+02  0.89090778292E+02  0.16856704716E+03  0.32942028979E+03  0.26297931394E+03 0.  0.
         25    1    4    4    0    0  0.29150602425E+02  0.40732966309E+02  0.36845441481E+02  0.13969261550E+03  0.12509000000E+03 0.  0.
         25    1    4    4    0    0  0.25690911041E+02  0.48357811983E+02  0.13172160568E+03  0.18972767430E+03  0.12509000000E+03 0.  0.
         25    1    3    3    0    0 -0.54841513466E+02 -0.89090778292E+02  0.22091809924E+02  0.16456097515E+03  0.12509000000E+03 0.  0.
<mgrwt>
<rscale>  2 0.45570461E+03</rscale>
<asrwt>0</asrwt>
<pdfrwt beam="1">  1       21 0.50341185E-01 0.45570461E+03</pdfrwt>
<pdfrwt beam="2">  1       21 0.22303118E-01 0.45570461E+03</pdfrwt>
<totfact> 0.65329399E+04</totfact>
</mgrwt>
</event>
<event>
 7    0  0.4705418E-002  0.4519505E+03  0.7546771E-02  0.1027142E+00
         21   -1    0    0  502  501  0.00000000000E+00  0.00000000000E+00  0.70741013144E+03  0.70741013144E+03  0.00000000000E+00 0.  1.
         21   -1    0    0  501  502 -0.00000000000E+00 -0.00000000000E+00 -0.72185587827E+02  0.72185587827E+02  0.00000000000E+00 0.  1.
      99926    2    1    2    0    0  0.00000000000E+00  0.00000000000E+00  0.63522454361E+03  0.77959571927E+03  0.45195051133E+03 0.  0.
      99925    2    3    3    0    0  0.32424144041E+02 -0.18470662401E+02  0.22199017537E+03  0.34623369777E+03  0.26306965811E+03 0.  0.
         25    1    4    4    0    0  0.24706304642E+01  0.24288930241E+02  0.13227699243E+03  0.18368659988E+03  0.12509000000E+03 0.  0.
         25    1    3    3    0    0 -0.32424144041E+02  0.18470662401E+02  0.41323436824E+03  0.43336202150E+03  0.12509000000E+03 0.  0.
         25    1    4    4    0    0  0.29953513577E+02 -0.42759592642E+02  0.89713182942E+02  0.16254709789E+03  0.12509000000E+03 0.  0.
<mgrwt>
<rscale>  2 0.45195051E+03</rscale>
<asrwt>0</asrwt>
<pdfrwt beam="1">  1       21 0.10403090E+00 0.45195051E+03</pdfrwt>
<pdfrwt beam="2">  1       21 0.10615528E-01 0.45195051E+03</pdfrwt>
<totfact> 0.49952603E+04</totfact>
</mgrwt>
</event>
<event>
 7    0  0.4705418E-002  0.4526625E+03  0.7546771E-02  0.1026931E+00
         21   -1    0    0  502  501  0.00000000000E+00  0.00000000000E+00  0.64444085049E+03  0.64444085049E+03  0.00000000000E+00 0.  1.
         21   -1    0    0  501  502 -0.00000000000E+00 -0.00000000000E+00 -0.79488806655E+02  0.79488806655E+02  0.00000000000E+00 0.  1.
      99926    2    1    2    0    0  0.00000000000E+00  0.00000000000E+00  0.56495204383E+03  0.72392965714E+03  0.45266249752E+03 0.  0.
      99925    2    3    3    0    0 -0.29976963979E+02 -0.73491720395E+02  0.23206108248E+03  0.35956232657E+03  0.26293168191E+03 0.  0.
         25    1    3    3    0    0  0.29976963979E+02  0.73491720395E+02  0.33289096135E+03  0.36436733057E+03  0.12509000000E+03 0.  0.
         25    1    4    4    0    0 -0.44230027017E+02 -0.23651145582E+02  0.83450762508E+02  0.15851564541E+03  0.12509000000E+03 0.  0.
         25    1    4    4    0    0  0.14253063038E+02 -0.49840574813E+02  0.14861031997E+03  0.20104668116E+03  0.12509000000E+03 0.  0.
<mgrwt>
<rscale>  2 0.45266250E+03</rscale>
<asrwt>0</asrwt>
<pdfrwt beam="1">  1       21 0.94770711E-01 0.45266250E+03</pdfrwt>
<pdfrwt beam="2">  1       21 0.11689531E-01 0.45266250E+03</pdfrwt>
<totfact> 0.52582989E+04</totfact>
</mgrwt>
</event>
<event>
 7    0  0.4705418E-002  0.4579892E+03  0.7546771E-02  0.1025366E+00
         21   -1    0    0  502  501  0.00000000000E+00  0.00000000000E+00  0.46501540604E+03  0.46501540604E+03  0.00000000000E+00 0. -1.
         21   -1    0    0  501  502 -0.00000000000E+00 -0.00000000000E+00 -0.11276727938E+03  0.11276727938E+03  0.00000000000E+00 0. -1.
      99926    2    1    2    0    0  0.00000000000E+00 -0.14210854715E-13  0.35224812665E+03  0.57778268542E+03  0.45798917983E+03 0.  0.
      99925    2    3    3    0    0 -0.14326517394E+02 -0.11482398993E+03  0.23298101385E+03  0.36978761322E+03  0.26281729074E+03 0.  0.
         25    1    4    4    0    0 -0.14583899850E+02 -0.84471068950E+02  0.85697840865E+02  0.17418289139E+03  0.12509000000E+03 0.  0.
         25    1    4    4    0    0  0.25738245590E+00 -0.30352920977E+02  0.14728317299E+03  0.19560472183E+03  0.12509000000E+03 0.  0.
         25    1    3    3    0    0  0.14326517394E+02  0.11482398993E+03  0.11926711280E+03  0.20799507220E+03  0.12509000000E+03 0.  0.
<mgrwt>
<rscale>  2 0.45798918E+03</rscale>
<asrwt>0</asrwt>
<pdfrwt beam="1">  1       21 0.68384618E-01 0.45798918E+03</pdfrwt>
<pdfrwt beam="2">  1       21 0.16583424E-01 0.45798918E+03</pdfrwt>
<totfact> 0.58668212E+04</totfact>
</mgrwt>
</event>
<event>
 7    0  0.4705418E-002  0.4078740E+03  0.7546771E-02  0.1041087E+00
         21   -1    0    0  502  501  0.00000000000E+00  0.00000000000E+00  0.12018088143E+03  0.12018088143E+03  0.00000000000E+00 0. -1.
         21   -1    0    0  501  502 -0.00000000000E+00 -0.00000000000E+00 -0.34606414940E+03  0.34606414940E+03  0.00000000000E+00 0. -1.
      99926    2    1    2    0    0  0.00000000000E+00  0.00000000000E+00 -0.22588326797E+03  0.46624503083E+03  0.40787397321E+03 0.  0.
      99925    2    3    3    0    0 -0.43866354890E+02 -0.90606521508E+01 -0.19332277013E+03  0.32944573760E+03  0.26297233326E+03 0.  0.
         25    1    4    4    0    0 -0.16029839411E+02 -0.44416020398E+02 -0.92072274766E+02  0.16234084668E+03  0.12509000000E+03 0.  0.
         25    1    3    3    0    0  0.43866354890E+02  0.90606521508E+01 -0.32560497846E+02  0.13679929323E+03  0.12509000000E+03 0.  0.
         25    1    4    4    0    0 -0.27836515479E+02  0.35355368247E+02 -0.10125049536E+03  0.16710489092E+03  0.12509000000E+03 0.  0.
<mgrwt>
<rscale>  2 0.40787397E+03</rscale>
<asrwt>0</asrwt>
<pdfrwt beam="1">  1       21 0.17673659E-01 0.40787397E+03</pdfrwt>
<pdfrwt beam="2">  1       21 0.50891787E-01 0.40787397E+03</pdfrwt>
<totfact> 0.10029565E+05</totfact>
</mgrwt>
</event>
<event>
 7    0  0.4705418E-002  0.4556291E+03  0.7546771E-02  0.1026057E+00
         21   -1    0    0  502  501  0.00000000000E+00  0.00000000000E+00  0.14272520552E+03  0.14272520552E+03  0.00000000000E+00 0.  1.
         21   -1    0    0  501  502 -0.00000000000E+00 -0.00000000000E+00 -0.36363211378E+03  0.36363211378E+03  0.00000000000E+00 0.  1.
      99926    2    1    2    0    0 -0.13322676296E-14  0.00000000000E+00 -0.22090690826E+03  0.50635731930E+03  0.45562909553E+03 0.  0.
      99925    2    3    3    0    0 -0.21094219225E+01 -0.14358340587E+02 -0.13586788539E+02  0.26378825337E+03  0.26303807745E+03 0.  0.
         25    1    4    4    0    0  0.33148227040E+02 -0.26500867295E+02  0.35333268565E+01  0.13214043069E+03  0.12509000000E+03 0.  0.
         25    1    3    3    0    0  0.21094219225E+01  0.14358340587E+02 -0.20732011972E+03  0.24256906593E+03  0.12509000000E+03 0.  0.
         25    1    4    4    0    0 -0.35257648963E+02  0.12142526707E+02 -0.17120115396E+02  0.13164782268E+03  0.12509000000E+03 0.  0.
<mgrwt>
<rscale>  2 0.45562910E+03</rscale>
<asrwt>0</asrwt>
<pdfrwt beam="1">  1       21 0.20989001E-01 0.45562910E+03</pdfrwt>
<pdfrwt beam="2">  1       21 0.53475310E-01 0.45562910E+03</pdfrwt>
<totfact> 0.64503628E+04</totfact>
</mgrwt>
</event>
<event>
 7    0  0.4705418E-002  0.4541203E+03  0.7546771E-02  0.1026500E+00
         21   -1    0    0  502  501  0.00000000000E+00  0.00000000000E+00  0.10860677890E+04  0.10860677890E+04  0.00000000000E+00 0. -1.
         21   -1    0    0  501  502 -0.00000000000E+00 -0.00000000000E+00 -0.47470623193E+02  0.47470623193E+02  0.00000000000E+00 0. -1.
      99926    2    1    2    0    0 -0.71054273576E-14 -0.14210854715E-13  0.10385971658E+04  0.11335384122E+04  0.45412031346E+03 0.  0.
      99925    2    3    3    0    0  0.40559966968E+02  0.10457050252E+03  0.63767937489E+03  0.69884002930E+03  0.26298726295E+03 0.  0.
         25    1    4    4    0    0  0.35848631112E+01  0.72925419233E+02  0.25445746711E+03  0.29279186923E+03  0.12509000000E+03 0.  0.
         25    1    4    4    0    0  0.36975103856E+02  0.31645083285E+02  0.38322190777E+03  0.40604816007E+03  0.12509000000E+03 0.  0.
         25    1    3    3    0    0 -0.40559966968E+02 -0.10457050252E+03  0.40091779093E+03  0.43469838290E+03  0.12509000000E+03 0.  0.
<mgrwt>
<rscale>  2 0.45412031E+03</rscale>
<asrwt>0</asrwt>
<pdfrwt beam="1">  1       21 0.15971584E+00 0.45412031E+03</pdfrwt>
<pdfrwt beam="2">  1       21 0.69809747E-02 0.45412031E+03</pdfrwt>
<totfact> 0.34573234E+04</totfact>
</mgrwt>
</event>
<event>
 7    0  0.4705418E-002  0.4547104E+03  0.7546771E-02  0.1026327E+00
         21   -1    0    0  502  501  0.00000000000E+00  0.00000000000E+00  0.48899249073E+03  0.48899249073E+03  0.00000000000E+00 0. -1.
         21   -1    0    0  501  502 -0.00000000000E+00 -0.00000000000E+00 -0.10570795847E+03  0.10570795847E+03  0.00000000000E+00 0. -1.
      99926    2    1    2    0    0  0.00000000000E+00  0.00000000000E+00  0.38328453227E+03  0.59470044920E+03  0.45471044809E+03 0.  0.
      99925    2    3    3    0    0 -0.63211375955E+02 -0.93176749399E+02  0.24928337468E+03  0.37956931939E+03  0.26315980440E+03 0.  0.
         25    1    4    4    0    0 -0.10173692555E+02 -0.93471354551E+01  0.96461558115E+02  0.15856611635E+03  0.12509000000E+03 0.  0.
         25    1    3    3    0    0  0.63211375955E+02  0.93176749399E+02  0.13400115759E+03  0.21513112981E+03  0.12509000000E+03 0.  0.
         25    1    4    4    0    0 -0.53037683401E+02 -0.83829613944E+02  0.15282181656E+03  0.22100320304E+03  0.12509000000E+03 0.  0.
<mgrwt>
<rscale>  2 0.45471045E+03</rscale>
<asrwt>0</asrwt>
<pdfrwt beam="1">  1       21 0.71910660E-01 0.45471045E+03</pdfrwt>
<pdfrwt beam="2">  1       21 0.15545288E-01 0.45471045E+03</pdfrwt>
<totfact> 0.59140867E+04</totfact>
</mgrwt>
</event>
<event>
 7    0  0.4705418E-002  0.4522627E+03  0.7546771E-02  0.1027049E+00
         21   -1    0    0  502  501  0.00000000000E+00  0.00000000000E+00  0.82622296007E+02  0.82622296007E+02  0.00000000000E+00 0. -1.
         21   -1    0    0  501  502 -0.00000000000E+00 -0.00000000000E+00 -0.61890539780E+03  0.61890539780E+03  0.00000000000E+00 0. -1.
      99926    2    1    2    0    0  0.00000000000E+00  0.00000000000E+00 -0.53628310180E+03  0.70152769381E+03  0.45226268905E+03 0.  0.
      99925    2    3    3    0    0 -0.67030159625E+02 -0.96788811259E+01 -0.20273858149E+03  0.33891746482E+03  0.26301215276E+03 0.  0.
         25    1    4    4    0    0 -0.13128801424E+01  0.58679378198E+01 -0.12478974447E+03  0.17679407448E+03  0.12509000000E+03 0.  0.
         25    1    4    4    0    0 -0.65717279482E+02 -0.15546818946E+02 -0.77948837020E+02  0.16212339034E+03  0.12509000000E+03 0.  0.
         25    1    3    3    0    0  0.67030159625E+02  0.96788811259E+01 -0.33354452031E+03  0.36261022899E+03  0.12509000000E+03 0.  0.
<mgrwt>
<rscale>  2 0.45226269E+03</rscale>
<asrwt>0</asrwt>
<pdfrwt beam="1">  1       21 0.12150338E-01 0.45226269E+03</pdfrwt>
<pdfrwt beam="2">  1       21 0.91015499E-01 0.45226269E+03</pdfrwt>
<totfact> 0.53973367E+04</totfact>
</mgrwt>
</event>
<event>
 7    0  0.4705418E-002  0.4562986E+03  0.7546771E-02  0.1025860E+00
         21   -1    0    0  502  501  0.00000000000E+00  0.00000000000E+00  0.94104039307E+02  0.94104039307E+02  0.00000000000E+00 0. -1.
         21   -1    0    0  501  502 -0.00000000000E+00 -0.00000000000E+00 -0.55313344796E+03  0.55313344796E+03  0.00000000000E+00 0. -1.
      99926    2    1    2    0    0 -0.14210854715E-13  0.14210854715E-13 -0.45902940865E+03  0.64723748727E+03  0.45629855020E+03 0.  0.
      99925    2    3    3    0    0 -0.72671790437E+02  0.87002203138E+02 -0.30755844956E+03  0.42043022983E+03  0.26328464783E+03 0.  0.
         25    1    4    4    0    0 -0.66998087212E+02  0.75062441831E+02 -0.18245486161E+03  0.24302345255E+03  0.12509000000E+03 0.  0.
         25    1    4    4    0    0 -0.56737032247E+01  0.11939761307E+02 -0.12510358795E+03  0.17740677728E+03  0.12509000000E+03 0.  0.
         25    1    3    3    0    0  0.72671790437E+02 -0.87002203138E+02 -0.15147095910E+03  0.22680725744E+03  0.12509000000E+03 0.  0.
<mgrwt>
<rscale>  2 0.45629855E+03</rscale>
<asrwt>0</asrwt>
<pdfrwt beam="1">  1       21 0.13838829E-01 0.45629855E+03</pdfrwt>
<pdfrwt beam="2">  1       21 0.81343154E-01 0.45629855E+03</pdfrwt>
<totfact> 0.55292253E+04</totfact>
</mgrwt>
</event>
<event>
 7    0  0.4705418E-002  0.4548548E+03  0.7546771E-02  0.1026284E+00
         21   -1    0    0  502  501  0.00000000000E+00  0.00000000000E+00  0.70593594071E+02  0.70593594071E+02  0.00000000000E+00 0. -1.
         21   -1    0    0  501  502 -0.00000000000E+00 -0.00000000000E+00 -0.73269015385E+03  0.73269015385E+03  0.00000000000E+00 0. -1.
      99926    2    1    2    0    0  0.35527136788E-14  0.71054273576E-14 -0.66209655978E+03  0.80328374792E+03  0.45485483970E+03 0.  0.
      99925    2    3    3    0    0  0.23768254105E+02  0.57260628365E+02 -0.58349749399E+03  0.64306817219E+03  0.26310385616E+03 0.  0.
         25    1    4    4    0    0 -0.27836207816E+02  0.20698149607E+02 -0.29645881505E+03  0.32363344232E+03  0.12509000000E+03 0.  0.
         25    1    4    4    0    0  0.51604461921E+02  0.36562478757E+02 -0.28703867894E+03  0.31943472987E+03  0.12509000000E+03 0.  0.
         25    1    3    3    0    0 -0.23768254105E+02 -0.57260628365E+02 -0.78599065786E+02  0.16021557573E+03  0.12509000000E+03 0.  0.
<mgrwt>
<rscale>  2 0.45485484E+03</rscale>
<asrwt>0</asrwt>
<pdfrwt beam="1">  1       21 0.10381411E-01 0.45485484E+03</pdfrwt>
<pdfrwt beam="2">  1       21 0.10774855E+00 0.45485484E+03</pdfrwt>
<totfact> 0.47660657E+04</totfact>
</mgrwt>
</event>
<event>
 7    0  0.4705418E-002  0.4568881E+03  0.7546771E-02  0.1025688E+00
         21   -1    0    0  502  501  0.00000000000E+00  0.00000000000E+00  0.36939754834E+03  0.36939754834E+03  0.00000000000E+00 0.  1.
         21   -1    0    0  501  502 -0.00000000000E+00 -0.00000000000E+00 -0.14127512318E+03  0.14127512318E+03  0.00000000000E+00 0.  1.
      99926    2    1    2    0    0  0.00000000000E+00  0.00000000000E+00  0.22812242516E+03  0.51067267152E+03  0.45688810072E+03 0.  0.
      99925    2    3    3    0    0  0.47498148122E+02 -0.44240953389E+02  0.24933846117E+03  0.36815613102E+03  0.26297515578E+03 0.  0.
         25    1    4    4    0    0  0.61935709223E+02 -0.18159015993E+02  0.14965792846E+03  0.20545263588E+03  0.12509000000E+03 0.  0.
         25    1    4    4    0    0 -0.14437561101E+02 -0.26081937396E+02  0.99680532716E+02  0.16270349514E+03  0.12509000000E+03 0.  0.
         25    1    3    3    0    0 -0.47498148122E+02  0.44240953389E+02 -0.21216036018E+02  0.14251654050E+03  0.12509000000E+03 0.  0.
<mgrwt>
<rscale>  2 0.45688810E+03</rscale>
<asrwt>0</asrwt>
<pdfrwt beam="1">  1       21 0.54323169E-01 0.45688810E+03</pdfrwt>
<pdfrwt beam="2">  1       21 0.20775753E-01 0.45688810E+03</pdfrwt>
<totfact> 0.63569271E+04</totfact>
</mgrwt>
</event>
<event>
 7    0  0.4705418E-002  0.4606187E+03  0.7546771E-02  0.1024602E+00
         21   -1    0    0  502  501  0.00000000000E+00  0.00000000000E+00  0.97072394983E+03  0.97072394983E+03  0.00000000000E+00 0.  1.
         21   -1    0    0  501  502 -0.00000000000E+00 -0.00000000000E+00 -0.54642098512E+02  0.54642098512E+02  0.00000000000E+00 0.  1.
      99926    2    1    2    0    0  0.00000000000E+00  0.00000000000E+00  0.91608185132E+03  0.10253660483E+04  0.46061868696E+03 0.  0.
      99925    2    3    3    0    0 -0.93159127664E+02 -0.36012840368E+02  0.43211867671E+03  0.51561766902E+03  0.26298190453E+03 0.  0.
         25    1    3    3    0    0  0.93159127664E+02  0.36012840368E+02  0.48396317461E+03  0.50974837932E+03  0.12509000000E+03 0.  0.
         25    1    4    4    0    0 -0.29532979409E+02 -0.15496054583E+02  0.13877768327E+03  0.18978692804E+03  0.12509000000E+03 0.  0.
         25    1    4    4    0    0 -0.63626148255E+02 -0.20516785785E+02  0.29334099344E+03  0.32583074098E+03  0.12509000000E+03 0.  0.
<mgrwt>
<rscale>  2 0.46061869E+03</rscale>
<asrwt>0</asrwt>
<pdfrwt beam="1">  1       21 0.14275351E+00 0.46061869E+03</pdfrwt>
<pdfrwt beam="2">  1       21 0.80356033E-02 0.46061869E+03</pdfrwt>
<totfact> 0.36563980E+04</totfact>
</mgrwt>
</event>
<event>
 7    0  0.4705418E-002  0.4589386E+03  0.7546771E-02  0.1025090E+00
         21   -1    0    0  502  501  0.00000000000E+00  0.00000000000E+00  0.18106982962E+03  0.18106982962E+03  0.00000000000E+00 0.  1.
         21   -1    0    0  501  502 -0.00000000000E+00 -0.00000000000E+00 -0.29080578783E+03  0.29080578783E+03  0.00000000000E+00 0.  1.
      99926    2    1    2    0    0 -0.71054273576E-14  0.00000000000E+00 -0.10973595821E+03  0.47187561745E+03  0.45893857739E+03 0.  0.
      99925    2    3    3    0    0 -0.63979027257E+02  0.50785151044E+02 -0.15450644040E+03  0.31591295631E+03  0.26316593309E+03 0.  0.
         25    1    4    4    0    0 -0.46202155115E+02 -0.12421047851E+02 -0.83152298279E+02  0.15764115699E+03  0.12509000000E+03 0.  0.
         25    1    3    3    0    0  0.63979027257E+02 -0.50785151044E+02  0.44770482188E+02  0.15596266114E+03  0.12509000000E+03 0.  0.
         25    1    4    4    0    0 -0.17776872142E+02  0.63206198895E+02 -0.71354142122E+02  0.15827179932E+03  0.12509000000E+03 0.  0.
<mgrwt>
<rscale>  2 0.45893858E+03</rscale>
<asrwt>0</asrwt>
<pdfrwt beam="1">  1       21 0.26627916E-01 0.45893858E+03</pdfrwt>
<pdfrwt beam="2">  1       21 0.42765557E-01 0.45893858E+03</pdfrwt>
<totfact> 0.65234438E+04</totfact>
</mgrwt>
</event>
<event>
 7    0  0.4705418E-002  0.4452883E+03  0.7546771E-02  0.1029136E+00
         21   -1    0    0  502  501  0.00000000000E+00  0.00000000000E+00  0.12248148413E+03  0.12248148413E+03  0.00000000000E+00 0.  1.
         21   -1    0    0  501  502 -0.00000000000E+00 -0.00000000000E+00 -0.40471767574E+03  0.40471767574E+03  0.00000000000E+00 0.  1.
      99926    2    1    2    0    0  0.00000000000E+00  0.00000000000E+00 -0.28223619161E+03  0.52719915987E+03  0.44528831818E+03 0.  0.
      99925    2    3    3    0    0 -0.36143362756E+02  0.97002128146E+02 -0.18562485856E+03  0.33826262737E+03  0.26315254402E+03 0.  0.
         25    1    4    4    0    0 -0.24481220611E+02  0.82429690444E+01 -0.68607907055E+02  0.14498906756E+03  0.12509000000E+03 0.  0.
         25    1    4    4    0    0 -0.11662142145E+02  0.88759159102E+02 -0.11701695150E+03  0.19327355981E+03  0.12509000000E+03 0.  0.
         25    1    3    3    0    0  0.36143362756E+02 -0.97002128146E+02 -0.96611333051E+02  0.18893653249E+03  0.12509000000E+03 0.  0.
<mgrwt>
<rscale>  2 0.44528832E+03</rscale>
<asrwt>0</asrwt>
<pdfrwt beam="1">  1       21 0.18011983E-01 0.44528832E+03</pdfrwt>
<pdfrwt beam="2">  1       21 0.59517306E-01 0.44528832E+03</pdfrwt>
<totfact> 0.68516470E+04</totfact>
</mgrwt>
</event>
<event>
 7    0  0.4705418E-002  0.4521888E+03  0.7546771E-02  0.1027071E+00
         21   -1    0    0  502  501  0.00000000000E+00  0.00000000000E+00  0.41951751514E+03  0.41951751514E+03  0.00000000000E+00 0.  1.
         21   -1    0    0  501  502 -0.00000000000E+00 -0.00000000000E+00 -0.12185109012E+03  0.12185109012E+03  0.00000000000E+00 0.  1.
      99926    2    1    2    0    0  0.00000000000E+00  0.00000000000E+00  0.29766642502E+03  0.54136860526E+03  0.45218875060E+03 0.  0.
      99925    2    3    3    0    0  0.92248605896E+01 -0.92878843276E+02  0.11689889127E+03  0.30254652307E+03  0.26297807943E+03 0.  0.
         25    1    4    4    0    0  0.20358698829E+00 -0.26260515785E+02  0.17054057108E+02  0.12894962234E+03  0.12509000000E+03 0.  0.
         25    1    3    3    0    0 -0.92248605896E+01  0.92878843276E+02  0.18076753375E+03  0.23882208219E+03  0.12509000000E+03 0.  0.
         25    1    4    4    0    0  0.90212736013E+01 -0.66618327491E+02  0.99844834158E+02  0.17359690073E+03  0.12509000000E+03 0.  0.
<mgrwt>
<rscale>  2 0.45218875E+03</rscale>
<asrwt>0</asrwt>
<pdfrwt beam="1">  1       21 0.61693752E-01 0.45218875E+03</pdfrwt>
<pdfrwt beam="2">  1       21 0.17919278E-01 0.45218875E+03</pdfrwt>
<totfact> 0.63849157E+04</totfact>
</mgrwt>
</event>
<event>
 7    0  0.4705418E-002  0.4534948E+03  0.7546771E-02  0.1026685E+00
         21   -1    0    0  502  501  0.00000000000E+00  0.00000000000E+00  0.24798622849E+03  0.24798622849E+03  0.00000000000E+00 0.  1.
         21   -1    0    0  501  502 -0.00000000000E+00 -0.00000000000E+00 -0.20732758450E+03  0.20732758450E+03  0.00000000000E+00 0.  1.
      99926    2    1    2    0    0  0.00000000000E+00  0.00000000000E+00  0.40658643988E+02  0.45531381300E+03  0.45349481031E+03 0.  0.
      99925    2    3    3    0    0 -0.35079915506E+02 -0.26715643918E+02 -0.77509784203E+02  0.27767482059E+03  0.26296618270E+03 0.  0.
         25    1    3    3    0    0  0.35079915506E+02  0.26715643918E+02  0.11816842819E+03  0.17763899241E+03  0.12509000000E+03 0.  0.
         25    1    4    4    0    0 -0.29008420920E+02  0.20216549173E+02 -0.17782703805E+02  0.13120186736E+03  0.12509000000E+03 0.  0.
         25    1    4    4    0    0 -0.60714945865E+01 -0.46932193091E+02 -0.59727080398E+02  0.14647295323E+03  0.12509000000E+03 0.  0.
<mgrwt>
<rscale>  2 0.45349481E+03</rscale>
<asrwt>0</asrwt>
<pdfrwt beam="1">  1       21 0.36468563E-01 0.45349481E+03</pdfrwt>
<pdfrwt beam="2">  1       21 0.30489351E-01 0.45349481E+03</pdfrwt>
<totfact> 0.69351966E+04</totfact>
</mgrwt>
</event>
<event>
 7    0  0.4705418E-002  0.4652742E+03  0.7546771E-02  0.1023263E+00
         21   -1    0    0  502  501  0.00000000000E+00  0.00000000000E+00  0.83881215367E+03  0.83881215367E+03  0.00000000000E+00 0. -1.
         21   -1    0    0  501  502 -0.00000000000E+00 -0.00000000000E+00 -0.64519823401E+02  0.64519823401E+02  0.00000000000E+00 0. -1.
      99926    2    1    2    0    0  0.00000000000E+00  0.00000000000E+00  0.77429233027E+03  0.90333197708E+03  0.46527416443E+03 0.  0.
      99925    2    3    3    0    0 -0.42789446294E+02  0.35707672076E+02  0.69471205578E+03  0.74494478458E+03  0.26308157872E+03 0.  0.
         25    1    3    3    0    0  0.42789446294E+02 -0.35707672076E+02  0.79580274492E+02  0.15838719250E+03  0.12509000000E+03 0.  0.
         25    1    4    4    0    0 -0.48365076908E+01 -0.19963163547E+02  0.33624382654E+03  0.35934570916E+03  0.12509000000E+03 0.  0.
         25    1    4    4    0    0 -0.37952938603E+02  0.55670835624E+02  0.35846822924E+03  0.38559907542E+03  0.12509000000E+03 0.  0.
<mgrwt>
<rscale>  2 0.46527416E+03</rscale>
<asrwt>0</asrwt>
<pdfrwt beam="1">  1       21 0.12335472E+00 0.46527416E+03</pdfrwt>
<pdfrwt beam="2">  1       21 0.94882098E-02 0.46527416E+03</pdfrwt>
<totfact> 0.39791312E+04</totfact>
</mgrwt>
</event>
<event>
 7    0  0.4705418E-002  0.4773238E+03  0.7546771E-02  0.1019873E+00
         21   -1    0    0  502  501  0.00000000000E+00  0.00000000000E+00  0.10584176384E+04  0.10584176384E+04  0.00000000000E+00 0.  1.
         21   -1    0    0  501  502 -0.00000000000E+00 -0.00000000000E+00 -0.53815712110E+02  0.53815712110E+02  0.00000000000E+00 0.  1.
      99926    2    1    2    0    0 -0.88817841970E-15  0.00000000000E+00  0.10046019262E+04  0.11122333505E+04  0.47732378494E+03 0.  0.
      99925    2    3    3    0    0 -0.62462149585E+01  0.86713767272E+02  0.85498689526E+03  0.89871412830E+03  0.26291861993E+03 0.  0.
         25    1    4    4    0    0 -0.38755520972E+02  0.32897806637E+02  0.36742313697E+03  0.39144798603E+03  0.12509000000E+03 0.  0.
         25    1    3    3    0    0  0.62462149585E+01 -0.86713767272E+02  0.14961503098E+03  0.21351922216E+03  0.12509000000E+03 0.  0.
         25    1    4    4    0    0  0.32509306013E+02  0.53815960635E+02  0.48756375829E+03  0.50726614227E+03  0.12509000000E+03 0.  0.
<mgrwt>
<rscale>  2 0.47732378E+03</rscale>
<asrwt>0</asrwt>
<pdfrwt beam="1">  1       21 0.15564964E+00 0.47732378E+03</pdfrwt>
<pdfrwt beam="2">  1       21 0.79140760E-02 0.47732378E+03</pdfrwt>
<totfact> 0.29575425E+04</totfact>
</mgrwt>
</event>
<event>
 7    0  0.4705418E-002  0.4539879E+03  0.7546771E-02  0.1026539E+00
         21   -1    0    0  502  501  0.00000000000E+00  0.00000000000E+00  0.26980000669E+03  0.26980000669E+03  0.00000000000E+00 0. -1.
         21   -1    0    0  501  502 -0.00000000000E+00 -0.00000000000E+00 -0.19097944450E+03  0.19097944450E+03  0.00000000000E+00 0. -1.
      99926    2    1    2    0    0  0.00000000000E+00  0.00000000000E+00  0.78820562185E+02  0.46077945119E+03  0.45398790911E+03 0.  0.
      99925    2    3    3    0    0  0.65920434713E+02  0.18571539561E+02  0.13996278251E+03  0.30561410390E+03  0.26290681661E+03 0.  0.
         25    1    3    3    0    0 -0.65920434713E+02 -0.18571539561E+02 -0.61142220321E+02  0.15516534729E+03  0.12509000000E+03 0.  0.
         25    1    4    4    0    0  0.36072351116E+02  0.46159773894E+02  0.53053856777E+02  0.14796674985E+03  0.12509000000E+03 0.  0.
         25    1    4    4    0    0  0.29848083597E+02 -0.27588234333E+02  0.86908925729E+02  0.15764735405E+03  0.12509000000E+03 0.  0.
<mgrwt>
<rscale>  2 0.45398791E+03</rscale>
<asrwt>0</asrwt>
<pdfrwt beam="1">  1       21 0.39676471E-01 0.45398791E+03</pdfrwt>
<pdfrwt beam="2">  1       21 0.28085213E-01 0.45398791E+03</pdfrwt>
<totfact> 0.68675410E+04</totfact>
</mgrwt>
</event>
<event>
 7    0  0.4705418E-002  0.4458031E+03  0.7546771E-02  0.1028981E+00
         21   -1    0    0  502  501  0.00000000000E+00  0.00000000000E+00  0.89412993153E+02  0.89412993153E+02  0.00000000000E+00 0.  1.
         21   -1    0    0  501  502 -0.00000000000E+00 -0.00000000000E+00 -0.55568105150E+03  0.55568105150E+03  0.00000000000E+00 0.  1.
      99926    2    1    2    0    0  0.00000000000E+00 -0.71054273576E-14 -0.46626805835E+03  0.64509404465E+03  0.44580312270E+03 0.  0.
      99925    2    3    3    0    0  0.90531275094E+02 -0.51503969978E+02 -0.28831876867E+03  0.40392599434E+03  0.26302077075E+03 0.  0.
         25    1    3    3    0    0 -0.90531275094E+02  0.51503969978E+02 -0.17794928968E+03  0.24116805031E+03  0.12509000000E+03 0.  0.
         25    1    4    4    0    0  0.34914127754E+01 -0.13822526601E+02 -0.12652531593E+03  0.17849206110E+03  0.12509000000E+03 0.  0.
         25    1    4    4    0    0  0.87039862319E+02 -0.37681443377E+02 -0.16179345274E+03  0.22543393324E+03  0.12509000000E+03 0.  0.
<mgrwt>
<rscale>  2 0.44580312E+03</rscale>
<asrwt>0</asrwt>
<pdfrwt beam="1">  1       21 0.13148970E-01 0.44580312E+03</pdfrwt>
<pdfrwt beam="2">  1       21 0.81717802E-01 0.44580312E+03</pdfrwt>
<totfact> 0.60238345E+04</totfact>
</mgrwt>
</event>
<event>
 7    0  0.4705418E-002  0.4530538E+03  0.7546771E-02  0.1026815E+00
         21   -1    0    0  502  501  0.00000000000E+00  0.00000000000E+00  0.59233890085E+02  0.59233890085E+02  0.00000000000E+00 0.  1.
         21   -1    0    0  501  502 -0.00000000000E+00 -0.00000000000E+00 -0.86630206191E+03  0.86630206191E+03  0.00000000000E+00 0.  1.
      99926    2    1    2    0    0 -0.35527136788E-14  0.00000000000E+00 -0.80706817182E+03  0.92553595199E+03  0.45305382071E+03 0.  0.
      99925    2    3    3    0    0  0.20950449908E+02 -0.84440848554E+02 -0.65094162457E+03  0.70737962017E+03  0.26285309620E+03 0.  0.
         25    1    4    4    0    0  0.14698507575E+02 -0.10561286167E+02 -0.37075180219E+03  0.39170396196E+03  0.12509000000E+03 0.  0.
         25    1    4    4    0    0  0.62519423330E+01 -0.73879562387E+02 -0.28018982238E+03  0.31567565821E+03  0.12509000000E+03 0.  0.
         25    1    3    3    0    0 -0.20950449908E+02  0.84440848554E+02 -0.15612654725E+03  0.21815633182E+03  0.12509000000E+03 0.  0.
<mgrwt>
<rscale>  2 0.45305382E+03</rscale>
<asrwt>0</asrwt>
<pdfrwt beam="1">  1       21 0.87108668E-02 0.45305382E+03</pdfrwt>
<pdfrwt beam="2">  1       21 0.12739735E+00 0.45305382E+03</pdfrwt>
<totfact> 0.42795444E+04</totfact>
</mgrwt>
</event>
<event>
 7    0  0.4705418E-002  0.4620447E+03  0.7546771E-02  0.1024190E+00
         21   -1    0    0  502  501  0.00000000000E+00  0.00000000000E+00  0.30785139821E+03  0.30785139821E+03  0.00000000000E+00 0.  1.
         21   -1    0    0  501  502 -0.00000000000E+00 -0.00000000000E+00 -0.17336720838E+03  0.17336720838E+03  0.00000000000E+00 0.  1.
      99926    2    1    2    0    0  0.00000000000E+00  0.00000000000E+00  0.13448418983E+03  0.48121860659E+03  0.46204474893E+03 0.  0.
      99925    2    3    3    0    0 -0.82945726691E+02 -0.88030770113E+01  0.17375662726E+03  0.32582452633E+03  0.26270281441E+03 0.  0.
         25    1    4    4    0    0 -0.43031277651E+02 -0.44471361326E+02  0.88985763770E+02  0.16551545876E+03  0.12509000000E+03 0.  0.
         25    1    4    4    0    0 -0.39914449040E+02  0.35668284314E+02  0.84770863486E+02  0.16030906757E+03  0.12509000000E+03 0.  0.
         25    1    3    3    0    0  0.82945726691E+02  0.88030770113E+01 -0.39272437424E+02  0.15539408027E+03  0.12509000000E+03 0.  0.
<mgrwt>
<rscale>  2 0.46204475E+03</rscale>
<asrwt>0</asrwt>
<pdfrwt beam="1">  1       21 0.45272264E-01 0.46204475E+03</pdfrwt>
<pdfrwt beam="2">  1       21 0.25495178E-01 0.46204475E+03</pdfrwt>
<totfact> 0.63013936E+04</totfact>
</mgrwt>
</event>
<event>
 7    0  0.4705418E-002  0.4559992E+03  0.7546771E-02  0.1025948E+00
         21   -1    0    0  502  501  0.00000000000E+00  0.00000000000E+00  0.23663546570E+03  0.23663546570E+03  0.00000000000E+00 0.  1.
         21   -1    0    0  501  502 -0.00000000000E+00 -0.00000000000E+00 -0.21967885624E+03  0.21967885624E+03  0.00000000000E+00 0.  1.
      99926    2    1    2    0    0  0.00000000000E+00  0.00000000000E+00  0.16956609459E+02  0.45631432195E+03  0.45599915988E+03 0.  0.
      99925    2    3    3    0    0 -0.24776448753E+02  0.87969592915E+02  0.79046330842E+02  0.28941566020E+03  0.26298399240E+03 0.  0.
         25    1    4    4    0    0 -0.34340397689E+02  0.46474524466E+02  0.75737340297E+02  0.15723484713E+03  0.12509000000E+03 0.  0.
         25    1    4    4    0    0  0.95639489354E+01  0.41495068449E+02  0.33089905443E+01  0.13218081307E+03  0.12509000000E+03 0.  0.
         25    1    3    3    0    0  0.24776448753E+02 -0.87969592915E+02 -0.62089721383E+02  0.16689866174E+03  0.12509000000E+03 0.  0.
<mgrwt>
<rscale>  2 0.45599916E+03</rscale>
<asrwt>0</asrwt>
<pdfrwt beam="1">  1       21 0.34799333E-01 0.45599916E+03</pdfrwt>
<pdfrwt beam="2">  1       21 0.32305714E-01 0.45599916E+03</pdfrwt>
<totfact> 0.67906647E+04</totfact>
</mgrwt>
</event>
<event>
 7    0  0.4705418E-002  0.4636609E+03  0.7546771E-02  0.1023725E+00
         21   -1    0    0  502  501  0.00000000000E+00  0.00000000000E+00  0.34224193623E+03  0.34224193623E+03  0.00000000000E+00 0.  1.
         21   -1    0    0  501  502 -0.00000000000E+00 -0.00000000000E+00 -0.15703906842E+03  0.15703906842E+03  0.00000000000E+00 0.  1.
      99926    2    1    2    0    0 -0.35527136788E-14 -0.21094237468E-14  0.18520286780E+03  0.49928100465E+03  0.46366088832E+03 0.  0.
      99925    2    3    3    0    0 -0.16489563014E+02 -0.83955785696E+00  0.24513684863E+03  0.35959492552E+03  0.26257156236E+03 0.  0.
         25    1    4    4    0    0 -0.17166414757E+02  0.34131680906E+02  0.98718535578E+02  0.16386736955E+03  0.12509000000E+03 0.  0.
         25    1    4    4    0    0  0.67685174271E+00 -0.34971238763E+02  0.14641831305E+03  0.19572755597E+03  0.12509000000E+03 0.  0.
         25    1    3    3    0    0  0.16489563014E+02  0.83955785696E+00 -0.59933980822E+02  0.13968607913E+03  0.12509000000E+03 0.  0.
<mgrwt>
<rscale>  2 0.46366089E+03</rscale>
<asrwt>0</asrwt>
<pdfrwt beam="1">  1       21 0.50329696E-01 0.46366089E+03</pdfrwt>
<pdfrwt beam="2">  1       21 0.23093981E-01 0.46366089E+03</pdfrwt>
<totfact> 0.61016851E+04</totfact>
</mgrwt>
</event>
<event>
 7    0  0.4705418E-002  0.4316195E+03  0.7546771E-02  0.1033350E+00
         21   -1    0    0  502  501  0.00000000000E+00  0.00000000000E+00  0.40226563634E+02  0.40226563634E+02  0.00000000000E+00 0. -1.
         21   -1    0    0  501  502 -0.00000000000E+00 -0.00000000000E+00 -0.11577883529E+04  0.11577883529E+04  0.00000000000E+00 0. -1.
      99926    2    1    2    0    0 -0.35527136788E-14  0.00000000000E+00 -0.11175617893E+04  0.11980149166E+04  0.43161949379E+03 0.  0.
      99925    2    3    3    0    0  0.24416880274E+02  0.77677129505E+02 -0.82297271604E+03  0.86777235318E+03  0.26289702376E+03 0.  0.
         25    1    4    4    0    0  0.50137767818E+02  0.47952600406E+02 -0.46717629746E+03  0.48858412649E+03  0.12509000000E+03 0.  0.
         25    1    3    3    0    0 -0.24416880274E+02 -0.77677129505E+02 -0.29458907327E+03  0.33024256340E+03  0.12509000000E+03 0.  0.
         25    1    4    4    0    0 -0.25720887544E+02  0.29724529099E+02 -0.35579641858E+03  0.37918822669E+03  0.12509000000E+03 0.  0.
<mgrwt>
<rscale>  2 0.43161949E+03</rscale>
<asrwt>0</asrwt>
<pdfrwt beam="1">  1       21 0.59156721E-02 0.43161949E+03</pdfrwt>
<pdfrwt beam="2">  1       21 0.17026297E+00 0.43161949E+03</pdfrwt>
<totfact> 0.38821078E+04</totfact>
</mgrwt>
</event>
<event>
 7    0  0.4705418E-002  0.4505696E+03  0.7546771E-02  0.1027552E+00
         21   -1    0    0  502  501  0.00000000000E+00  0.00000000000E+00  0.91324478139E+02  0.91324478139E+02  0.00000000000E+00 0. -1.
         21   -1    0    0  501  502 -0.00000000000E+00 -0.00000000000E+00 -0.55574637668E+03  0.55574637668E+03  0.00000000000E+00 0. -1.
      99926    2    1    2    0    0  0.00000000000E+00  0.00000000000E+00 -0.46442189854E+03  0.64707085481E+03  0.45056962981E+03 0.  0.
      99925    2    3    3    0    0  0.96890764922E+02 -0.49287758584E+02 -0.30538349712E+03  0.41738013951E+03  0.26292583948E+03 0.  0.
         25    1    4    4    0    0  0.79384122306E+02 -0.47864110776E+02 -0.19578581107E+03  0.25014476587E+03  0.12509000000E+03 0.  0.
         25    1    3    3    0    0 -0.96890764922E+02  0.49287758584E+02 -0.15903840141E+03  0.22969071530E+03  0.12509000000E+03 0.  0.
         25    1    4    4    0    0  0.17506642617E+02 -0.14236478075E+01 -0.10959768605E+03  0.16723537364E+03  0.12509000000E+03 0.  0.
<mgrwt>
<rscale>  2 0.45056963E+03</rscale>
<asrwt>0</asrwt>
<pdfrwt beam="1">  1       21 0.13430071E-01 0.45056963E+03</pdfrwt>
<pdfrwt beam="2">  1       21 0.81727406E-01 0.45056963E+03</pdfrwt>
<totfact> 0.57866806E+04</totfact>
</mgrwt>
</event>
<event>
 7    0  0.4705418E-002  0.4442593E+03  0.7546771E-02  0.1029448E+00
         21   -1    0    0  502  501  0.00000000000E+00  0.00000000000E+00  0.17751006173E+03  0.17751006173E+03  0.00000000000E+00 0. -1.
         21   -1    0    0  501  502 -0.00000000000E+00 -0.00000000000E+00 -0.27796500074E+03  0.27796500074E+03  0.00000000000E+00 0. -1.
      99926    2    1    2    0    0  0.00000000000E+00  0.00000000000E+00 -0.10045493901E+03  0.45547506246E+03  0.44425931364E+03 0.  0.
      99925    2    3    3    0    0  0.66587336825E+02  0.72113380705E+01  0.15930356750E+02  0.27195688355E+03  0.26309863820E+03 0.  0.
         25    1    4    4    0    0  0.55137113027E+02  0.38127410232E+02  0.13652570027E+02  0.14257524825E+03  0.12509000000E+03 0.  0.
         25    1    3    3    0    0 -0.66587336825E+02 -0.72113380705E+01 -0.11638529576E+03  0.18351817891E+03  0.12509000000E+03 0.  0.
         25    1    4    4    0    0  0.11450223798E+02 -0.30916072162E+02  0.22777867240E+01  0.12938163531E+03  0.12509000000E+03 0.  0.
<mgrwt>
<rscale>  2 0.44425931E+03</rscale>
<asrwt>0</asrwt>
<pdfrwt beam="1">  1       21 0.26104421E-01 0.44425931E+03</pdfrwt>
<pdfrwt beam="2">  1       21 0.40877205E-01 0.44425931E+03</pdfrwt>
<totfact> 0.74695288E+04</totfact>
</mgrwt>
</event>
<event>
 7    0  0.4705418E-002  0.4584934E+03  0.7546771E-02  0.1025219E+00
         21   -1    0    0  502  501  0.00000000000E+00  0.00000000000E+00  0.23607678379E+03  0.23607678379E+03  0.00000000000E+00 0.  1.
         21   -1    0    0  501  502 -0.00000000000E+00 -0.00000000000E+00 -0.22261419496E+03  0.22261419496E+03  0.00000000000E+00 0.  1.
      99926    2    1    2    0    0  0.00000000000E+00  0.00000000000E+00  0.13462588822E+02  0.45869097875E+03  0.45849337257E+03 0.  0.
      99925    2    3    3    0    0  0.72413875352E+02  0.84459616875E+02  0.42913379734E+02  0.28871435268E+03  0.26293958062E+03 0.  0.
         25    1    4    4    0    0  0.64667196657E+02  0.18385865175E+02  0.37733866618E+02  0.14693957653E+03  0.12509000000E+03 0.  0.
         25    1    3    3    0    0 -0.72413875352E+02 -0.84459616875E+02 -0.29450790912E+02  0.16997662607E+03  0.12509000000E+03 0.  0.
         25    1    4    4    0    0  0.77466786948E+01  0.66073751700E+02  0.51795131163E+01  0.14177477614E+03  0.12509000000E+03 0.  0.
<mgrwt>
<rscale>  2 0.45849337E+03</rscale>
<asrwt>0</asrwt>
<pdfrwt beam="1">  1       21 0.34717174E-01 0.45849337E+03</pdfrwt>
<pdfrwt beam="2">  1       21 0.32737382E-01 0.45849337E+03</pdfrwt>
<totfact> 0.66405898E+04</totfact>
</mgrwt>
</event>
<event>
 7    0  0.4705418E-002  0.4535389E+03  0.7546771E-02  0.1026672E+00
         21   -1    0    0  502  501  0.00000000000E+00  0.00000000000E+00  0.22428220404E+03  0.22428220404E+03  0.00000000000E+00 0. -1.
         21   -1    0    0  501  502 -0.00000000000E+00 -0.00000000000E+00 -0.22928427328E+03  0.22928427328E+03  0.00000000000E+00 0. -1.
      99926    2    1    2    0    0  0.35527136788E-14  0.00000000000E+00 -0.50020692403E+01  0.45356647731E+03  0.45353889430E+03 0.  0.
      99925    2    3    3    0    0 -0.29191736294E+02  0.82791876672E+02  0.66037158603E+02  0.28504130915E+03  0.26302279235E+03 0.  0.
         25    1    4    4    0    0  0.23496090660E+02  0.29255577856E+02  0.20534745012E+02  0.13220113072E+03  0.12509000000E+03 0.  0.
         25    1    4    4    0    0 -0.52687826954E+02  0.53536298816E+02  0.45502413591E+02  0.15284017843E+03  0.12509000000E+03 0.  0.
         25    1    3    3    0    0  0.29191736294E+02 -0.82791876672E+02 -0.71039227843E+02  0.16852516816E+03  0.12509000000E+03 0.  0.
<mgrwt>
<rscale>  2 0.45353889E+03</rscale>
<asrwt>0</asrwt>
<pdfrwt beam="1">  1       21 0.32982677E-01 0.45353889E+03</pdfrwt>
<pdfrwt beam="2">  1       21 0.33718275E-01 0.45353889E+03</pdfrwt>
<totfact> 0.69457151E+04</totfact>
</mgrwt>
</event>
<event>
 7    0  0.4705418E-002  0.4616713E+03  0.7546771E-02  0.1024298E+00
         21   -1    0    0  502  501  0.00000000000E+00  0.00000000000E+00  0.15375217183E+04  0.15375217183E+04  0.00000000000E+00 0. -1.
         21   -1    0    0  501  502 -0.00000000000E+00 -0.00000000000E+00 -0.34656490367E+02  0.34656490367E+02  0.00000000000E+00 0. -1.
      99926    2    1    2    0    0 -0.15543122345E-14  0.00000000000E+00  0.15028652280E+04  0.15721782087E+04  0.46167134033E+03 0.  0.
      99925    2    3    3    0    0 -0.11796989495E+01  0.61560002527E+02  0.59195924422E+03  0.65066410413E+03  0.26297719289E+03 0.  0.
         25    1    3    3    0    0  0.11796989495E+01 -0.61560002527E+02  0.91090598375E+03  0.92151410458E+03  0.12509000000E+03 0.  0.
         25    1    4    4    0    0  0.17703666887E+02  0.31722447395E+02  0.38334323151E+03  0.40486945394E+03  0.12509000000E+03 0.  0.
         25    1    4    4    0    0 -0.18883365837E+02  0.29837555132E+02  0.20861601271E+03  0.24579465019E+03  0.12509000000E+03 0.  0.
<mgrwt>
<rscale>  2 0.46167134E+03</rscale>
<asrwt>0</asrwt>
<pdfrwt beam="1">  1       21 0.22610609E+00 0.46167134E+03</pdfrwt>
<pdfrwt beam="2">  1       21 0.50965437E-02 0.46167134E+03</pdfrwt>
<totfact> 0.20957321E+04</totfact>
</mgrwt>
</event>
<event>
 7    0  0.4705418E-002  0.4544553E+03  0.7546771E-02  0.1026402E+00
         21   -1    0    0  502  501  0.00000000000E+00  0.00000000000E+00  0.10167903467E+03  0.10167903467E+03  0.00000000000E+00 0.  1.
         21   -1    0    0  501  502 -0.00000000000E+00 -0.00000000000E+00 -0.50779790033E+03  0.50779790033E+03  0.00000000000E+00 0.  1.
      99926    2    1    2    0    0 -0.35527136788E-14 -0.17763568394E-14 -0.40611886566E+03  0.60947693501E+03  0.45445527971E+03 0.  0.
      99925    2    3    3    0    0 -0.10174980798E+02  0.60746311685E+01 -0.10611891624E+03  0.28422640214E+03  0.26340651456E+03 0.  0.
         25    1    3    3    0    0  0.10174980798E+02 -0.60746311685E+01 -0.29999994942E+03  0.32525053287E+03  0.12509000000E+03 0.  0.
         25    1    4    4    0    0  0.33909923371E+02  0.15713408233E+02 -0.57173721184E+02  0.14252416144E+03  0.12509000000E+03 0.  0.
         25    1    4    4    0    0 -0.44084904169E+02 -0.96387770644E+01 -0.48945195058E+02  0.14170224070E+03  0.12509000000E+03 0.  0.
<mgrwt>
<rscale>  2 0.45445528E+03</rscale>
<asrwt>0</asrwt>
<pdfrwt beam="1">  1       21 0.14952799E-01 0.45445528E+03</pdfrwt>
<pdfrwt beam="2">  1       21 0.74676162E-01 0.45445528E+03</pdfrwt>
<totfact> 0.58349357E+04</totfact>
</mgrwt>
</event>
<event>
 7    0  0.4705418E-002  0.4609637E+03  0.7546771E-02  0.1024502E+00
         21   -1    0    0  502  501  0.00000000000E+00  0.00000000000E+00  0.12161421152E+03  0.12161421152E+03  0.00000000000E+00 0. -1.
         21   -1    0    0  501  502 -0.00000000000E+00 -0.00000000000E+00 -0.43680655278E+03  0.43680655278E+03  0.00000000000E+00 0. -1.
      99926    2    1    2    0    0  0.00000000000E+00  0.00000000000E+00 -0.31519234126E+03  0.55842076430E+03  0.46096370575E+03 0.  0.
      99925    2    3    3    0    0 -0.33189083777E+02 -0.11223275248E+03 -0.22348894503E+03  0.36411500785E+03  0.26255423131E+03 0.  0.
         25    1    3    3    0    0  0.33189083777E+02  0.11223275248E+03 -0.91703396228E+02  0.19430575646E+03  0.12509000000E+03 0.  0.
         25    1    4    4    0    0  0.16451737486E+02 -0.29813278256E+02 -0.10181495131E+03  0.16484320925E+03  0.12509000000E+03 0.  0.
         25    1    4    4    0    0 -0.49640821263E+02 -0.82419474229E+02 -0.12167399372E+03  0.19927179859E+03  0.12509000000E+03 0.  0.
<mgrwt>
<rscale>  2 0.46096371E+03</rscale>
<asrwt>0</asrwt>
<pdfrwt beam="1">  1       21 0.17884443E-01 0.46096371E+03</pdfrwt>
<pdfrwt beam="2">  1       21 0.64236258E-01 0.46096371E+03</pdfrwt>
<totfact> 0.58504300E+04</totfact>
</mgrwt>
</event>
<event>
 7    0  0.4705418E-002  0.4551996E+03  0.7546771E-02  0.1026183E+00
         21   -1    0    0  502  501  0.00000000000E+00  0.00000000000E+00  0.10467461830E+03  0.10467461830E+03  0.00000000000E+00 0.  1.
         21   -1    0    0  501  502 -0.00000000000E+00 -0.00000000000E+00 -0.49488280675E+03  0.49488280675E+03  0.00000000000E+00 0.  1.
      99926    2    1    2    0    0  0.00000000000E+00  0.00000000000E+00 -0.39020818846E+03  0.59955742505E+03  0.45519959973E+03 0.  0.
      99925    2    3    3    0    0  0.55795969335E+02 -0.72653595461E+02 -0.15785340041E+03  0.32022251717E+03  0.26312170066E+03 0.  0.
         25    1    3    3    0    0 -0.55795969335E+02  0.72653595461E+02 -0.23235478805E+03  0.27933490788E+03  0.12509000000E+03 0.  0.
         25    1    4    4    0    0  0.21058897959E+02  0.55692094717E+01 -0.68351150049E+02  0.14420083596E+03  0.12509000000E+03 0.  0.
         25    1    4    4    0    0  0.34737071376E+02 -0.78222804933E+02 -0.89502250356E+02  0.17602168122E+03  0.12509000000E+03 0.  0.
<mgrwt>
<rscale>  2 0.45519960E+03</rscale>
<asrwt>0</asrwt>
<pdfrwt beam="1">  1       21 0.15393326E-01 0.45519960E+03</pdfrwt>
<pdfrwt beam="2">  1       21 0.72776884E-01 0.45519960E+03</pdfrwt>
<totfact> 0.58613023E+04</totfact>
</mgrwt>
</event>
<event>
 7    0  0.4705418E-002  0.4692028E+03  0.7546771E-02  0.1022145E+00
         21   -1    0    0  502  501  0.00000000000E+00  0.00000000000E+00  0.15119893703E+03  0.15119893703E+03  0.00000000000E+00 0.  1.
         21   -1    0    0  501  502 -0.00000000000E+00 -0.00000000000E+00 -0.36400936131E+03  0.36400936131E+03  0.00000000000E+00 0.  1.
      99926    2    1    2    0    0  0.00000000000E+00  0.00000000000E+00 -0.21281042428E+03  0.51520829833E+03  0.46920284951E+03 0.  0.
      99925    2    3    3    0    0 -0.11316572466E+03 -0.54571160517E+02 -0.12305011490E+03  0.31649012091E+03  0.26313527521E+03 0.  0.
         25    1    4    4    0    0 -0.73516347103E+02 -0.60852096457E+02 -0.89041937254E+02  0.18078607697E+03  0.12509000000E+03 0.  0.
         25    1    4    4    0    0 -0.39649377554E+02  0.62809359397E+01 -0.34008177642E+02  0.13570404395E+03  0.12509000000E+03 0.  0.
         25    1    3    3    0    0  0.11316572466E+03  0.54571160517E+02 -0.89760309384E+02  0.19871817742E+03  0.12509000000E+03 0.  0.
<mgrwt>
<rscale>  2 0.46920285E+03</rscale>
<asrwt>0</asrwt>
<pdfrwt beam="1">  1       21 0.22235138E-01 0.46920285E+03</pdfrwt>
<pdfrwt beam="2">  1       21 0.53530788E-01 0.46920285E+03</pdfrwt>
<totfact> 0.57459403E+04</totfact>
</mgrwt>
</event>
<event>
 7    0  0.4705418E-002  0.4681754E+03  0.7546771E-02  0.1022436E+00
         21   -1    0    0  502  501  0.00000000000E+00  0.00000000000E+00  0.39374528483E+03  0.39374528483E+03  0.00000000000E+00 0. -1.
         21   -1    0    0  501  502 -0.00000000000E+00 -0.00000000000E+00 -0.13916877160E+03  0.13916877160E+03  0.00000000000E+00 0. -1.
      99926    2    1    2    0    0  0.26645352591E-14 -0.71054273576E-14  0.25457651323E+03  0.53291405644E+03  0.46817538429E+03 0.  0.
      99925    2    3    3    0    0  0.46520985596E+01  0.32832122510E+02  0.29556946793E+03  0.39716605194E+03  0.26321088911E+03 0.  0.
         25    1    4    4    0    0  0.40230341580E+02  0.11241227852E+01  0.14365069630E+03  0.19468634951E+03  0.12509000000E+03 0.  0.
         25    1    4    4    0    0 -0.35578243021E+02  0.31707999725E+02  0.15191877163E+03  0.20247970243E+03  0.12509000000E+03 0.  0.
         25    1    3    3    0    0 -0.46520985596E+01 -0.32832122510E+02 -0.40992954704E+02  0.13574800450E+03  0.12509000000E+03 0.  0.
<mgrwt>
<rscale>  2 0.46817538E+03</rscale>
<asrwt>0</asrwt>
<pdfrwt beam="1">  1       21 0.57903718E-01 0.46817538E+03</pdfrwt>
<pdfrwt beam="2">  1       21 0.20465996E-01 0.46817538E+03</pdfrwt>
<totfact> 0.56837343E+04</totfact>
</mgrwt>
</event>
<event>
 7    0  0.4705418E-002  0.4625883E+03  0.7546771E-02  0.1024033E+00
         21   -1    0    0  502  501  0.00000000000E+00  0.00000000000E+00  0.27461206362E+03  0.27461206362E+03  0.00000000000E+00 0.  1.
         21   -1    0    0  501  502 -0.00000000000E+00 -0.00000000000E+00 -0.19480932625E+03  0.19480932625E+03  0.00000000000E+00 0.  1.
      99926    2    1    2    0    0 -0.35527136788E-14  0.00000000000E+00  0.79802737372E+02  0.46942138987E+03  0.46258833143E+03 0.  0.
      99925    2    3    3    0    0  0.17145410401E+02 -0.10685691946E+03  0.10274529950E+03  0.30242966674E+03  0.26304893161E+03 0.  0.
         25    1    4    4    0    0 -0.18910649097E+02 -0.83104876145E+02  0.65709262100E+02  0.16501287318E+03  0.12509000000E+03 0.  0.
         25    1    3    3    0    0 -0.17145410401E+02  0.10685691946E+03 -0.22942562130E+02  0.16699172312E+03  0.12509000000E+03 0.  0.
         25    1    4    4    0    0  0.36056059498E+02 -0.23752043315E+02  0.37036037401E+02  0.13741679357E+03  0.12509000000E+03 0.  0.
<mgrwt>
<rscale>  2 0.46258833E+03</rscale>
<asrwt>0</asrwt>
<pdfrwt beam="1">  1       21 0.40384127E-01 0.46258833E+03</pdfrwt>
<pdfrwt beam="2">  1       21 0.28648431E-01 0.46258833E+03</pdfrwt>
<totfact> 0.63561589E+04</totfact>
</mgrwt>
</event>
<event>
 7    0  0.4705418E-002  0.4549600E+03  0.7546771E-02  0.1026253E+00
         21   -1    0    0  502  501  0.00000000000E+00  0.00000000000E+00  0.24191006800E+03  0.24191006800E+03  0.00000000000E+00 0. -1.
         21   -1    0    0  501  502 -0.00000000000E+00 -0.00000000000E+00 -0.21391068012E+03  0.21391068012E+03  0.00000000000E+00 0. -1.
      99926    2    1    2    0    0  0.00000000000E+00  0.00000000000E+00  0.27999387878E+02  0.45582074811E+03  0.45495998581E+03 0.  0.
      99925    2    3    3    0    0  0.92029911300E+02  0.53630495004E+02  0.59916601703E+02  0.28845303556E+03  0.26128417479E+03 0.  0.
         25    1    4    4    0    0  0.63801996829E+02  0.62317410296E+02  0.31864869538E+02  0.15689815944E+03  0.12509000000E+03 0.  0.
         25    1    4    4    0    0  0.28227914471E+02 -0.86869152920E+01  0.28051732165E+02  0.13155487612E+03  0.12509000000E+03 0.  0.
         25    1    3    3    0    0 -0.92029911300E+02 -0.53630495004E+02 -0.31917213824E+02  0.16736771256E+03  0.12509000000E+03 0.  0.
<mgrwt>
<rscale>  2 0.45495999E+03</rscale>
<asrwt>0</asrwt>
<pdfrwt beam="1">  1       21 0.35575010E-01 0.45495999E+03</pdfrwt>
<pdfrwt beam="2">  1       21 0.31457453E-01 0.45495999E+03</pdfrwt>
<totfact> 0.68507611E+04</totfact>
</mgrwt>
</event>
<event>
 7    0  0.4705418E-002  0.4522616E+03  0.7546771E-02  0.1027050E+00
         21   -1    0    0  502  501  0.00000000000E+00  0.00000000000E+00  0.14841704246E+04  0.14841704246E+04  0.00000000000E+00 0.  1.
         21   -1    0    0  501  502 -0.00000000000E+00 -0.00000000000E+00 -0.34453678037E+02  0.34453678037E+02  0.00000000000E+00 0.  1.
      99926    2    1    2    0    0  0.14210854715E-13  0.59952043330E-14  0.14497167466E+04  0.15186241027E+04  0.45226156132E+03 0.  0.
      99925    2    3    3    0    0  0.10998914874E+03 -0.47007578170E+00  0.87284976034E+03  0.91819020810E+03  0.26288537487E+03 0.  0.
         25    1    3    3    0    0 -0.10998914874E+03  0.47007578170E+00  0.57686698626E+03  0.60043389457E+03  0.12509000000E+03 0.  0.
         25    1    4    4    0    0  0.61263364470E+02 -0.32600487171E+02  0.51949314796E+03  0.53882894360E+03  0.12509000000E+03 0.  0.
         25    1    4    4    0    0  0.48725784273E+02  0.32130411390E+02  0.35335661238E+03  0.37936126450E+03  0.12509000000E+03 0.  0.
<mgrwt>
<rscale>  2 0.45226156E+03</rscale>
<asrwt>0</asrwt>
<pdfrwt beam="1">  1       21 0.21826031E+00 0.45226156E+03</pdfrwt>
<pdfrwt beam="2">  1       21 0.50667184E-02 0.45226156E+03</pdfrwt>
<totfact> 0.23829162E+04</totfact>
</mgrwt>
</event>
<event>
 7    0  0.4705418E-002  0.4824748E+03  0.7546771E-02  0.1018457E+00
         21   -1    0    0  502  501  0.00000000000E+00  0.00000000000E+00  0.11484869986E+04  0.11484869986E+04  0.00000000000E+00 0. -1.
         21   -1    0    0  501  502 -0.00000000000E+00 -0.00000000000E+00 -0.50671427679E+02  0.50671427679E+02  0.00000000000E+00 0. -1.
      99926    2    1    2    0    0  0.00000000000E+00  0.00000000000E+00  0.10978155710E+04  0.11991584263E+04  0.48247476988E+03 0.  0.
      99925    2    3    3    0    0  0.10596073312E+03  0.85087466365E+02  0.62648176225E+03  0.69292664025E+03  0.26305964425E+03 0.  0.
         25    1    4    4    0    0  0.88371096233E+02  0.61901511390E+02  0.30755236533E+03  0.34910917101E+03  0.12509000000E+03 0.  0.
         25    1    4    4    0    0  0.17589636888E+02  0.23185954975E+02  0.31892939692E+03  0.34381746923E+03  0.12509000000E+03 0.  0.
         25    1    3    3    0    0 -0.10596073312E+03 -0.85087466365E+02  0.47133380871E+03  0.50623178608E+03  0.12509000000E+03 0.  0.
<mgrwt>
<rscale>  2 0.48247477E+03</rscale>
<asrwt>0</asrwt>
<pdfrwt beam="1">  1       21 0.16889513E+00 0.48247477E+03</pdfrwt>
<pdfrwt beam="2">  1       21 0.74516813E-02 0.48247477E+03</pdfrwt>
<totfact> 0.26126424E+04</totfact>
</mgrwt>
</event>
<event>
 7    0  0.4705418E-002  0.4578999E+03  0.7546771E-02  0.1025392E+00
         21   -1    0    0  502  501  0.00000000000E+00  0.00000000000E+00  0.15502696830E+04  0.15502696830E+04  0.00000000000E+00 0. -1.
         21   -1    0    0  501  502 -0.00000000000E+00 -0.00000000000E+00 -0.33812232751E+02  0.33812232751E+02  0.00000000000E+00 0. -1.
      99926    2    1    2    0    0 -0.17763568394E-14  0.00000000000E+00  0.15164574503E+04  0.15840819158E+04  0.45789989888E+03 0.  0.
      99925    2    3    3    0    0 -0.13502007150E+02  0.11433866360E+03  0.90090603323E+03  0.94548447660E+03  0.26278047987E+03 0.  0.
         25    1    3    3    0    0  0.13502007150E+02 -0.11433866360E+03  0.61555141704E+03  0.63859743916E+03  0.12509000000E+03 0.  0.
         25    1    4    4    0    0 -0.24840211142E+02  0.25401884196E+02  0.48082483859E+03  0.49809871041E+03  0.12509000000E+03 0.  0.
         25    1    4    4    0    0  0.11338203992E+02  0.88936779404E+02  0.42008119464E+03  0.44738576620E+03  0.12509000000E+03 0.  0.
<mgrwt>
<rscale>  2 0.45789990E+03</rscale>
<asrwt>0</asrwt>
<pdfrwt beam="1">  1       21 0.22798079E+00 0.45789990E+03</pdfrwt>
<pdfrwt beam="2">  1       21 0.49723882E-02 0.45789990E+03</pdfrwt>
<totfact> 0.21307631E+04</totfact>
</mgrwt>
</event>
<event>
 7    0  0.4705418E-002  0.4564135E+03  0.7546771E-02  0.1025827E+00
         21   -1    0    0  502  501  0.00000000000E+00  0.00000000000E+00  0.22077527882E+04  0.22077527882E+04  0.00000000000E+00 0.  1.
         21   -1    0    0  501  502 -0.00000000000E+00 -0.00000000000E+00 -0.23588838063E+02  0.23588838063E+02  0.00000000000E+00 0.  1.
      99926    2    1    2    0    0  0.00000000000E+00  0.71054273576E-14  0.21841639501E+04  0.22313416262E+04  0.45641350989E+03 0.  0.
      99925    2    3    3    0    0 -0.52895827161E+02  0.48844413821E+02  0.93869701383E+03  0.97753975084E+03  0.26315040452E+03 0.  0.
         25    1    3    3    0    0  0.52895827161E+02 -0.48844413821E+02  0.12454669363E+04  0.12538018754E+04  0.12509000000E+03 0.  0.
         25    1    4    4    0    0 -0.51883729356E+02  0.49372613624E+02  0.58046104818E+03  0.59809038857E+03  0.12509000000E+03 0.  0.
         25    1    4    4    0    0 -0.10120978049E+01 -0.52819980280E+00  0.35823596566E+03  0.37944936227E+03  0.12509000000E+03 0.  0.
<mgrwt>
<rscale>  2 0.45641351E+03</rscale>
<asrwt>0</asrwt>
<pdfrwt beam="1">  1       21 0.32466939E+00 0.45641351E+03</pdfrwt>
<pdfrwt beam="2">  1       21 0.34689483E-02 0.45641351E+03</pdfrwt>
<totfact> 0.10174971E+04</totfact>
</mgrwt>
</event>
<event>
 7    0  0.4705418E-002  0.4378693E+03  0.7546771E-02  0.1031403E+00
         21   -1    0    0  502  501  0.00000000000E+00  0.00000000000E+00  0.91980612427E+03  0.91980612427E+03  0.00000000000E+00 0.  1.
         21   -1    0    0  501  502 -0.00000000000E+00 -0.00000000000E+00 -0.52111387887E+02  0.52111387887E+02  0.00000000000E+00 0.  1.
      99926    2    1    2    0    0  0.71054273576E-14  0.00000000000E+00  0.86769473638E+03  0.97191751216E+03  0.43786926689E+03 0.  0.
      99925    2    3    3    0    0 -0.44864941826E+02 -0.36427778692E+02  0.38473046673E+03  0.46968067566E+03  0.26313980885E+03 0.  0.
         25    1    4    4    0    0 -0.50436884327E+02 -0.27136868682E+02  0.15040971517E+03  0.20384032834E+03  0.12509000000E+03 0.  0.
         25    1    4    4    0    0  0.55719425011E+01 -0.92909100094E+01  0.23432075156E+03  0.26584034732E+03  0.12509000000E+03 0.  0.
         25    1    3    3    0    0  0.44864941826E+02  0.36427778692E+02  0.48296426966E+03  0.50223683649E+03  0.12509000000E+03 0.  0.
<mgrwt>
<rscale>  2 0.43786927E+03</rscale>
<asrwt>0</asrwt>
<pdfrwt beam="1">  1       21 0.13526560E+00 0.43786927E+03</pdfrwt>
<pdfrwt beam="2">  1       21 0.76634399E-02 0.43786927E+03</pdfrwt>
<totfact> 0.46142210E+04</totfact>
</mgrwt>
</event>
<event>
 7    0  0.4705418E-002  0.4533628E+03  0.7546771E-02  0.1026724E+00
         21   -1    0    0  502  501  0.00000000000E+00  0.00000000000E+00  0.55246619660E+02  0.55246619660E+02  0.00000000000E+00 0. -1.
         21   -1    0    0  501  502 -0.00000000000E+00 -0.00000000000E+00 -0.93009223627E+03  0.93009223627E+03  0.00000000000E+00 0. -1.
      99926    2    1    2    0    0 -0.35527136788E-14  0.14210854715E-13 -0.87484561661E+03  0.98533885593E+03  0.45336277759E+03 0.  0.
      99925    2    3    3    0    0 -0.23004165673E+02  0.96470613274E+02 -0.66261124851E+03  0.71977020950E+03  0.26302037368E+03 0.  0.
         25    1    4    4    0    0 -0.37665962824E+02  0.82041255464E+02 -0.37134239316E+03  0.40210965347E+03  0.12509000000E+03 0.  0.
         25    1    4    4    0    0  0.14661797152E+02  0.14429357810E+02 -0.29126885535E+03  0.31766055603E+03  0.12509000000E+03 0.  0.
         25    1    3    3    0    0  0.23004165673E+02 -0.96470613274E+02 -0.21223436810E+03  0.26556864643E+03  0.12509000000E+03 0.  0.
<mgrwt>
<rscale>  2 0.45336278E+03</rscale>
<asrwt>0</asrwt>
<pdfrwt beam="1">  1       21 0.81245032E-02 0.45336278E+03</pdfrwt>
<pdfrwt beam="2">  1       21 0.13677826E+00 0.45336278E+03</pdfrwt>
<totfact> 0.40254138E+04</totfact>
</mgrwt>
</event>
<event>
 7    0  0.4705418E-002  0.4483459E+03  0.7546771E-02  0.1028216E+00
         21   -1    0    0  502  501  0.00000000000E+00  0.00000000000E+00  0.91731550872E+02  0.91731550872E+02  0.00000000000E+00 0.  1.
         21   -1    0    0  501  502 -0.00000000000E+00 -0.00000000000E+00 -0.54783230921E+03  0.54783230921E+03  0.00000000000E+00 0.  1.
      99926    2    1    2    0    0  0.71054273576E-14  0.00000000000E+00 -0.45610075834E+03  0.63956386008E+03  0.44834588140E+03 0.  0.
      99925    2    3    3    0    0 -0.53810823365E+02 -0.80061374159E+02 -0.22342138432E+03  0.35832974491E+03  0.26301646863E+03 0.  0.
         25    1    3    3    0    0  0.53810823365E+02  0.80061374159E+02 -0.23267937402E+03  0.28123411517E+03  0.12509000000E+03 0.  0.
         25    1    4    4    0    0 -0.43213283313E+02 -0.28748945370E+01 -0.96130504665E+02  0.16359778391E+03  0.12509000000E+03 0.  0.
         25    1    4    4    0    0 -0.10597540052E+02 -0.77186479622E+02 -0.12729087965E+03  0.19473196100E+03  0.12509000000E+03 0.  0.
<mgrwt>
<rscale>  2 0.44834588E+03</rscale>
<asrwt>0</asrwt>
<pdfrwt beam="1">  1       21 0.13489934E-01 0.44834588E+03</pdfrwt>
<pdfrwt beam="2">  1       21 0.80563576E-01 0.44834588E+03</pdfrwt>
<totfact> 0.59362984E+04</totfact>
</mgrwt>
</event>
<event>
 7    0  0.4705418E-002  0.4540381E+03  0.7546771E-02  0.1026525E+00
         21   -1    0    0  502  501  0.00000000000E+00  0.00000000000E+00  0.10725013476E+03  0.10725013476E+03  0.00000000000E+00 0.  1.
         21   -1    0    0  501  502 -0.00000000000E+00 -0.00000000000E+00 -0.48053688151E+03  0.48053688151E+03  0.00000000000E+00 0.  1.
      99926    2    1    2    0    0  0.00000000000E+00  0.00000000000E+00 -0.37328674675E+03  0.58778701626E+03  0.45403808341E+03 0.  0.
      99925    2    3    3    0    0 -0.96688338003E+02  0.29981976762E+01 -0.16139455543E+03  0.32339444311E+03  0.26301737474E+03 0.  0.
         25    1    4    4    0    0 -0.61960166988E+02 -0.30057166340E+01 -0.12751319387E+03  0.18909050568E+03  0.12509000000E+03 0.  0.
         25    1    3    3    0    0  0.96688338003E+02 -0.29981976762E+01 -0.21189219132E+03  0.26439257315E+03  0.12509000000E+03 0.  0.
         25    1    4    4    0    0 -0.34728171015E+02  0.60039143101E+01 -0.33881361557E+02  0.13430393743E+03  0.12509000000E+03 0.  0.
<mgrwt>
<rscale>  2 0.45403808E+03</rscale>
<asrwt>0</asrwt>
<pdfrwt beam="1">  1       21 0.15772079E-01 0.45403808E+03</pdfrwt>
<pdfrwt beam="2">  1       21 0.70667189E-01 0.45403808E+03</pdfrwt>
<totfact> 0.59890422E+04</totfact>
</mgrwt>
</event>
<event>
 7    0  0.4705418E-002  0.4499658E+03  0.7546771E-02  0.1027732E+00
         21   -1    0    0  502  501  0.00000000000E+00  0.00000000000E+00  0.23568498291E+02  0.23568498291E+02  0.00000000000E+00 0.  1.
         21   -1    0    0  501  502 -0.00000000000E+00 -0.00000000000E+00 -0.21476676728E+04  0.21476676728E+04  0.00000000000E+00 0.  1.
      99926    2    1    2    0    0  0.35527136788E-14 -0.71054273576E-14 -0.21240991745E+04  0.21712361711E+04  0.44996578481E+03 0.  0.
      99925    2    3    3    0    0 -0.21110827864E+02  0.43932717651E+02 -0.18099646049E+04  0.18296168118E+04  0.26296398275E+03 0.  0.
         25    1    3    3    0    0  0.21110827864E+02 -0.43932717651E+02 -0.31413456963E+03  0.34161935933E+03  0.12509000000E+03 0.  0.
         25    1    4    4    0    0 -0.55769107365E+01  0.35616880641E+02 -0.11764068145E+04  0.11835878360E+04  0.12509000000E+03 0.  0.
         25    1    4    4    0    0 -0.15533917128E+02  0.83158370101E+01 -0.63355779034E+03  0.64602897576E+03  0.12509000000E+03 0.  0.
<mgrwt>
<rscale>  2 0.44996578E+03</rscale>
<asrwt>0</asrwt>
<pdfrwt beam="1">  1       21 0.34659550E-02 0.44996578E+03</pdfrwt>
<pdfrwt beam="2">  1       21 0.31583354E+00 0.44996578E+03</pdfrwt>
<totfact> 0.11555401E+04</totfact>
</mgrwt>
</event>
<event>
 7    0  0.4705418E-002  0.4442598E+03  0.7546771E-02  0.1029448E+00
         21   -1    0    0  502  501  0.00000000000E+00  0.00000000000E+00  0.19696026841E+03  0.19696026841E+03  0.00000000000E+00 0.  1.
         21   -1    0    0  501  502 -0.00000000000E+00 -0.00000000000E+00 -0.25051593622E+03  0.25051593622E+03  0.00000000000E+00 0.  1.
      99926    2    1    2    0    0  0.71054273576E-14  0.00000000000E+00 -0.53555667819E+02  0.44747620463E+03  0.44425977103E+03 0.  0.
      99925    2    3    3    0    0  0.46188542044E+02 -0.23529426989E+02  0.55368799156E+02  0.27369742872E+03  0.26297825617E+03 0.  0.
         25    1    4    4    0    0 -0.12239755197E+02 -0.24678042274E+02  0.42844368368E+02  0.13506282012E+03  0.12509000000E+03 0.  0.
         25    1    4    4    0    0  0.58428297240E+02  0.11486152859E+01  0.12524430788E+02  0.13863460860E+03  0.12509000000E+03 0.  0.
         25    1    3    3    0    0 -0.46188542044E+02  0.23529426989E+02 -0.10892446697E+03  0.17377877591E+03  0.12509000000E+03 0.  0.
<mgrwt>
<rscale>  2 0.44425977E+03</rscale>
<asrwt>0</asrwt>
<pdfrwt beam="1">  1       21 0.28964746E-01 0.44425977E+03</pdfrwt>
<pdfrwt beam="2">  1       21 0.36840579E-01 0.44425977E+03</pdfrwt>
<totfact> 0.75353327E+04</totfact>
</mgrwt>
</event>
<event>
 7    0  0.4705418E-002  0.4560225E+03  0.7546771E-02  0.1025941E+00
         21   -1    0    0  502  501  0.00000000000E+00  0.00000000000E+00  0.13351604877E+04  0.13351604877E+04  0.00000000000E+00 0.  1.
         21   -1    0    0  501  502 -0.00000000000E+00 -0.00000000000E+00 -0.38938485843E+02  0.38938485843E+02  0.00000000000E+00 0.  1.
      99926    2    1    2    0    0  0.00000000000E+00  0.88817841970E-15  0.12962220018E+04  0.13740989735E+04  0.45602248957E+03 0.  0.
      99925    2    3    3    0    0  0.11115267188E+03  0.70404741874E+01  0.90082692301E+03  0.94469326652E+03  0.26182386799E+03 0.  0.
         25    1    4    4    0    0  0.18040893655E+02  0.14257300792E+02  0.36109236636E+03  0.38283671404E+03  0.12509000000E+03 0.  0.
         25    1    4    4    0    0  0.93111778229E+02 -0.72168266041E+01  0.53973455665E+03  0.56185655248E+03  0.12509000000E+03 0.  0.
         25    1    3    3    0    0 -0.11115267188E+03 -0.70404741874E+01  0.39539507884E+03  0.42940570701E+03  0.12509000000E+03 0.  0.
<mgrwt>
<rscale>  2 0.45602249E+03</rscale>
<asrwt>0</asrwt>
<pdfrwt beam="1">  1       21 0.19634710E+00 0.45602249E+03</pdfrwt>
<pdfrwt beam="2">  1       21 0.57262488E-02 0.45602249E+03</pdfrwt>
<totfact> 0.26816736E+04</totfact>
</mgrwt>
</event>
<event>
 7    0  0.4705418E-002  0.4573403E+03  0.7546771E-02  0.1025555E+00
         21   -1    0    0  502  501  0.00000000000E+00  0.00000000000E+00  0.10560290041E+04  0.10560290041E+04  0.00000000000E+00 0.  1.
         21   -1    0    0  501  502 -0.00000000000E+00 -0.00000000000E+00 -0.49515730770E+02  0.49515730770E+02  0.00000000000E+00 0.  1.
      99926    2    1    2    0    0  0.00000000000E+00 -0.71054273576E-14  0.10065132733E+04  0.11055447348E+04  0.45734034526E+03 0.  0.
      99925    2    3    3    0    0  0.94061540926E+02  0.40866729909E+02  0.76020029581E+03  0.81086651359E+03  0.26283521459E+03 0.  0.
         25    1    4    4    0    0  0.66735212214E+02 -0.13651150036E+02  0.35948828578E+03  0.38667722736E+03  0.12509000000E+03 0.  0.
         25    1    4    4    0    0  0.27326328712E+02  0.54517879945E+02  0.40071201003E+03  0.42418928623E+03  0.12509000000E+03 0.  0.
         25    1    3    3    0    0 -0.94061540926E+02 -0.40866729909E+02  0.24631297748E+03  0.29467822123E+03  0.12509000000E+03 0.  0.
<mgrwt>
<rscale>  2 0.45734035E+03</rscale>
<asrwt>0</asrwt>
<pdfrwt beam="1">  1       21 0.15529837E+00 0.45734035E+03</pdfrwt>
<pdfrwt beam="2">  1       21 0.72817258E-02 0.45734035E+03</pdfrwt>
<totfact> 0.34664696E+04</totfact>
</mgrwt>
</event>
<event>
 7    0  0.4705418E-002  0.4494174E+03  0.7546771E-02  0.1027896E+00
         21   -1    0    0  502  501  0.00000000000E+00  0.00000000000E+00  0.86695665452E+02  0.86695665452E+02  0.00000000000E+00 0.  1.
         21   -1    0    0  501  502 -0.00000000000E+00 -0.00000000000E+00 -0.58242829124E+03  0.58242829124E+03  0.00000000000E+00 0.  1.
      99926    2    1    2    0    0  0.00000000000E+00  0.00000000000E+00 -0.49573262579E+03  0.66912395669E+03  0.44941743752E+03 0.  0.
      99925    2    3    3    0    0 -0.65361600719E+02 -0.72391003475E+02 -0.38198154204E+03  0.47393324640E+03  0.26304035307E+03 0.  0.
         25    1    4    4    0    0 -0.45289141747E+02 -0.51094844461E+02 -0.26148848835E+03  0.29780115368E+03  0.12509000000E+03 0.  0.
         25    1    3    3    0    0  0.65361600719E+02  0.72391003475E+02 -0.11375108375E+03  0.19519071030E+03  0.12509000000E+03 0.  0.
         25    1    4    4    0    0 -0.20072458972E+02 -0.21296159014E+02 -0.12049305369E+03  0.17613209272E+03  0.12509000000E+03 0.  0.
<mgrwt>
<rscale>  2 0.44941744E+03</rscale>
<asrwt>0</asrwt>
<pdfrwt beam="1">  1       21 0.12749363E-01 0.44941744E+03</pdfrwt>
<pdfrwt beam="2">  1       21 0.85651217E-01 0.44941744E+03</pdfrwt>
<totfact> 0.57081548E+04</totfact>
</mgrwt>
</event>
<event>
 7    0  0.4705418E-002  0.4394102E+03  0.7546771E-02  0.1030928E+00
         21   -1    0    0  502  501  0.00000000000E+00  0.00000000000E+00  0.20774466885E+04  0.20774466885E+04  0.00000000000E+00 0.  1.
         21   -1    0    0  501  502 -0.00000000000E+00 -0.00000000000E+00 -0.23235411876E+02  0.23235411876E+02  0.00000000000E+00 0.  1.
      99926    2    1    2    0    0  0.00000000000E+00  0.35527136788E-14  0.20542112766E+04  0.21006821004E+04  0.43941019313E+03 0.  0.
      99925    2    3    3    0    0  0.11050147904E+02 -0.10419988904E+02  0.84813374024E+03  0.88803985560E+03  0.26277987341E+03 0.  0.
         25    1    4    4    0    0  0.18087274488E+02  0.22336548661E+02  0.51148248657E+03  0.52734041479E+03  0.12509000000E+03 0.  0.
         25    1    4    4    0    0 -0.70371265843E+01 -0.32756537565E+02  0.33665125367E+03  0.36069944081E+03  0.12509000000E+03 0.  0.
         25    1    3    3    0    0 -0.11050147904E+02  0.10419988904E+02  0.12060775364E+04  0.12126422448E+04  0.12509000000E+03 0.  0.
<mgrwt>
<rscale>  2 0.43941019E+03</rscale>
<asrwt>0</asrwt>
<pdfrwt beam="1">  1       21 0.30550674E+00 0.43941019E+03</pdfrwt>
<pdfrwt beam="2">  1       21 0.34169738E-02 0.43941019E+03</pdfrwt>
<totfact> 0.13722158E+04</totfact>
</mgrwt>
</event>
<event>
 7    0  0.4705418E-002  0.4594939E+03  0.7546771E-02  0.1024928E+00
         21   -1    0    0  502  501  0.00000000000E+00  0.00000000000E+00  0.11006260906E+03  0.11006260906E+03  0.00000000000E+00 0.  1.
         21   -1    0    0  501  502 -0.00000000000E+00 -0.00000000000E+00 -0.47957858945E+03  0.47957858945E+03  0.00000000000E+00 0.  1.
      99926    2    1    2    0    0  0.00000000000E+00  0.00000000000E+00 -0.36951598039E+03  0.58964119852E+03  0.45949394253E+03 0.  0.
      99925    2    3    3    0    0  0.20764043539E+02  0.95905563068E+02 -0.31401798353E+03  0.42124714195E+03  0.26308332918E+03 0.  0.
         25    1    4    4    0    0  0.62056090851E+01  0.44989627006E+02 -0.94939732296E+02  0.16347365840E+03  0.12509000000E+03 0.  0.
         25    1    4    4    0    0  0.14558434454E+02  0.50915936062E+02 -0.21907825123E+03  0.25777348355E+03  0.12509000000E+03 0.  0.
         25    1    3    3    0    0 -0.20764043539E+02 -0.95905563068E+02 -0.55497996863E+02  0.16839405657E+03  0.12509000000E+03 0.  0.
<mgrwt>
<rscale>  2 0.45949394E+03</rscale>
<asrwt>0</asrwt>
<pdfrwt beam="1">  1       21 0.16185678E-01 0.45949394E+03</pdfrwt>
<pdfrwt beam="2">  1       21 0.70526262E-01 0.45949394E+03</pdfrwt>
<totfact> 0.57259392E+04</totfact>
</mgrwt>
</event>
<event>
 7    0  0.4705418E-002  0.4527935E+03  0.7546771E-02  0.1026892E+00
         21   -1    0    0  502  501  0.00000000000E+00  0.00000000000E+00  0.21019242024E+03  0.21019242024E+03  0.00000000000E+00 0. -1.
         21   -1    0    0  501  502 -0.00000000000E+00 -0.00000000000E+00 -0.24385031312E+03  0.24385031312E+03  0.00000000000E+00 0. -1.
      99926    2    1    2    0    0  0.14210854715E-13 -0.35527136788E-14 -0.33657892886E+02  0.45404273336E+03  0.45279349594E+03 0.  0.
      99925    2    3    3    0    0  0.10219224852E+03  0.10938092662E+02 -0.62469650700E+02  0.28960270473E+03  0.26344709487E+03 0.  0.
         25    1    3    3    0    0 -0.10219224852E+03 -0.10938092662E+02  0.28811757813E+02  0.16444002863E+03  0.12509000000E+03 0.  0.
         25    1    4    4    0    0  0.29482492906E+02 -0.30854543448E+02 -0.30633296045E+02  0.13567286820E+03  0.12509000000E+03 0.  0.
         25    1    4    4    0    0  0.72709755615E+02  0.41792636110E+02 -0.31836354655E+02  0.15392983652E+03  0.12509000000E+03 0.  0.
<mgrwt>
<rscale>  2 0.45279350E+03</rscale>
<asrwt>0</asrwt>
<pdfrwt beam="1">  1       21 0.30910650E-01 0.45279350E+03</pdfrwt>
<pdfrwt beam="2">  1       21 0.35860340E-01 0.45279350E+03</pdfrwt>
<totfact> 0.69837435E+04</totfact>
</mgrwt>
</event>
<event>
 7    0  0.4705418E-002  0.4550885E+03  0.7546771E-02  0.1026215E+00
         21   -1    0    0  502  501  0.00000000000E+00  0.00000000000E+00  0.46213741253E+03  0.46213741253E+03  0.00000000000E+00 0. -1.
         21   -1    0    0  501  502 -0.00000000000E+00 -0.00000000000E+00 -0.11203679823E+03  0.11203679823E+03  0.00000000000E+00 0. -1.
      99926    2    1    2    0    0  0.00000000000E+00  0.00000000000E+00  0.35010061430E+03  0.57417421076E+03  0.45508854542E+03 0.  0.
      99925    2    3    3    0    0  0.10455276436E+03  0.25665530245E+02  0.17610784205E+03  0.33435971396E+03  0.26304457096E+03 0.  0.
         25    1    4    4    0    0  0.95715053556E+02  0.14796939176E+02  0.10343767315E+03  0.18901635171E+03  0.12509000000E+03 0.  0.
         25    1    3    3    0    0 -0.10455276436E+03 -0.25665530245E+02  0.17399277225E+03  0.23981449680E+03  0.12509000000E+03 0.  0.
         25    1    4    4    0    0  0.88377108053E+01  0.10868591069E+02  0.72670168904E+02  0.14534336226E+03  0.12509000000E+03 0.  0.
<mgrwt>
<rscale>  2 0.45508855E+03</rscale>
<asrwt>0</asrwt>
<pdfrwt beam="1">  1       21 0.67961384E-01 0.45508855E+03</pdfrwt>
<pdfrwt beam="2">  1       21 0.16476000E-01 0.45508855E+03</pdfrwt>
<totfact> 0.60254559E+04</totfact>
</mgrwt>
</event>
<event>
 7    0  0.4705418E-002  0.4563002E+03  0.7546771E-02  0.1025860E+00
         21   -1    0    0  502  501  0.00000000000E+00  0.00000000000E+00  0.54229211404E+02  0.54229211404E+02  0.00000000000E+00 0. -1.
         21   -1    0    0  501  502 -0.00000000000E+00 -0.00000000000E+00 -0.95986024896E+03  0.95986024896E+03  0.00000000000E+00 0. -1.
      99926    2    1    2    0    0  0.00000000000E+00  0.00000000000E+00 -0.90563103756E+03  0.10140894604E+04  0.45630018347E+03 0.  0.
      99925    2    3    3    0    0  0.15347892997E+02 -0.92130108486E+02 -0.42234656353E+03  0.50621653763E+03  0.26297347497E+03 0.  0.
         25    1    4    4    0    0 -0.12974108352E+02 -0.75703437841E+02 -0.18747564916E+03  0.23810494560E+03  0.12509000000E+03 0.  0.
         25    1    3    3    0    0 -0.15347892997E+02  0.92130108486E+02 -0.48328447403E+03  0.50787292274E+03  0.12509000000E+03 0.  0.
         25    1    4    4    0    0  0.28322001349E+02 -0.16426670645E+02 -0.23487091436E+03  0.26811159203E+03  0.12509000000E+03 0.  0.
<mgrwt>
<rscale>  2 0.45630018E+03</rscale>
<asrwt>0</asrwt>
<pdfrwt beam="1">  1       21 0.79748846E-02 0.45630018E+03</pdfrwt>
<pdfrwt beam="2">  1       21 0.14115591E+00 0.45630018E+03</pdfrwt>
<totfact> 0.38233559E+04</totfact>
</mgrwt>
</event>
<event>
 7    0  0.4705418E-002  0.4578590E+03  0.7546771E-02  0.1025404E+00
         21   -1    0    0  502  501  0.00000000000E+00  0.00000000000E+00  0.59154597974E+03  0.59154597974E+03  0.00000000000E+00 0.  1.
         21   -1    0    0  501  502 -0.00000000000E+00 -0.00000000000E+00 -0.88596166329E+02  0.88596166329E+02  0.00000000000E+00 0.  1.
      99926    2    1    2    0    0 -0.35527136788E-14  0.00000000000E+00  0.50294981341E+03  0.68014214607E+03  0.45785895650E+03 0.  0.
      99925    2    3    3    0    0 -0.22942484510E+02 -0.82294099593E+02  0.19862227672E+03  0.34019886534E+03  0.26265144726E+03 0.  0.
         25    1    3    3    0    0  0.22942484510E+02  0.82294099593E+02  0.30432753669E+03  0.33994328073E+03  0.12509000000E+03 0.  0.
         25    1    4    4    0    0  0.12867613550E+02 -0.69416708411E+02  0.12332597773E+03  0.18931735200E+03  0.12509000000E+03 0.  0.
         25    1    4    4    0    0 -0.35810098060E+02 -0.12877391182E+02  0.75296298986E+02  0.15088151334E+03  0.12509000000E+03 0.  0.
<mgrwt>
<rscale>  2 0.45785896E+03</rscale>
<asrwt>0</asrwt>
<pdfrwt beam="1">  1       21 0.86992054E-01 0.45785896E+03</pdfrwt>
<pdfrwt beam="2">  1       21 0.13028848E-01 0.45785896E+03</pdfrwt>
<totfact> 0.52795638E+04</totfact>
</mgrwt>
</event>
<event>
 7    0  0.4705418E-002  0.4559628E+03  0.7546771E-02  0.1025959E+00
         21   -1    0    0  502  501  0.00000000000E+00  0.00000000000E+00  0.13047132898E+03  0.13047132898E+03  0.00000000000E+00 0. -1.
         21   -1    0    0  501  502 -0.00000000000E+00 -0.00000000000E+00 -0.39836738657E+03  0.39836738657E+03  0.00000000000E+00 0. -1.
      99926    2    1    2    0    0  0.00000000000E+00 -0.71054273576E-14 -0.26789605759E+03  0.52883871555E+03  0.45596281580E+03 0.  0.
      99925    2    3    3    0    0 -0.96903793748E+02  0.41520714384E+02 -0.11827024676E+03  0.30714138509E+03  0.26312290702E+03 0.  0.
         25    1    4    4    0    0 -0.79995548760E+02  0.24033952905E+02 -0.33532841015E+02  0.15410671056E+03  0.12509000000E+03 0.  0.
         25    1    3    3    0    0  0.96903793748E+02 -0.41520714384E+02 -0.14962581082E+03  0.22169733045E+03  0.12509000000E+03 0.  0.
         25    1    4    4    0    0 -0.16908244988E+02  0.17486761480E+02 -0.84737405749E+02  0.15303467453E+03  0.12509000000E+03 0.  0.
<mgrwt>
<rscale>  2 0.45596282E+03</rscale>
<asrwt>0</asrwt>
<pdfrwt beam="1">  1       21 0.19186960E-01 0.45596282E+03</pdfrwt>
<pdfrwt beam="2">  1       21 0.58583439E-01 0.45596282E+03</pdfrwt>
<totfact> 0.62804545E+04</totfact>
</mgrwt>
</event>
<event>
 7    0  0.4705418E-002  0.4636544E+03  0.7546771E-02  0.1023727E+00
         21   -1    0    0  502  501  0.00000000000E+00  0.00000000000E+00  0.24938812265E+03  0.24938812265E+03  0.00000000000E+00 0. -1.
         21   -1    0    0  501  502 -0.00000000000E+00 -0.00000000000E+00 -0.21550284429E+03  0.21550284429E+03  0.00000000000E+00 0. -1.
      99926    2    1    2    0    0 -0.71054273576E-14  0.00000000000E+00  0.33885278362E+02  0.46489096695E+03  0.46365439614E+03 0.  0.
      99925    2    3    3    0    0  0.42733251825E+02 -0.29489846387E+02 -0.88501290447E+02  0.28234847278E+03  0.26304448259E+03 0.  0.
         25    1    4    4    0    0  0.69943097919E+01  0.23231980285E+02 -0.35161238349E+02  0.13218345607E+03  0.12509000000E+03 0.  0.
         25    1    3    3    0    0 -0.42733251825E+02  0.29489846387E+02  0.12238656881E+03  0.18254249417E+03  0.12509000000E+03 0.  0.
         25    1    4    4    0    0  0.35738942033E+02 -0.52721826672E+02 -0.53340052098E+02  0.15016501671E+03  0.12509000000E+03 0.  0.
<mgrwt>
<rscale>  2 0.46365440E+03</rscale>
<asrwt>0</asrwt>
<pdfrwt beam="1">  1       21 0.36674724E-01 0.46365440E+03</pdfrwt>
<pdfrwt beam="2">  1       21 0.31691595E-01 0.46365440E+03</pdfrwt>
<totfact> 0.63339260E+04</totfact>
</mgrwt>
</event>
<event>
 7    0  0.4705418E-002  0.4563136E+03  0.7546771E-02  0.1025856E+00
         21   -1    0    0  502  501  0.00000000000E+00  0.00000000000E+00  0.72361249197E+03  0.72361249197E+03  0.00000000000E+00 0. -1.
         21   -1    0    0  501  502 -0.00000000000E+00 -0.00000000000E+00 -0.71938413795E+02  0.71938413795E+02  0.00000000000E+00 0. -1.
      99926    2    1    2    0    0  0.00000000000E+00  0.00000000000E+00  0.65167407818E+03  0.79555090577E+03  0.45631364159E+03 0.  0.
      99925    2    3    3    0    0  0.66219122192E+02  0.90427594619E+02  0.36981713345E+03  0.46744578937E+03  0.26301850087E+03 0.  0.
         25    1    3    3    0    0 -0.66219122192E+02 -0.90427594619E+02  0.28185694473E+03  0.32810511639E+03  0.12509000000E+03 0.  0.
         25    1    4    4    0    0  0.14994220147E+02  0.17399443218E+02  0.21179568662E+03  0.24704754246E+03  0.12509000000E+03 0.  0.
         25    1    4    4    0    0  0.51224902045E+02  0.73028151401E+02  0.15802144682E+03  0.22039824691E+03  0.12509000000E+03 0.  0.
<mgrwt>
<rscale>  2 0.45631364E+03</rscale>
<asrwt>0</asrwt>
<pdfrwt beam="1">  1       21 0.10641360E+00 0.45631364E+03</pdfrwt>
<pdfrwt beam="2">  1       21 0.10579179E-01 0.45631364E+03</pdfrwt>
<totfact> 0.47489277E+04</totfact>
</mgrwt>
</event>
<event>
 7    0  0.4705418E-002  0.4540453E+03  0.7546771E-02  0.1026523E+00
         21   -1    0    0  502  501  0.00000000000E+00  0.00000000000E+00  0.10086150623E+03  0.10086150623E+03  0.00000000000E+00 0. -1.
         21   -1    0    0  501  502 -0.00000000000E+00 -0.00000000000E+00 -0.51099059096E+03  0.51099059096E+03  0.00000000000E+00 0. -1.
      99926    2    1    2    0    0  0.00000000000E+00  0.00000000000E+00 -0.41012908474E+03  0.61185209719E+03  0.45404528705E+03 0.  0.
      99925    2    3    3    0    0 -0.13737620861E+02 -0.10600243999E+03 -0.30458675667E+03  0.41637337552E+03  0.26299896576E+03 0.  0.
         25    1    4    4    0    0 -0.16508289855E+02 -0.89167229362E+02 -0.13655639353E+03  0.20620008521E+03  0.12509000000E+03 0.  0.
         25    1    4    4    0    0  0.27706689943E+01 -0.16835210632E+02 -0.16803036314E+03  0.21017329031E+03  0.12509000000E+03 0.  0.
         25    1    3    3    0    0  0.13737620861E+02  0.10600243999E+03 -0.10554232807E+03  0.19547872167E+03  0.12509000000E+03 0.  0.
<mgrwt>
<rscale>  2 0.45404529E+03</rscale>
<asrwt>0</asrwt>
<pdfrwt beam="1">  1       21 0.14832574E-01 0.45404529E+03</pdfrwt>
<pdfrwt beam="2">  1       21 0.75145677E-01 0.45404529E+03</pdfrwt>
<totfact> 0.58393697E+04</totfact>
</mgrwt>
</event>
<event>
 7    0  0.4705418E-002  0.4572058E+03  0.7546771E-02  0.1025595E+00
         21   -1    0    0  502  501  0.00000000000E+00  0.00000000000E+00  0.12485523439E+04  0.12485523439E+04  0.00000000000E+00 0.  1.
         21   -1    0    0  501  502 -0.00000000000E+00 -0.00000000000E+00 -0.41855894023E+02  0.41855894023E+02  0.00000000000E+00 0.  1.
      99926    2    1    2    0    0  0.00000000000E+00  0.00000000000E+00  0.12066964498E+04  0.12904082379E+04  0.45720575057E+03 0.  0.
      99925    2    3    3    0    0  0.89237712581E+02 -0.71283835205E+01  0.96288987928E+03  0.10021317471E+04  0.26286295994E+03 0.  0.
         25    1    3    3    0    0 -0.89237712581E+02  0.71283835205E+01  0.24380657056E+03  0.28827649080E+03  0.12509000000E+03 0.  0.
         25    1    4    4    0    0  0.77612123120E+02 -0.25065632695E+02  0.57119647757E+03  0.59039381068E+03  0.12509000000E+03 0.  0.
         25    1    4    4    0    0  0.11625589461E+02  0.17937249174E+02  0.39169340171E+03  0.41173793642E+03  0.12509000000E+03 0.  0.
<mgrwt>
<rscale>  2 0.45720575E+03</rscale>
<asrwt>0</asrwt>
<pdfrwt beam="1">  1       21 0.18361061E+00 0.45720575E+03</pdfrwt>
<pdfrwt beam="2">  1       21 0.61552794E-02 0.45720575E+03</pdfrwt>
<totfact> 0.28895587E+04</totfact>
</mgrwt>
</event>
<event>
 7    0  0.4705418E-002  0.4518403E+03  0.7546771E-02  0.1027175E+00
         21   -1    0    0  502  501  0.00000000000E+00  0.00000000000E+00  0.91399905553E+02  0.91399905553E+02  0.00000000000E+00 0.  1.
         21   -1    0    0  501  502 -0.00000000000E+00 -0.00000000000E+00 -0.55842417878E+03  0.55842417878E+03  0.00000000000E+00 0.  1.
      99926    2    1    2    0    0  0.00000000000E+00  0.00000000000E+00 -0.46702427323E+03  0.64982408434E+03  0.45184031338E+03 0.  0.
      99925    2    3    3    0    0  0.43304921576E+02  0.97702408034E+02 -0.33380419935E+03  0.43812577789E+03  0.26288377085E+03 0.  0.
         25    1    4    4    0    0  0.19110952746E+02  0.61508640827E+02 -0.23093848691E+03  0.27042306531E+03  0.12509000000E+03 0.  0.
         25    1    4    4    0    0  0.24193968830E+02  0.36193767207E+02 -0.10286571244E+03  0.16770271258E+03  0.12509000000E+03 0.  0.
         25    1    3    3    0    0 -0.43304921576E+02 -0.97702408034E+02 -0.13322007388E+03  0.21169830645E+03  0.12509000000E+03 0.  0.
<mgrwt>
<rscale>  2 0.45184031E+03</rscale>
<asrwt>0</asrwt>
<pdfrwt beam="1">  1       21 0.13441163E-01 0.45184031E+03</pdfrwt>
<pdfrwt beam="2">  1       21 0.82121203E-01 0.45184031E+03</pdfrwt>
<totfact> 0.57122199E+04</totfact>
</mgrwt>
</event>
<event>
 7    0  0.4705418E-002  0.4543309E+03  0.7546771E-02  0.1026438E+00
         21   -1    0    0  502  501  0.00000000000E+00  0.00000000000E+00  0.16113558298E+03  0.16113558298E+03  0.00000000000E+00 0. -1.
         21   -1    0    0  501  502 -0.00000000000E+00 -0.00000000000E+00 -0.32025295961E+03  0.32025295961E+03  0.00000000000E+00 0. -1.
      99926    2    1    2    0    0 -0.14210854715E-13  0.00000000000E+00 -0.15911737663E+03  0.48138854259E+03  0.45433092498E+03 0.  0.
      99925    2    3    3    0    0 -0.10624628015E+03  0.27168557969E+02 -0.12669536676E+03  0.31190374265E+03  0.26307000234E+03 0.  0.
         25    1    4    4    0    0 -0.13962219095E+02  0.71153468584E+01 -0.37315655474E+02  0.13147447648E+03  0.12509000000E+03 0.  0.
         25    1    4    4    0    0 -0.92284061053E+02  0.20053211110E+02 -0.89379711289E+02  0.18042926617E+03  0.12509000000E+03 0.  0.
         25    1    3    3    0    0  0.10624628015E+03 -0.27168557969E+02 -0.32422009868E+02  0.16948479994E+03  0.12509000000E+03 0.  0.
<mgrwt>
<rscale>  2 0.45433092E+03</rscale>
<asrwt>0</asrwt>
<pdfrwt beam="1">  1       21 0.23696409E-01 0.45433092E+03</pdfrwt>
<pdfrwt beam="2">  1       21 0.47096023E-01 0.45433092E+03</pdfrwt>
<totfact> 0.66954051E+04</totfact>
</mgrwt>
</event>
<event>
 7    0  0.4705418E-002  0.4543108E+03  0.7546771E-02  0.1026444E+00
         21   -1    0    0  502  501  0.00000000000E+00  0.00000000000E+00  0.31281890693E+03  0.31281890693E+03  0.00000000000E+00 0. -1.
         21   -1    0    0  501  502 -0.00000000000E+00 -0.00000000000E+00 -0.16495029529E+03  0.16495029529E+03  0.00000000000E+00 0. -1.
      99926    2    1    2    0    0  0.00000000000E+00  0.00000000000E+00  0.14786861164E+03  0.47776920221E+03  0.45431077939E+03 0.  0.
      99925    2    3    3    0    0 -0.62466873693E+02 -0.85706205564E+02  0.53757837745E+02  0.28868718338E+03  0.26306410008E+03 0.  0.
         25    1    3    3    0    0  0.62466873693E+02  0.85706205564E+02  0.94110773896E+02  0.18908201883E+03  0.12509000000E+03 0.  0.
         25    1    4    4    0    0 -0.59122094879E+02 -0.13478675945E+02  0.30913914445E+02  0.14240883054E+03  0.12509000000E+03 0.  0.
         25    1    4    4    0    0 -0.33447788145E+01 -0.72227529619E+02  0.22843923300E+02  0.14627835285E+03  0.12509000000E+03 0.  0.
<mgrwt>
<rscale>  2 0.45431078E+03</rscale>
<asrwt>0</asrwt>
<pdfrwt beam="1">  1       21 0.46002780E-01 0.45431078E+03</pdfrwt>
<pdfrwt beam="2">  1       21 0.24257396E-01 0.45431078E+03</pdfrwt>
<totfact> 0.67229857E+04</totfact>
</mgrwt>
</event>
<event>
 7    0  0.4705418E-002  0.4571302E+03  0.7546771E-02  0.1025617E+00
         21   -1    0    0  502  501  0.00000000000E+00  0.00000000000E+00  0.21889015247E+03  0.21889015247E+03  0.00000000000E+00 0.  1.
         21   -1    0    0  501  502 -0.00000000000E+00 -0.00000000000E+00 -0.23866768341E+03  0.23866768341E+03  0.00000000000E+00 0.  1.
      99926    2    1    2    0    0  0.17763568394E-14  0.00000000000E+00 -0.19777530934E+02  0.45755783588E+03  0.45713020295E+03 0.  0.
      99925    2    3    3    0    0 -0.88419111838E+01  0.67775035796E+02  0.80458165795E+02  0.28329843766E+03  0.26289323587E+03 0.  0.
         25    1    4    4    0    0  0.27055484503E+02  0.53884363282E+02  0.24723350306E+02  0.14104707015E+03  0.12509000000E+03 0.  0.
         25    1    3    3    0    0  0.88419111838E+01 -0.67775035796E+02 -0.10023569673E+03  0.17425939822E+03  0.12509000000E+03 0.  0.
         25    1    4    4    0    0 -0.35897395686E+02  0.13890672514E+02  0.55734815489E+02  0.14225136751E+03  0.12509000000E+03 0.  0.
<mgrwt>
<rscale>  2 0.45713020E+03</rscale>
<asrwt>0</asrwt>
<pdfrwt beam="1">  1       21 0.32189728E-01 0.45713020E+03</pdfrwt>
<pdfrwt beam="2">  1       21 0.35098189E-01 0.45713020E+03</pdfrwt>
<totfact> 0.67209218E+04</totfact>
</mgrwt>
</event>
<event>
 7    0  0.4705418E-002  0.4466457E+03  0.7546771E-02  0.1028727E+00
         21   -1    0    0  502  501  0.00000000000E+00  0.00000000000E+00  0.18071025425E+03  0.18071025425E+03  0.00000000000E+00 0. -1.
         21   -1    0    0  501  502 -0.00000000000E+00 -0.00000000000E+00 -0.27598381551E+03  0.27598381551E+03  0.00000000000E+00 0. -1.
      99926    2    1    2    0    0  0.14210854715E-13 -0.35527136788E-14 -0.95273561265E+02  0.45669406976E+03  0.44664574539E+03 0.  0.
      99925    2    3    3    0    0  0.10178815004E+03 -0.26304477419E+02 -0.57657129539E+02  0.28901802181E+03  0.26297208849E+03 0.  0.
         25    1    4    4    0    0  0.79149983460E+02  0.11297369900E+01 -0.33065297747E+01  0.14806902926E+03  0.12509000000E+03 0.  0.
         25    1    3    3    0    0 -0.10178815004E+03  0.26304477419E+02 -0.37616431726E+02  0.16767604795E+03  0.12509000000E+03 0.  0.
         25    1    4    4    0    0  0.22638166576E+02 -0.27434214409E+02 -0.54350599764E+02  0.14094899255E+03  0.12509000000E+03 0.  0.
<mgrwt>
<rscale>  2 0.44664575E+03</rscale>
<asrwt>0</asrwt>
<pdfrwt beam="1">  1       21 0.26575038E-01 0.44664575E+03</pdfrwt>
<pdfrwt beam="2">  1       21 0.40585855E-01 0.44664575E+03</pdfrwt>
<totfact> 0.73168385E+04</totfact>
</mgrwt>
</event>
<event>
 7    0  0.4705418E-002  0.4500020E+03  0.7546771E-02  0.1027721E+00
         21   -1    0    0  502  501  0.00000000000E+00  0.00000000000E+00  0.78618512264E+02  0.78618512264E+02  0.00000000000E+00 0. -1.
         21   -1    0    0  501  502 -0.00000000000E+00 -0.00000000000E+00 -0.64393816532E+03  0.64393816532E+03  0.00000000000E+00 0. -1.
      99926    2    1    2    0    0 -0.14210854715E-13  0.00000000000E+00 -0.56531965305E+03  0.72255667758E+03  0.45000204687E+03 0.  0.
      99925    2    3    3    0    0 -0.10484702514E+03 -0.19342453410E+02 -0.32511023302E+03  0.43149808768E+03  0.26291996286E+03 0.  0.
         25    1    4    4    0    0 -0.21349068650E+02  0.15119457448E+01 -0.10847069447E+03  0.16694750184E+03  0.12509000000E+03 0.  0.
         25    1    4    4    0    0 -0.83497956491E+02 -0.20854399155E+02 -0.21663953856E+03  0.26455058584E+03  0.12509000000E+03 0.  0.
         25    1    3    3    0    0  0.10484702514E+03  0.19342453410E+02 -0.24020942003E+03  0.29105858990E+03  0.12509000000E+03 0.  0.
<mgrwt>
<rscale>  2 0.45000205E+03</rscale>
<asrwt>0</asrwt>
<pdfrwt beam="1">  1       21 0.11561546E-01 0.45000205E+03</pdfrwt>
<pdfrwt beam="2">  1       21 0.94696789E-01 0.45000205E+03</pdfrwt>
<totfact> 0.53778363E+04</totfact>
</mgrwt>
</event>
<event>
 7    0  0.4705418E-002  0.4670616E+03  0.7546771E-02  0.1022753E+00
         21   -1    0    0  502  501  0.00000000000E+00  0.00000000000E+00  0.36221659009E+03  0.36221659009E+03  0.00000000000E+00 0.  1.
         21   -1    0    0  501  502 -0.00000000000E+00 -0.00000000000E+00 -0.15056358673E+03  0.15056358673E+03  0.00000000000E+00 0.  1.
      99926    2    1    2    0    0  0.00000000000E+00  0.00000000000E+00  0.21165300336E+03  0.51278017682E+03  0.46706157614E+03 0.  0.
      99925    2    3    3    0    0 -0.34712543649E+02 -0.11329360252E+03  0.93461360768E+02  0.30383718570E+03  0.26370742955E+03 0.  0.
         25    1    4    4    0    0  0.23967703538E+02 -0.59041826110E+02  0.52132574706E+02  0.14975213350E+03  0.12509000000E+03 0.  0.
         25    1    3    3    0    0  0.34712543649E+02  0.11329360252E+03  0.11819164259E+03  0.20894299112E+03  0.12509000000E+03 0.  0.
         25    1    4    4    0    0 -0.58680247187E+02 -0.54251776413E+02  0.41328786062E+02  0.15408505220E+03  0.12509000000E+03 0.  0.
<mgrwt>
<rscale>  2 0.46706158E+03</rscale>
<asrwt>0</asrwt>
<pdfrwt beam="1">  1       21 0.53267146E-01 0.46706158E+03</pdfrwt>
<pdfrwt beam="2">  1       21 0.22141704E-01 0.46706158E+03</pdfrwt>
<totfact> 0.58570578E+04</totfact>
</mgrwt>
</event>
<event>
 7    0  0.4705418E-002  0.4494625E+03  0.7546771E-02  0.1027882E+00
         21   -1    0    0  502  501  0.00000000000E+00  0.00000000000E+00  0.13629613983E+03  0.13629613983E+03  0.00000000000E+00 0.  1.
         21   -1    0    0  501  502 -0.00000000000E+00 -0.00000000000E+00 -0.37054712442E+03  0.37054712442E+03  0.00000000000E+00 0.  1.
      99926    2    1    2    0    0  0.00000000000E+00  0.00000000000E+00 -0.23425098459E+03  0.50684326425E+03  0.44946253540E+03 0.  0.
      99925    2    3    3    0    0 -0.49191545844E+02 -0.24166963477E+02 -0.25291485406E+03  0.36900387064E+03  0.26304768168E+03 0.  0.
         25    1    4    4    0    0  0.50105662086E+01 -0.39927455720E+02 -0.12752178076E+03  0.18310821981E+03  0.12509000000E+03 0.  0.
         25    1    3    3    0    0  0.49191545844E+02  0.24166963477E+02  0.18663869463E+02  0.13783939361E+03  0.12509000000E+03 0.  0.
         25    1    4    4    0    0 -0.54202112053E+02  0.15760492243E+02 -0.12539307329E+03  0.18589565083E+03  0.12509000000E+03 0.  0.
<mgrwt>
<rscale>  2 0.44946254E+03</rscale>
<asrwt>0</asrwt>
<pdfrwt beam="1">  1       21 0.20043550E-01 0.44946254E+03</pdfrwt>
<pdfrwt beam="2">  1       21 0.54492224E-01 0.44946254E+03</pdfrwt>
<totfact> 0.67720027E+04</totfact>
</mgrwt>
</event>
<event>
 7    0  0.4705418E-002  0.4479436E+03  0.7546771E-02  0.1028337E+00
         21   -1    0    0  502  501  0.00000000000E+00  0.00000000000E+00  0.89818218920E+03  0.89818218920E+03  0.00000000000E+00 0.  1.
         21   -1    0    0  501  502 -0.00000000000E+00 -0.00000000000E+00 -0.55849891104E+02  0.55849891104E+02  0.00000000000E+00 0.  1.
      99926    2    1    2    0    0  0.00000000000E+00  0.00000000000E+00  0.84233229810E+03  0.95403208031E+03  0.44794364582E+03 0.  0.
      99925    2    3    3    0    0  0.15968280574E+02  0.94465990445E+02  0.43892448021E+03  0.52094527033E+03  0.26372422343E+03 0.  0.
         25    1    4    4    0    0  0.23960327272E+02  0.88334218276E+02  0.24923241644E+03  0.29349844447E+03  0.12509000000E+03 0.  0.
         25    1    4    4    0    0 -0.79920466974E+01  0.61317721693E+01  0.18969206377E+03  0.22744682587E+03  0.12509000000E+03 0.  0.
         25    1    3    3    0    0 -0.15968280574E+02 -0.94465990445E+02  0.40340781789E+03  0.43308680997E+03  0.12509000000E+03 0.  0.
<mgrwt>
<rscale>  2 0.44794365E+03</rscale>
<asrwt>0</asrwt>
<pdfrwt beam="1">  1       21 0.13208561E+00 0.44794365E+03</pdfrwt>
<pdfrwt beam="2">  1       21 0.82132198E-02 0.44794365E+03</pdfrwt>
<totfact> 0.43319225E+04</totfact>
</mgrwt>
</event>
<event>
 7    0  0.4705418E-002  0.4577849E+03  0.7546771E-02  0.1025426E+00
         21   -1    0    0  502  501  0.00000000000E+00  0.00000000000E+00  0.40852288514E+03  0.40852288514E+03  0.00000000000E+00 0. -1.
         21   -1    0    0  501  502 -0.00000000000E+00 -0.00000000000E+00 -0.12824679798E+03  0.12824679798E+03  0.00000000000E+00 0. -1.
      99926    2    1    2    0    0 -0.35527136788E-14  0.35527136788E-14  0.28027608716E+03  0.53676968312E+03  0.45778489237E+03 0.  0.
      99925    2    3    3    0    0  0.17209242886E+02  0.27427262784E+02  0.45676518110E+02  0.26893973953E+03  0.26304719426E+03 0.  0.
         25    1    4    4    0    0 -0.12136120737E+02  0.37062226648E+02  0.49420654023E+02  0.14003857759E+03  0.12509000000E+03 0.  0.
         25    1    4    4    0    0  0.29345363624E+02 -0.96349638634E+01 -0.37441359129E+01  0.12890116194E+03  0.12509000000E+03 0.  0.
         25    1    3    3    0    0 -0.17209242886E+02 -0.27427262784E+02  0.23459956905E+03  0.26782994359E+03  0.12509000000E+03 0.  0.
<mgrwt>
<rscale>  2 0.45778489E+03</rscale>
<asrwt>0</asrwt>
<pdfrwt beam="1">  1       21 0.60076895E-01 0.45778489E+03</pdfrwt>
<pdfrwt beam="2">  1       21 0.18859823E-01 0.45778489E+03</pdfrwt>
<totfact> 0.61384494E+04</totfact>
</mgrwt>
</event>
<event>
 7    0  0.4705418E-002  0.4591531E+03  0.7546771E-02  0.1025027E+00
         21   -1    0    0  502  501  0.00000000000E+00  0.00000000000E+00  0.82687819649E+02  0.82687819649E+02  0.00000000000E+00 0.  1.
         21   -1    0    0  501  502 -0.00000000000E+00 -0.00000000000E+00 -0.63740218955E+03  0.63740218955E+03  0.00000000000E+00 0.  1.
      99926    2    1    2    0    0  0.35527136788E-14 -0.14210854715E-13 -0.55471436990E+03  0.72009000920E+03  0.45915312171E+03 0.  0.
      99925    2    3    3    0    0  0.20794000419E+02  0.81192371137E+02 -0.22105772958E+03  0.35403147110E+03  0.26352831183E+03 0.  0.
         25    1    4    4    0    0 -0.15960193994E+02  0.31269957186E+02 -0.14631659847E+03  0.19567471248E+03  0.12509000000E+03 0.  0.
         25    1    3    3    0    0 -0.20794000419E+02 -0.81192371137E+02 -0.33365664033E+03  0.36605853810E+03  0.12509000000E+03 0.  0.
         25    1    4    4    0    0  0.36754194413E+02  0.49922413951E+02 -0.74741131101E+02  0.15835675862E+03  0.12509000000E+03 0.  0.
<mgrwt>
<rscale>  2 0.45915312E+03</rscale>
<asrwt>0</asrwt>
<pdfrwt beam="1">  1       21 0.12159973E-01 0.45915312E+03</pdfrwt>
<pdfrwt beam="2">  1       21 0.93735618E-01 0.45915312E+03</pdfrwt>
<totfact> 0.50166785E+04</totfact>
</mgrwt>
</event>
<event>
 7    0  0.4705418E-002  0.4215139E+03  0.7546771E-02  0.1036575E+00
         21   -1    0    0  502  501  0.00000000000E+00  0.00000000000E+00  0.30399394380E+03  0.30399394380E+03  0.00000000000E+00 0. -1.
         21   -1    0    0  501  502 -0.00000000000E+00 -0.00000000000E+00 -0.14611636500E+03  0.14611636500E+03  0.00000000000E+00 0. -1.
      99926    2    1    2    0    0 -0.17763568394E-14  0.71054273576E-14  0.15787757880E+03  0.45011030880E+03  0.42151389088E+03 0.  0.
      99925    2    3    3    0    0  0.13417910573E+02 -0.59466504056E+02  0.15139705343E+03  0.31080556826E+03  0.26450468436E+03 0.  0.
         25    1    4    4    0    0 -0.50803148804E+01  0.50303604380E+01  0.98291981611E+02  0.15924803256E+03  0.12509000000E+03 0.  0.
         25    1    4    4    0    0  0.18498225453E+02 -0.64496864494E+02  0.53105071816E+02  0.15155753570E+03  0.12509000000E+03 0.  0.
         25    1    3    3    0    0 -0.13417910573E+02  0.59466504056E+02  0.64805253767E+01  0.13930474054E+03  0.12509000000E+03 0.  0.
<mgrwt>
<rscale>  2 0.42151389E+03</rscale>
<asrwt>0</asrwt>
<pdfrwt beam="1">  1       21 0.44704992E-01 0.42151389E+03</pdfrwt>
<pdfrwt beam="2">  1       21 0.21487701E-01 0.42151389E+03</pdfrwt>
<totfact> 0.90768552E+04</totfact>
</mgrwt>
</event>
<event>
 7    0  0.4705418E-002  0.4627588E+03  0.7546771E-02  0.1023984E+00
         21   -1    0    0  502  501  0.00000000000E+00  0.00000000000E+00  0.14781340297E+04  0.14781340297E+04  0.00000000000E+00 0. -1.
         21   -1    0    0  501  502 -0.00000000000E+00 -0.00000000000E+00 -0.36218929169E+02  0.36218929169E+02  0.00000000000E+00 0. -1.
      99926    2    1    2    0    0  0.00000000000E+00  0.00000000000E+00  0.14419151006E+04  0.15143529589E+04  0.46275882153E+03 0.  0.
      99925    2    3    3    0    0 -0.94283713783E+02  0.44281029326E+01  0.11464670452E+04  0.11799189770E+04  0.26251300844E+03 0.  0.
         25    1    4    4    0    0 -0.40682211766E+02 -0.32437894380E+02  0.48335401269E+03  0.50198194094E+03  0.12509000000E+03 0.  0.
         25    1    3    3    0    0  0.94283713783E+02 -0.44281029326E+01  0.29544805533E+03  0.33443398195E+03  0.12509000000E+03 0.  0.
         25    1    4    4    0    0 -0.53601502017E+02  0.36865997312E+02  0.66311303254E+03  0.67793703601E+03  0.12509000000E+03 0.  0.
<mgrwt>
<rscale>  2 0.46275882E+03</rscale>
<asrwt>0</asrwt>
<pdfrwt beam="1">  1       21 0.21737261E+00 0.46275882E+03</pdfrwt>
<pdfrwt beam="2">  1       21 0.53263141E-02 0.46275882E+03</pdfrwt>
<totfact> 0.22069335E+04</totfact>
</mgrwt>
</event>
<event>
 7    0  0.4705418E-002  0.4681308E+03  0.7546771E-02  0.1022449E+00
         21   -1    0    0  502  501  0.00000000000E+00  0.00000000000E+00  0.39036906938E+03  0.39036906938E+03  0.00000000000E+00 0.  1.
         21   -1    0    0  501  502 -0.00000000000E+00 -0.00000000000E+00 -0.14034566161E+03  0.14034566161E+03  0.00000000000E+00 0.  1.
      99926    2    1    2    0    0 -0.17763568394E-14  0.00000000000E+00  0.25002340777E+03  0.53071473099E+03  0.46813077366E+03 0.  0.
      99925    2    3    3    0    0 -0.97384786566E+01 -0.79020450771E+02  0.26491889741E+03  0.38168972195E+03  0.26299420532E+03 0.  0.
         25    1    4    4    0    0  0.15667076114E+00 -0.10877356815E+02  0.16531232354E+03  0.20759097729E+03  0.12509000000E+03 0.  0.
         25    1    3    3    0    0  0.97384786566E+01  0.79020450771E+02 -0.14895489633E+02  0.14902500904E+03  0.12509000000E+03 0.  0.
         25    1    4    4    0    0 -0.98951494177E+01 -0.68143093956E+02  0.99606573866E+02  0.17409874466E+03  0.12509000000E+03 0.  0.
<mgrwt>
<rscale>  2 0.46813077E+03</rscale>
<asrwt>0</asrwt>
<pdfrwt beam="1">  1       21 0.57407216E-01 0.46813077E+03</pdfrwt>
<pdfrwt beam="2">  1       21 0.20639068E-01 0.46813077E+03</pdfrwt>
<totfact> 0.56990524E+04</totfact>
</mgrwt>
</event>
<event>
 7    0  0.4705418E-002  0.4539428E+03  0.7546771E-02  0.1026553E+00
         21   -1    0    0  502  501  0.00000000000E+00  0.00000000000E+00  0.31292775385E+03  0.31292775385E+03  0.00000000000E+00 0. -1.
         21   -1    0    0  501  502 -0.00000000000E+00 -0.00000000000E+00 -0.16462592104E+03  0.16462592104E+03  0.00000000000E+00 0. -1.
      99926    2    1    2    0    0  0.14210854715E-13  0.00000000000E+00  0.14830183281E+03  0.47755367489E+03  0.45394281445E+03 0.  0.
      99925    2    3    3    0    0  0.97442517710E+02 -0.54805128492E+02  0.10299737918E+03  0.30377609295E+03  0.26300723975E+03 0.  0.
         25    1    3    3    0    0 -0.97442517710E+02  0.54805128492E+02  0.45304453624E+02  0.17377758194E+03  0.12509000000E+03 0.  0.
         25    1    4    4    0    0  0.85556518303E+02 -0.47023987717E+02  0.43510603448E+02  0.16453526661E+03  0.12509000000E+03 0.  0.
         25    1    4    4    0    0  0.11885999407E+02 -0.77811407750E+01  0.59486775734E+02  0.13924082634E+03  0.12509000000E+03 0.  0.
<mgrwt>
<rscale>  2 0.45394281E+03</rscale>
<asrwt>0</asrwt>
<pdfrwt beam="1">  1       21 0.46018787E-01 0.45394281E+03</pdfrwt>
<pdfrwt beam="2">  1       21 0.24209694E-01 0.45394281E+03</pdfrwt>
<totfact> 0.67442729E+04</totfact>
</mgrwt>
</event>
<event>
 7    0  0.4705418E-002  0.4552380E+03  0.7546771E-02  0.1026171E+00
         21   -1    0    0  502  501  0.00000000000E+00  0.00000000000E+00  0.29731642899E+03  0.29731642899E+03  0.00000000000E+00 0. -1.
         21   -1    0    0  501  502 -0.00000000000E+00 -0.00000000000E+00 -0.17426015688E+03  0.17426015688E+03  0.00000000000E+00 0. -1.
      99926    2    1    2    0    0  0.22204460493E-15 -0.71054273576E-14  0.12305627212E+03  0.47157658587E+03  0.45523799296E+03 0.  0.
      99925    2    3    3    0    0  0.18670484275E+01 -0.32542941175E+02  0.18873538074E+03  0.32658078490E+03  0.26452114515E+03 0.  0.
         25    1    4    4    0    0  0.27486947524E+02 -0.49995000064E+02  0.91732032377E+02  0.16527947900E+03  0.12509000000E+03 0.  0.
         25    1    4    4    0    0 -0.25619899096E+02  0.17452058889E+02  0.97003348364E+02  0.16130130589E+03  0.12509000000E+03 0.  0.
         25    1    3    3    0    0 -0.18670484275E+01  0.32542941175E+02 -0.65679108623E+02  0.14499580097E+03  0.12509000000E+03 0.  0.
<mgrwt>
<rscale>  2 0.45523799E+03</rscale>
<asrwt>0</asrwt>
<pdfrwt beam="1">  1       21 0.43723004E-01 0.45523799E+03</pdfrwt>
<pdfrwt beam="2">  1       21 0.25626494E-01 0.45523799E+03</pdfrwt>
<totfact> 0.67191688E+04</totfact>
</mgrwt>
</event>
<event>
 7    0  0.4705418E-002  0.4613593E+03  0.7546771E-02  0.1024388E+00
         21   -1    0    0  502  501  0.00000000000E+00  0.00000000000E+00  0.61727554092E+02  0.61727554092E+02  0.00000000000E+00 0. -1.
         21   -1    0    0  501  502 -0.00000000000E+00 -0.00000000000E+00 -0.86206408671E+03  0.86206408671E+03  0.00000000000E+00 0. -1.
      99926    2    1    2    0    0  0.00000000000E+00 -0.71054273576E-14 -0.80033653262E+03  0.92379164081E+03  0.46135932870E+03 0.  0.
      99925    2    3    3    0    0 -0.93460222649E+02 -0.49258053454E+02 -0.39086233862E+03  0.48279527721E+03  0.26297669650E+03 0.  0.
         25    1    3    3    0    0  0.93460222649E+02  0.49258053454E+02 -0.40947419401E+03  0.44099636360E+03  0.12509000000E+03 0.  0.
         25    1    4    4    0    0 -0.23284922995E+02 -0.54546642632E+02 -0.16764677191E+03  0.21741773638E+03  0.12509000000E+03 0.  0.
         25    1    4    4    0    0 -0.70175299654E+02  0.52885891779E+01 -0.22321556670E+03  0.26537754083E+03  0.12509000000E+03 0.  0.
<mgrwt>
<rscale>  2 0.46135933E+03</rscale>
<asrwt>0</asrwt>
<pdfrwt beam="1">  1       21 0.90775815E-02 0.46135933E+03</pdfrwt>
<pdfrwt beam="2">  1       21 0.12677413E+00 0.46135933E+03</pdfrwt>
<totfact> 0.40183427E+04</totfact>
</mgrwt>
</event>
<event>
 7    0  0.4705418E-002  0.4552709E+03  0.7546771E-02  0.1026162E+00
         21   -1    0    0  502  501  0.00000000000E+00  0.00000000000E+00  0.19794702035E+03  0.19794702035E+03  0.00000000000E+00 0.  1.
         21   -1    0    0  501  502 -0.00000000000E+00 -0.00000000000E+00 -0.26177664602E+03  0.26177664602E+03  0.00000000000E+00 0.  1.
      99926    2    1    2    0    0 -0.14210854715E-13  0.00000000000E+00 -0.63829625669E+02  0.45972366636E+03  0.45527093944E+03 0.  0.
      99925    2    3    3    0    0  0.74864530619E+02 -0.25062811745E+02 -0.12241654436E+03  0.30062376813E+03  0.26297527860E+03 0.  0.
         25    1    3    3    0    0 -0.74864530619E+02  0.25062811745E+02  0.58586918687E+02  0.15909989824E+03  0.12509000000E+03 0.  0.
         25    1    4    4    0    0  0.48489965003E+02  0.48553837832E+01 -0.10007136326E+03  0.16744144440E+03  0.12509000000E+03 0.  0.
         25    1    4    4    0    0  0.26374565615E+02 -0.29918195528E+02 -0.22345181092E+02  0.13318232373E+03  0.12509000000E+03 0.  0.
<mgrwt>
<rscale>  2 0.45527094E+03</rscale>
<asrwt>0</asrwt>
<pdfrwt beam="1">  1       21 0.29109856E-01 0.45527094E+03</pdfrwt>
<pdfrwt beam="2">  1       21 0.38496565E-01 0.45527094E+03</pdfrwt>
<totfact> 0.68053557E+04</totfact>
</mgrwt>
</event>
<event>
 7    0  0.4705418E-002  0.4526791E+03  0.7546771E-02  0.1026926E+00
         21   -1    0    0  502  501  0.00000000000E+00  0.00000000000E+00  0.70220284926E+03  0.70220284926E+03  0.00000000000E+00 0. -1.
         21   -1    0    0  501  502 -0.00000000000E+00 -0.00000000000E+00 -0.72955530667E+02  0.72955530667E+02  0.00000000000E+00 0. -1.
      99926    2    1    2    0    0  0.71054273576E-14 -0.35527136788E-14  0.62924731859E+03  0.77515837993E+03  0.45267905409E+03 0.  0.
      99925    2    3    3    0    0 -0.56689263042E+02 -0.23632115327E+02  0.55509143550E+03  0.61730163311E+03  0.26298793708E+03 0.  0.
         25    1    4    4    0    0  0.56155871691E+01 -0.33665908130E+02  0.25242932223E+03  0.28378336634E+03  0.12509000000E+03 0.  0.
         25    1    3    3    0    0  0.56689263042E+02  0.23632115327E+02  0.74155883091E+02  0.15785674682E+03  0.12509000000E+03 0.  0.
         25    1    4    4    0    0 -0.62304850211E+02  0.10033792803E+02  0.30266211327E+03  0.33351826677E+03  0.12509000000E+03 0.  0.
<mgrwt>
<rscale>  2 0.45267905E+03</rscale>
<asrwt>0</asrwt>
<pdfrwt beam="1">  1       21 0.10326512E+00 0.45267905E+03</pdfrwt>
<pdfrwt beam="2">  1       21 0.10728755E-01 0.45267905E+03</pdfrwt>
<totfact> 0.49892643E+04</totfact>
</mgrwt>
</event>
<event>
 7    0  0.4705418E-002  0.4563231E+03  0.7546771E-02  0.1025853E+00
         21   -1    0    0  502  501  0.00000000000E+00  0.00000000000E+00  0.16791958390E+03  0.16791958390E+03  0.00000000000E+00 0. -1.
         21   -1    0    0  501  502 -0.00000000000E+00 -0.00000000000E+00 -0.31001555276E+03  0.31001555276E+03  0.00000000000E+00 0. -1.
      99926    2    1    2    0    0  0.00000000000E+00  0.00000000000E+00 -0.14209596886E+03  0.47793513667E+03  0.45632305497E+03 0.  0.
      99925    2    3    3    0    0  0.94670382049E+02 -0.31963378837E+02 -0.14768911944E+03  0.31773860032E+03  0.26298593747E+03 0.  0.
         25    1    4    4    0    0  0.27863905829E+02 -0.16129614436E+02 -0.11123643619E+03  0.17046294186E+03  0.12509000000E+03 0.  0.
         25    1    4    4    0    0  0.66806476219E+02 -0.15833764401E+02 -0.36452683250E+02  0.14727565846E+03  0.12509000000E+03 0.  0.
         25    1    3    3    0    0 -0.94670382049E+02  0.31963378837E+02  0.55931505839E+01  0.16019653635E+03  0.12509000000E+03 0.  0.
<mgrwt>
<rscale>  2 0.45632305E+03</rscale>
<asrwt>0</asrwt>
<pdfrwt beam="1">  1       21 0.24694057E-01 0.45632305E+03</pdfrwt>
<pdfrwt beam="2">  1       21 0.45590522E-01 0.45632305E+03</pdfrwt>
<totfact> 0.66153329E+04</totfact>
</mgrwt>
</event>
<event>
 7    0  0.4705418E-002  0.4549353E+03  0.7546771E-02  0.1026260E+00
         21   -1    0    0  502  501  0.00000000000E+00  0.00000000000E+00  0.83808224679E+02  0.83808224679E+02  0.00000000000E+00 0. -1.
         21   -1    0    0  501  502 -0.00000000000E+00 -0.00000000000E+00 -0.61738009040E+03  0.61738009040E+03  0.00000000000E+00 0. -1.
      99926    2    1    2    0    0  0.00000000000E+00  0.00000000000E+00 -0.53357186572E+03  0.70118831508E+03  0.45493528915E+03 0.  0.
      99925    2    3    3    0    0 -0.82346099095E+02 -0.52231832637E+02 -0.24713101444E+03  0.37376670040E+03  0.26290447629E+03 0.  0.
         25    1    4    4    0    0 -0.94738766843E+01 -0.10155674356E+02 -0.82244191723E+02  0.15034795387E+03  0.12509000000E+03 0.  0.
         25    1    3    3    0    0  0.82346099095E+02  0.52231832637E+02 -0.28644085128E+03  0.32742161468E+03  0.12509000000E+03 0.  0.
         25    1    4    4    0    0 -0.72872222411E+02 -0.42076158282E+02 -0.16488682272E+03  0.22341874653E+03  0.12509000000E+03 0.  0.
<mgrwt>
<rscale>  2 0.45493529E+03</rscale>
<asrwt>0</asrwt>
<pdfrwt beam="1">  1       21 0.12324739E-01 0.45493529E+03</pdfrwt>
<pdfrwt beam="2">  1       21 0.90791190E-01 0.45493529E+03</pdfrwt>
<totfact> 0.52865400E+04</totfact>
</mgrwt>
</event>
<event>
 7    0  0.4705418E-002  0.4710997E+03  0.7546771E-02  0.1021610E+00
         21   -1    0    0  502  501  0.00000000000E+00  0.00000000000E+00  0.24102205877E+02  0.24102205877E+02  0.00000000000E+00 0.  1.
         21   -1    0    0  501  502 -0.00000000000E+00 -0.00000000000E+00 -0.23020187293E+04  0.23020187293E+04  0.00000000000E+00 0.  1.
      99926    2    1    2    0    0  0.00000000000E+00  0.00000000000E+00 -0.22779165234E+04  0.23261209352E+04  0.47109968943E+03 0.  0.
      99925    2    3    3    0    0 -0.41070060089E+02 -0.11987151330E+03 -0.13379346951E+04  0.13694238696E+04  0.26305238422E+03 0.  0.
         25    1    3    3    0    0  0.41070060089E+02  0.11987151330E+03 -0.93998182832E+03  0.95669706554E+03  0.12509000000E+03 0.  0.
         25    1    4    4    0    0 -0.19586412877E+02 -0.99296823791E+02 -0.83117876363E+03  0.84661037791E+03  0.12509000000E+03 0.  0.
         25    1    4    4    0    0 -0.21483647212E+02 -0.20574689507E+02 -0.50675593147E+03  0.52281349172E+03  0.12509000000E+03 0.  0.
<mgrwt>
<rscale>  2 0.47109969E+03</rscale>
<asrwt>0</asrwt>
<pdfrwt beam="1">  1       21 0.35444405E-02 0.47109969E+03</pdfrwt>
<pdfrwt beam="2">  1       21 0.33853232E+00 0.47109969E+03</pdfrwt>
<totfact> 0.80267717E+03</totfact>
</mgrwt>
</event>
<event>
 7    0  0.4705418E-002  0.4565170E+03  0.7546771E-02  0.1025796E+00
         21   -1    0    0  502  501  0.00000000000E+00  0.00000000000E+00  0.20613286169E+04  0.20613286169E+04  0.00000000000E+00 0.  1.
         21   -1    0    0  501  502 -0.00000000000E+00 -0.00000000000E+00 -0.25275903174E+02  0.25275903174E+02  0.00000000000E+00 0.  1.
      99926    2    1    2    0    0  0.00000000000E+00  0.00000000000E+00  0.20360527137E+04  0.20866045200E+04  0.45651699872E+03 0.  0.
      99925    2    3    3    0    0 -0.75271996160E+02 -0.45586894644E+02  0.16149234653E+04  0.16385627917E+04  0.26299464871E+03 0.  0.
         25    1    3    3    0    0  0.75271996160E+02  0.45586894644E+02  0.42112924843E+03  0.44804172836E+03  0.12509000000E+03 0.  0.
         25    1    4    4    0    0 -0.68780256393E+02 -0.37028470785E+02  0.10135747255E+04  0.10242475598E+04  0.12509000000E+03 0.  0.
         25    1    4    4    0    0 -0.64917397673E+01 -0.85584238590E+01  0.60134873971E+03  0.61431523191E+03  0.12509000000E+03 0.  0.
<mgrwt>
<rscale>  2 0.45651700E+03</rscale>
<asrwt>0</asrwt>
<pdfrwt beam="1">  1       21 0.30313645E+00 0.45651700E+03</pdfrwt>
<pdfrwt beam="2">  1       21 0.37170460E-02 0.45651700E+03</pdfrwt>
<totfact> 0.12202618E+04</totfact>
</mgrwt>
</event>
<event>
 7    0  0.4705418E-002  0.4276939E+03  0.7546771E-02  0.1034591E+00
         21   -1    0    0  502  501  0.00000000000E+00  0.00000000000E+00  0.73674812158E+02  0.73674812158E+02  0.00000000000E+00 0.  1.
         21   -1    0    0  501  502 -0.00000000000E+00 -0.00000000000E+00 -0.62070765644E+03  0.62070765644E+03  0.00000000000E+00 0.  1.
      99926    2    1    2    0    0  0.00000000000E+00  0.00000000000E+00 -0.54703284428E+03  0.69438246860E+03  0.42769390921E+03 0.  0.
      99925    2    3    3    0    0 -0.81261386164E+02  0.85499558968E+01 -0.31706647112E+03  0.42014068565E+03  0.26326893855E+03 0.  0.
         25    1    4    4    0    0 -0.60693116715E+01  0.11559700308E+02 -0.11192572632E+03  0.16836074224E+03  0.12509000000E+03 0.  0.
         25    1    4    4    0    0 -0.75192074493E+02 -0.30097444116E+01 -0.20514074480E+03  0.25177994342E+03  0.12509000000E+03 0.  0.
         25    1    3    3    0    0  0.81261386164E+02 -0.85499558968E+01 -0.22996637316E+03  0.27424178294E+03  0.12509000000E+03 0.  0.
<mgrwt>
<rscale>  2 0.42769391E+03</rscale>
<asrwt>0</asrwt>
<pdfrwt beam="1">  1       21 0.10834531E-01 0.42769391E+03</pdfrwt>
<pdfrwt beam="2">  1       21 0.91280536E-01 0.42769391E+03</pdfrwt>
<totfact> 0.66362568E+04</totfact>
</mgrwt>
</event>
<event>
 7    0  0.4705418E-002  0.4558541E+03  0.7546771E-02  0.1025991E+00
         21   -1    0    0  502  501  0.00000000000E+00  0.00000000000E+00  0.26506235033E+03  0.26506235033E+03  0.00000000000E+00 0.  1.
         21   -1    0    0  501  502 -0.00000000000E+00 -0.00000000000E+00 -0.19599442460E+03  0.19599442460E+03  0.00000000000E+00 0.  1.
      99926    2    1    2    0    0  0.22204460493E-15  0.00000000000E+00  0.69067925732E+02  0.46105677493E+03  0.45585411191E+03 0.  0.
      99925    2    3    3    0    0 -0.17515309691E+01  0.32596145269E+02  0.15397035444E+03  0.30639098347E+03  0.26287447224E+03 0.  0.
         25    1    4    4    0    0 -0.31604974402E+02 -0.38830818048E+01  0.56240545504E+02  0.14079936005E+03  0.12509000000E+03 0.  0.
         25    1    3    3    0    0  0.17515309691E+01 -0.32596145269E+02 -0.84902428711E+02  0.15466579146E+03  0.12509000000E+03 0.  0.
         25    1    4    4    0    0  0.29853443433E+02  0.36479227074E+02  0.97729808940E+02  0.16559162342E+03  0.12509000000E+03 0.  0.
<mgrwt>
<rscale>  2 0.45585411E+03</rscale>
<asrwt>0</asrwt>
<pdfrwt beam="1">  1       21 0.38979757E-01 0.45585411E+03</pdfrwt>
<pdfrwt beam="2">  1       21 0.28822710E-01 0.45585411E+03</pdfrwt>
<totfact> 0.67641719E+04</totfact>
</mgrwt>
</event>
<event>
 7    0  0.4705418E-002  0.4532447E+03  0.7546771E-02  0.1026759E+00
         21   -1    0    0  502  501  0.00000000000E+00  0.00000000000E+00  0.23707174780E+03  0.23707174780E+03  0.00000000000E+00 0. -1.
         21   -1    0    0  501  502 -0.00000000000E+00 -0.00000000000E+00 -0.21663352086E+03  0.21663352086E+03  0.00000000000E+00 0. -1.
      99926    2    1    2    0    0  0.35527136788E-14  0.22204460493E-15  0.20438226942E+02  0.45370526865E+03  0.45324469074E+03 0.  0.
      99925    2    3    3    0    0 -0.18031908957E+02  0.94682997818E+00 -0.97096426402E+02  0.28111341176E+03  0.26319382216E+03 0.  0.
         25    1    4    4    0    0  0.46072209757E+01  0.31069104162E+01 -0.72351997384E+01  0.12542222926E+03  0.12509000000E+03 0.  0.
         25    1    4    4    0    0 -0.22639129933E+02 -0.21600804380E+01 -0.89861226664E+02  0.15569118250E+03  0.12509000000E+03 0.  0.
         25    1    3    3    0    0  0.18031908957E+02 -0.94682997818E+00  0.11753465334E+03  0.17259185689E+03  0.12509000000E+03 0.  0.
<mgrwt>
<rscale>  2 0.45324469E+03</rscale>
<asrwt>0</asrwt>
<pdfrwt beam="1">  1       21 0.34863492E-01 0.45324469E+03</pdfrwt>
<pdfrwt beam="2">  1       21 0.31857871E-01 0.45324469E+03</pdfrwt>
<totfact> 0.69610598E+04</totfact>
</mgrwt>
</event>
<event>
 7    0  0.4705418E-002  0.4243197E+03  0.7546771E-02  0.1035669E+00
         21   -1    0    0  502  501  0.00000000000E+00  0.00000000000E+00  0.78889768861E+03  0.78889768861E+03  0.00000000000E+00 0.  1.
         21   -1    0    0  501  502 -0.00000000000E+00 -0.00000000000E+00 -0.57056587746E+02  0.57056587746E+02  0.00000000000E+00 0.  1.
      99926    2    1    2    0    0  0.00000000000E+00 -0.88817841970E-15  0.73184110086E+03  0.84595427635E+03  0.42431973884E+03 0.  0.
      99925    2    3    3    0    0  0.79091400357E+02 -0.25667687615E+01  0.43934530715E+03  0.51813826797E+03  0.26302267566E+03 0.  0.
         25    1    3    3    0    0 -0.79091400357E+02  0.25667687615E+01  0.29249579371E+03  0.32781600838E+03  0.12509000000E+03 0.  0.
         25    1    4    4    0    0  0.90647671548E-02 -0.14056278832E+02  0.18853792134E+03  0.22669723188E+03  0.12509000000E+03 0.  0.
         25    1    4    4    0    0  0.79082335590E+02  0.11489510071E+02  0.25080738580E+03  0.29144103609E+03  0.12509000000E+03 0.  0.
<mgrwt>
<rscale>  2 0.42431974E+03</rscale>
<asrwt>0</asrwt>
<pdfrwt beam="1">  1       21 0.11601436E+00 0.42431974E+03</pdfrwt>
<pdfrwt beam="2">  1       21 0.83906752E-02 0.42431974E+03</pdfrwt>
<totfact> 0.58470575E+04</totfact>
</mgrwt>
</event>
<event>
 6    0  0.4705418E-002  0.4566681E+03  0.7546771E-02  0.1025752E+00
         21   -1    0    0  502  501  0.00000000000E+00  0.00000000000E+00  0.19113485917E+04  0.19113485917E+04  0.00000000000E+00 0. -1.
         21   -1    0    0  501  502 -0.00000000000E+00 -0.00000000000E+00 -0.27277300675E+02  0.27277300675E+02  0.00000000000E+00 0. -1.
      99926    2    1    2    0    0 -0.14210854715E-13  0.88817841970E-15  0.18840712910E+04  0.19386258924E+04  0.45666806427E+03 0.  0.
         25    1    3    3    0    0 -0.21409198371E+02  0.29254897780E+02  0.68823381436E+03  0.70044806671E+03  0.12509000000E+03 0.  0.
         25    1    3    3    0    0  0.10906368910E+03 -0.66643077872E+01  0.58423403158E+03  0.60738473230E+03  0.12509000000E+03 0.  0.
         25    1    3    3    0    0 -0.87654490733E+02 -0.22590589993E+02  0.61160344510E+03  0.63079309339E+03  0.12509000000E+03 0.  0.
<mgrwt>
<rscale>  2 0.45666806E+03</rscale>
<asrwt>0</asrwt>
<pdfrwt beam="1">  1       21 0.28108058E+00 0.45666806E+03</pdfrwt>
<pdfrwt beam="2">  1       21 0.40113690E-02 0.45666806E+03</pdfrwt>
<totfact> 0.14548647E+04</totfact>
</mgrwt>
</event>
<event>
 7    0  0.4705418E-002  0.4533490E+03  0.7546771E-02  0.1026728E+00
         21   -1    0    0  502  501  0.00000000000E+00  0.00000000000E+00  0.10536797276E+04  0.10536797276E+04  0.00000000000E+00 0. -1.
         21   -1    0    0  501  502 -0.00000000000E+00 -0.00000000000E+00 -0.48763697888E+02  0.48763697888E+02  0.00000000000E+00 0. -1.
      99926    2    1    2    0    0  0.00000000000E+00  0.14210854715E-13  0.10049160297E+04  0.11024434255E+04  0.45334896010E+03 0.  0.
      99925    2    3    3    0    0  0.15544812530E+02  0.90834865161E+02  0.78615099972E+03  0.83411850981E+03  0.26311153550E+03 0.  0.
         25    1    4    4    0    0  0.46297537704E+02  0.60177160661E+02  0.40550135138E+03  0.43109582082E+03  0.12509000000E+03 0.  0.
         25    1    4    4    0    0 -0.30752725174E+02  0.30657704500E+02  0.38064964834E+03  0.40302268898E+03  0.12509000000E+03 0.  0.
         25    1    3    3    0    0 -0.15544812530E+02 -0.90834865161E+02  0.21876502996E+03  0.26832491565E+03  0.12509000000E+03 0.  0.
<mgrwt>
<rscale>  2 0.45334896E+03</rscale>
<asrwt>0</asrwt>
<pdfrwt beam="1">  1       21 0.15495289E+00 0.45334896E+03</pdfrwt>
<pdfrwt beam="2">  1       21 0.71711327E-02 0.45334896E+03</pdfrwt>
<totfact> 0.35869345E+04</totfact>
</mgrwt>
</event>
<event>
 7    0  0.4705418E-002  0.4526314E+03  0.7546771E-02  0.1026940E+00
         21   -1    0    0  502  501  0.00000000000E+00  0.00000000000E+00  0.12825288624E+03  0.12825288624E+03  0.00000000000E+00 0.  1.
         21   -1    0    0  501  502 -0.00000000000E+00 -0.00000000000E+00 -0.39935783083E+03  0.39935783083E+03  0.00000000000E+00 0.  1.
      99926    2    1    2    0    0  0.14210854715E-13  0.00000000000E+00 -0.27110494459E+03  0.52761071706E+03  0.45263139283E+03 0.  0.
      99925    2    3    3    0    0 -0.91228457073E+02  0.54513936724E+02 -0.20799869963E+03  0.35175763369E+03  0.26301249616E+03 0.  0.
         25    1    4    4    0    0 -0.41698838056E+01  0.19224355469E+02 -0.10455431605E+03  0.16421351004E+03  0.12509000000E+03 0.  0.
         25    1    4    4    0    0 -0.87058573268E+02  0.35289581255E+02 -0.10344438357E+03  0.18754412365E+03  0.12509000000E+03 0.  0.
         25    1    3    3    0    0  0.91228457073E+02 -0.54513936724E+02 -0.63106244964E+02  0.17585308337E+03  0.12509000000E+03 0.  0.
<mgrwt>
<rscale>  2 0.45263139E+03</rscale>
<asrwt>0</asrwt>
<pdfrwt beam="1">  1       21 0.18860719E-01 0.45263139E+03</pdfrwt>
<pdfrwt beam="2">  1       21 0.58729092E-01 0.45263139E+03</pdfrwt>
<totfact> 0.64572367E+04</totfact>
</mgrwt>
</event>
<event>
 7    0  0.4705418E-002  0.4591895E+03  0.7546771E-02  0.1025017E+00
         21   -1    0    0  502  501  0.00000000000E+00  0.00000000000E+00  0.47516824020E+03  0.47516824020E+03  0.00000000000E+00 0.  1.
         21   -1    0    0  501  502 -0.00000000000E+00 -0.00000000000E+00 -0.11093702276E+03  0.11093702276E+03  0.00000000000E+00 0.  1.
      99926    2    1    2    0    0  0.00000000000E+00  0.00000000000E+00  0.36423121744E+03  0.58610526296E+03  0.45918950283E+03 0.  0.
      99925    2    3    3    0    0 -0.79847491488E+02 -0.77896406291E+02  0.18383991981E+03  0.33986960272E+03  0.26319338656E+03 0.  0.
         25    1    4    4    0    0 -0.78112338407E+02 -0.24618782985E+02  0.10485981570E+03  0.18262177016E+03  0.12509000000E+03 0.  0.
         25    1    3    3    0    0  0.79847491488E+02  0.77896406291E+02  0.18039129763E+03  0.24623566024E+03  0.12509000000E+03 0.  0.
         25    1    4    4    0    0 -0.17351530812E+01 -0.53277623306E+02  0.78980104103E+02  0.15724783256E+03  0.12509000000E+03 0.  0.
<mgrwt>
<rscale>  2 0.45918950E+03</rscale>
<asrwt>0</asrwt>
<pdfrwt beam="1">  1       21 0.69877681E-01 0.45918950E+03</pdfrwt>
<pdfrwt beam="2">  1       21 0.16314268E-01 0.45918950E+03</pdfrwt>
<totfact> 0.57610130E+04</totfact>
</mgrwt>
</event>
<event>
 7    0  0.4705418E-002  0.4529155E+03  0.7546771E-02  0.1026856E+00
         21   -1    0    0  502  501  0.00000000000E+00  0.00000000000E+00  0.48948449975E+03  0.48948449975E+03  0.00000000000E+00 0.  1.
         21   -1    0    0  501  502 -0.00000000000E+00 -0.00000000000E+00 -0.10476965115E+03  0.10476965115E+03  0.00000000000E+00 0.  1.
      99926    2    1    2    0    0  0.00000000000E+00  0.00000000000E+00  0.38471484861E+03  0.59425415090E+03  0.45291553420E+03 0.  0.
      99925    2    3    3    0    0  0.60548958794E+02 -0.19312892353E+02  0.12274694666E+03  0.29707768149E+03  0.26296230091E+03 0.  0.
         25    1    4    4    0    0  0.38349381128E+02  0.10879595386E+02  0.24241273716E+02  0.13350725853E+03  0.12509000000E+03 0.  0.
         25    1    3    3    0    0 -0.60548958794E+02  0.19312892353E+02  0.26196790195E+03  0.29717646941E+03  0.12509000000E+03 0.  0.
         25    1    4    4    0    0  0.22199577666E+02 -0.30192487739E+02  0.98505672943E+02  0.16357042296E+03  0.12509000000E+03 0.  0.
<mgrwt>
<rscale>  2 0.45291553E+03</rscale>
<asrwt>0</asrwt>
<pdfrwt beam="1">  1       21 0.71983013E-01 0.45291553E+03</pdfrwt>
<pdfrwt beam="2">  1       21 0.15407302E-01 0.45291553E+03</pdfrwt>
<totfact> 0.60015856E+04</totfact>
</mgrwt>
</event>
<event>
 7    0  0.4705418E-002  0.4584716E+03  0.7546771E-02  0.1025225E+00
         21   -1    0    0  502  501  0.00000000000E+00  0.00000000000E+00  0.22898096401E+03  0.22898096401E+03  0.00000000000E+00 0.  1.
         21   -1    0    0  501  502 -0.00000000000E+00 -0.00000000000E+00 -0.22949088605E+03  0.22949088605E+03  0.00000000000E+00 0.  1.
      99926    2    1    2    0    0  0.44408920985E-15  0.00000000000E+00 -0.50992203319E+00  0.45847185006E+03  0.45847156648E+03 0.  0.
      99925    2    3    3    0    0 -0.25428539811E+01  0.71881276341E+02  0.91167139795E+02  0.28751695612E+03  0.26302313337E+03 0.  0.
         25    1    4    4    0    0 -0.23106074901E+01  0.36904373465E+02  0.88448139139E+02  0.15760029538E+03  0.12509000000E+03 0.  0.
         25    1    4    4    0    0 -0.23224649097E+00  0.34976902876E+02  0.27190006563E+01  0.12991666074E+03  0.12509000000E+03 0.  0.
         25    1    3    3    0    0  0.25428539811E+01 -0.71881276341E+02 -0.91677061828E+02  0.17095489393E+03  0.12509000000E+03 0.  0.
<mgrwt>
<rscale>  2 0.45847157E+03</rscale>
<asrwt>0</asrwt>
<pdfrwt beam="1">  1       21 0.33673671E-01 0.45847157E+03</pdfrwt>
<pdfrwt beam="2">  1       21 0.33748659E-01 0.45847157E+03</pdfrwt>
<totfact> 0.66432874E+04</totfact>
</mgrwt>
</event>
<event>
 7    0  0.4705418E-002  0.4492429E+03  0.7546771E-02  0.1027948E+00
         21   -1    0    0  502  501  0.00000000000E+00  0.00000000000E+00  0.99665864287E+02  0.99665864287E+02  0.00000000000E+00 0. -1.
         21   -1    0    0  501  502 -0.00000000000E+00 -0.00000000000E+00 -0.50623953578E+03  0.50623953578E+03  0.00000000000E+00 0. -1.
      99926    2    1    2    0    0  0.35527136788E-14  0.00000000000E+00 -0.40657367149E+03  0.60590540007E+03  0.44924292257E+03 0.  0.
      99925    2    3    3    0    0 -0.10924819703E+02 -0.43448731342E+02 -0.12543182422E+03  0.29494657590E+03  0.26316002008E+03 0.  0.
         25    1    3    3    0    0  0.10924819703E+02  0.43448731342E+02 -0.28114184727E+03  0.31095882417E+03  0.12509000000E+03 0.  0.
         25    1    4    4    0    0  0.23031875949E+02  0.77536678358E+01 -0.64913949175E+02  0.14301019394E+03  0.12509000000E+03 0.  0.
         25    1    4    4    0    0 -0.33956695652E+02 -0.51202399178E+02 -0.60517875047E+02  0.15193638195E+03  0.12509000000E+03 0.  0.
<mgrwt>
<rscale>  2 0.44924292E+03</rscale>
<asrwt>0</asrwt>
<pdfrwt beam="1">  1       21 0.14656744E-01 0.44924292E+03</pdfrwt>
<pdfrwt beam="2">  1       21 0.74446992E-01 0.44924292E+03</pdfrwt>
<totfact> 0.61045511E+04</totfact>
</mgrwt>
</event>
<event>
 7    0  0.4705418E-002  0.4607462E+03  0.7546771E-02  0.1024565E+00
         21   -1    0    0  502  501  0.00000000000E+00  0.00000000000E+00  0.16078247648E+04  0.16078247648E+04  0.00000000000E+00 0. -1.
         21   -1    0    0  501  502 -0.00000000000E+00 -0.00000000000E+00 -0.33008426356E+02  0.33008426356E+02  0.00000000000E+00 0. -1.
      99926    2    1    2    0    0 -0.22204460493E-15 -0.17763568394E-14  0.15748163384E+04  0.16408331911E+04  0.46074620060E+03 0.  0.
      99925    2    3    3    0    0  0.35215172642E+00  0.14470255651E+02  0.14046014595E+04  0.14291019336E+04  0.26309231133E+03 0.  0.
         25    1    4    4    0    0 -0.29480831839E+02 -0.88063870282E+01  0.57360977934E+03  0.58789655464E+03  0.12509000000E+03 0.  0.
         25    1    3    3    0    0 -0.35215172642E+00 -0.14470255651E+02  0.17021487890E+03  0.21173125752E+03  0.12509000000E+03 0.  0.
         25    1    4    4    0    0  0.29832983565E+02  0.23276642679E+02  0.83099168017E+03  0.84120537897E+03  0.12509000000E+03 0.  0.
<mgrwt>
<rscale>  2 0.46074620E+03</rscale>
<asrwt>0</asrwt>
<pdfrwt beam="1">  1       21 0.23644477E+00 0.46074620E+03</pdfrwt>
<pdfrwt beam="2">  1       21 0.48541814E-02 0.46074620E+03</pdfrwt>
<totfact> 0.19631971E+04</totfact>
</mgrwt>
</event>
<event>
 7    0  0.4705418E-002  0.4431878E+03  0.7546771E-02  0.1029773E+00
         21   -1    0    0  502  501  0.00000000000E+00  0.00000000000E+00  0.30256650525E+03  0.30256650525E+03  0.00000000000E+00 0. -1.
         21   -1    0    0  501  502 -0.00000000000E+00 -0.00000000000E+00 -0.16229112855E+03  0.16229112855E+03  0.00000000000E+00 0. -1.
      99926    2    1    2    0    0  0.00000000000E+00  0.00000000000E+00  0.14027537670E+03  0.46485763380E+03  0.44318781391E+03 0.  0.
      99925    2    3    3    0    0 -0.49958090002E+02 -0.87900205402E+02  0.77442979106E+02  0.29217968167E+03  0.26296253440E+03 0.  0.
         25    1    4    4    0    0 -0.47741717601E+01 -0.55627428076E+01  0.34766296641E+02  0.13003822632E+03  0.12509000000E+03 0.  0.
         25    1    3    3    0    0  0.49958090002E+02  0.87900205402E+02  0.62832397598E+02  0.17267795214E+03  0.12509000000E+03 0.  0.
         25    1    4    4    0    0 -0.45183918242E+02 -0.82337462594E+02  0.42676682464E+02  0.16214145534E+03  0.12509000000E+03 0.  0.
<mgrwt>
<rscale>  2 0.44318781E+03</rscale>
<asrwt>0</asrwt>
<pdfrwt beam="1">  1       21 0.44495074E-01 0.44318781E+03</pdfrwt>
<pdfrwt beam="2">  1       21 0.23866342E-01 0.44318781E+03</pdfrwt>
<totfact> 0.74567416E+04</totfact>
</mgrwt>
</event>
<event>
 7    0  0.4705418E-002  0.4480736E+03  0.7546771E-02  0.1028298E+00
         21   -1    0    0  502  501  0.00000000000E+00  0.00000000000E+00  0.46638434787E+03  0.46638434787E+03  0.00000000000E+00 0. -1.
         21   -1    0    0  501  502 -0.00000000000E+00 -0.00000000000E+00 -0.10762042302E+03  0.10762042302E+03  0.00000000000E+00 0. -1.
      99926    2    1    2    0    0  0.00000000000E+00  0.00000000000E+00  0.35876392486E+03  0.57400477089E+03  0.44807356899E+03 0.  0.
      99925    2    3    3    0    0 -0.72343391661E+02 -0.44714220228E+02  0.14511400773E+03  0.31222867764E+03  0.26305083937E+03 0.  0.
         25    1    3    3    0    0  0.72343391661E+02  0.44714220228E+02  0.21364991712E+03  0.26177609324E+03  0.12509000000E+03 0.  0.
         25    1    4    4    0    0 -0.65795953109E+02 -0.13439077732E+02  0.45268679858E+02  0.14901838052E+03  0.12509000000E+03 0.  0.
         25    1    4    4    0    0 -0.65474385523E+01 -0.31275142496E+02  0.99845327876E+02  0.16321029713E+03  0.12509000000E+03 0.  0.
<mgrwt>
<rscale>  2 0.44807357E+03</rscale>
<asrwt>0</asrwt>
<pdfrwt beam="1">  1       21 0.68585933E-01 0.44807357E+03</pdfrwt>
<pdfrwt beam="2">  1       21 0.15826533E-01 0.44807357E+03</pdfrwt>
<totfact> 0.63726573E+04</totfact>
</mgrwt>
</event>
<event>
 7    0  0.4705418E-002  0.4539889E+03  0.7546771E-02  0.1026539E+00
         21   -1    0    0  502  501  0.00000000000E+00  0.00000000000E+00  0.96301561366E+03  0.96301561366E+03  0.00000000000E+00 0. -1.
         21   -1    0    0  501  502 -0.00000000000E+00 -0.00000000000E+00 -0.53505350034E+02  0.53505350034E+02  0.00000000000E+00 0. -1.
      99926    2    1    2    0    0  0.00000000000E+00 -0.17763568394E-14  0.90951026362E+03  0.10165209637E+04  0.45398893157E+03 0.  0.
      99925    2    3    3    0    0 -0.64328208271E+02  0.11252881345E+02  0.36877880865E+03  0.45768041379E+03  0.26307566543E+03 0.  0.
         25    1    4    4    0    0 -0.22924292542E+02  0.32641209520E+02  0.13397550661E+03  0.18758442425E+03  0.12509000000E+03 0.  0.
         25    1    3    3    0    0  0.64328208271E+02 -0.11252881345E+02  0.54073145497E+03  0.55884054990E+03  0.12509000000E+03 0.  0.
         25    1    4    4    0    0 -0.41403915729E+02 -0.21388328175E+02  0.23480330204E+03  0.27009598955E+03  0.12509000000E+03 0.  0.
<mgrwt>
<rscale>  2 0.45398893E+03</rscale>
<asrwt>0</asrwt>
<pdfrwt beam="1">  1       21 0.14161993E+00 0.45398893E+03</pdfrwt>
<pdfrwt beam="2">  1       21 0.78684344E-02 0.45398893E+03</pdfrwt>
<totfact> 0.38835963E+04</totfact>
</mgrwt>
</event>
<event>
 7    0  0.4705418E-002  0.4939545E+03  0.7546771E-02  0.1015369E+00
         21   -1    0    0  502  501  0.00000000000E+00  0.00000000000E+00  0.47909079458E+03  0.47909079458E+03  0.00000000000E+00 0.  1.
         21   -1    0    0  501  502 -0.00000000000E+00 -0.00000000000E+00 -0.12731986292E+03  0.12731986292E+03  0.00000000000E+00 0.  1.
      99926    2    1    2    0    0  0.00000000000E+00  0.00000000000E+00  0.35177093167E+03  0.60641065750E+03  0.49395454969E+03 0.  0.
      99925    2    3    3    0    0  0.59888192304E+02 -0.26826371475E+02  0.53384943731E+02  0.27627741821E+03  0.26300762311E+03 0.  0.
         25    1    4    4    0    0  0.68251681430E+02 -0.18344265948E+02  0.44049083955E+02  0.15027519426E+03  0.12509000000E+03 0.  0.
         25    1    3    3    0    0 -0.59888192304E+02  0.26826371475E+02  0.29838598794E+03  0.33013323929E+03  0.12509000000E+03 0.  0.
         25    1    4    4    0    0 -0.83634891269E+01 -0.84821055274E+01  0.93358597756E+01  0.12600222396E+03  0.12509000000E+03 0.  0.
<mgrwt>
<rscale>  2 0.49395455E+03</rscale>
<asrwt>0</asrwt>
<pdfrwt beam="1">  1       21 0.70454528E-01 0.49395455E+03</pdfrwt>
<pdfrwt beam="2">  1       21 0.18723509E-01 0.49395455E+03</pdfrwt>
<totfact> 0.43327708E+04</totfact>
</mgrwt>
</event>
<event>
 7    0  0.4705418E-002  0.4437970E+03  0.7546771E-02  0.1029588E+00
         21   -1    0    0  502  501  0.00000000000E+00  0.00000000000E+00  0.32886889326E+03  0.32886889326E+03  0.00000000000E+00 0. -1.
         21   -1    0    0  501  502 -0.00000000000E+00 -0.00000000000E+00 -0.14972210593E+03  0.14972210593E+03  0.00000000000E+00 0. -1.
      99926    2    1    2    0    0  0.71054273576E-14  0.00000000000E+00  0.17914678734E+03  0.47859099919E+03  0.44379699536E+03 0.  0.
      99925    2    3    3    0    0  0.39717932286E+02 -0.48830829202E+02  0.20092077230E+03  0.33687445624E+03  0.26297010951E+03 0.  0.
         25    1    4    4    0    0 -0.31400755728E+01 -0.38981392362E+02  0.13728521466E+03  0.18980028264E+03  0.12509000000E+03 0.  0.
         25    1    4    4    0    0  0.42858007859E+02 -0.98494368400E+01  0.63635557636E+02  0.14707417360E+03  0.12509000000E+03 0.  0.
         25    1    3    3    0    0 -0.39717932286E+02  0.48830829202E+02 -0.21773984960E+02  0.14171654295E+03  0.12509000000E+03 0.  0.
<mgrwt>
<rscale>  2 0.44379700E+03</rscale>
<asrwt>0</asrwt>
<pdfrwt beam="1">  1       21 0.48363072E-01 0.44379700E+03</pdfrwt>
<pdfrwt beam="2">  1       21 0.22017957E-01 0.44379700E+03</pdfrwt>
<totfact> 0.73089781E+04</totfact>
</mgrwt>
</event>
<event>
 7    0  0.4705418E-002  0.4532344E+03  0.7546771E-02  0.1026762E+00
         21   -1    0    0  502  501  0.00000000000E+00  0.00000000000E+00  0.75930308332E+02  0.75930308332E+02  0.00000000000E+00 0. -1.
         21   -1    0    0  501  502 -0.00000000000E+00 -0.00000000000E+00 -0.67634850656E+03  0.67634850656E+03  0.00000000000E+00 0. -1.
      99926    2    1    2    0    0  0.00000000000E+00  0.00000000000E+00 -0.60041819823E+03  0.75227881489E+03  0.45323437929E+03 0.  0.
      99925    2    3    3    0    0  0.69212467766E+02 -0.10091130668E+02 -0.52282756414E+03  0.58930639020E+03  0.26275685166E+03 0.  0.
         25    1    3    3    0    0 -0.69212467766E+02  0.10091130668E+02 -0.77590634089E+02  0.16297242469E+03  0.12509000000E+03 0.  0.
         25    1    4    4    0    0  0.34871106320E+02 -0.45185340680E+02 -0.26010826888E+03  0.29421340674E+03  0.12509000000E+03 0.  0.
         25    1    4    4    0    0  0.34341361446E+02  0.35094210012E+02 -0.26271929526E+03  0.29509298345E+03  0.12509000000E+03 0.  0.
<mgrwt>
<rscale>  2 0.45323438E+03</rscale>
<asrwt>0</asrwt>
<pdfrwt beam="1">  1       21 0.11166222E-01 0.45323438E+03</pdfrwt>
<pdfrwt beam="2">  1       21 0.99463012E-01 0.45323438E+03</pdfrwt>
<totfact> 0.50856803E+04</totfact>
</mgrwt>
</event>
<event>
 7    0  0.4705418E-002  0.4520151E+03  0.7546771E-02  0.1027123E+00
         21   -1    0    0  502  501  0.00000000000E+00  0.00000000000E+00  0.44917805678E+03  0.44917805678E+03  0.00000000000E+00 0. -1.
         21   -1    0    0  501  502 -0.00000000000E+00 -0.00000000000E+00 -0.11371749094E+03  0.11371749094E+03  0.00000000000E+00 0. -1.
      99926    2    1    2    0    0  0.14210854715E-13  0.00000000000E+00  0.33546056584E+03  0.56289554773E+03  0.45201505110E+03 0.  0.
      99925    2    3    3    0    0  0.82881767302E+02  0.42957275789E+02  0.13848993268E+03  0.31157970398E+03  0.26303561656E+03 0.  0.
         25    1    4    4    0    0  0.14266962720E+02 -0.10009973047E+02  0.73206020568E+02  0.14598073617E+03  0.12509000000E+03 0.  0.
         25    1    4    4    0    0  0.68614804581E+02  0.52967248837E+02  0.65283912112E+02  0.16559896780E+03  0.12509000000E+03 0.  0.
         25    1    3    3    0    0 -0.82881767302E+02 -0.42957275789E+02  0.19697063316E+03  0.25131584375E+03  0.12509000000E+03 0.  0.
<mgrwt>
<rscale>  2 0.45201505E+03</rscale>
<asrwt>0</asrwt>
<pdfrwt beam="1">  1       21 0.66055596E-01 0.45201505E+03</pdfrwt>
<pdfrwt beam="2">  1       21 0.16723161E-01 0.45201505E+03</pdfrwt>
<totfact> 0.62484483E+04</totfact>
</mgrwt>
</event>
<event>
 7    0  0.4705418E-002  0.4560726E+03  0.7546771E-02  0.1025926E+00
         21   -1    0    0  502  501  0.00000000000E+00  0.00000000000E+00  0.20580977535E+03  0.20580977535E+03  0.00000000000E+00 0.  1.
         21   -1    0    0  501  502 -0.00000000000E+00 -0.00000000000E+00 -0.25266317456E+03  0.25266317456E+03  0.00000000000E+00 0.  1.
      99926    2    1    2    0    0  0.00000000000E+00 -0.71054273576E-14 -0.46853399208E+02  0.45847294990E+03  0.45607258718E+03 0.  0.
      99925    2    3    3    0    0 -0.91456645433E+02  0.40668711491E+02  0.25151703329E+02  0.28282983168E+03  0.26332839463E+03 0.  0.
         25    1    4    4    0    0 -0.43655539104E+02  0.56828996798E+02 -0.64017151199E+01  0.14430464659E+03  0.12509000000E+03 0.  0.
         25    1    3    3    0    0  0.91456645433E+02 -0.40668711491E+02 -0.72005102537E+02  0.17564311822E+03  0.12509000000E+03 0.  0.
         25    1    4    4    0    0 -0.47801106329E+02 -0.16160285307E+02  0.31553418449E+02  0.13852518509E+03  0.12509000000E+03 0.  0.
<mgrwt>
<rscale>  2 0.45607259E+03</rscale>
<asrwt>0</asrwt>
<pdfrwt beam="1">  1       21 0.30266143E-01 0.45607259E+03</pdfrwt>
<pdfrwt beam="2">  1       21 0.37156349E-01 0.45607259E+03</pdfrwt>
<totfact> 0.67710788E+04</totfact>
</mgrwt>
</event>
<event>
 7    0  0.4705418E-002  0.4513567E+03  0.7546771E-02  0.1027318E+00
         21   -1    0    0  502  501  0.00000000000E+00  0.00000000000E+00  0.10459896907E+03  0.10459896907E+03  0.00000000000E+00 0.  1.
         21   -1    0    0  501  502 -0.00000000000E+00 -0.00000000000E+00 -0.48691419773E+03  0.48691419773E+03  0.00000000000E+00 0.  1.
      99926    2    1    2    0    0 -0.71054273576E-14  0.71054273576E-14 -0.38231522867E+03  0.59151316680E+03  0.45135672414E+03 0.  0.
      99925    2    3    3    0    0  0.52921733695E+02 -0.53494710821E+02 -0.13725979265E+03  0.30627279657E+03  0.26324965576E+03 0.  0.
         25    1    3    3    0    0 -0.52921733695E+02  0.53494710821E+02 -0.24505543602E+03  0.28524037023E+03  0.12509000000E+03 0.  0.
         25    1    4    4    0    0  0.18206913906E+01  0.76907761083E+01 -0.67414997277E+02  0.14231919376E+03  0.12509000000E+03 0.  0.
         25    1    4    4    0    0  0.51101042304E+02 -0.61185486929E+02 -0.69844795369E+02  0.16395360281E+03  0.12509000000E+03 0.  0.
<mgrwt>
<rscale>  2 0.45135672E+03</rscale>
<asrwt>0</asrwt>
<pdfrwt beam="1">  1       21 0.15382202E-01 0.45135672E+03</pdfrwt>
<pdfrwt beam="2">  1       21 0.71605028E-01 0.45135672E+03</pdfrwt>
<totfact> 0.60939486E+04</totfact>
</mgrwt>
</event>
<event>
 7    0  0.4705418E-002  0.4518880E+03  0.7546771E-02  0.1027161E+00
         21   -1    0    0  502  501  0.00000000000E+00  0.00000000000E+00  0.73403140443E+03  0.73403140443E+03  0.00000000000E+00 0.  1.
         21   -1    0    0  501  502 -0.00000000000E+00 -0.00000000000E+00 -0.69548385990E+02  0.69548385990E+02  0.00000000000E+00 0.  1.
      99926    2    1    2    0    0  0.00000000000E+00  0.00000000000E+00  0.66448301844E+03  0.80357979042E+03  0.45188803677E+03 0.  0.
      99925    2    3    3    0    0 -0.62805706305E+02 -0.76161407160E+02  0.50763076934E+03  0.57998360791E+03  0.26257736152E+03 0.  0.
         25    1    3    3    0    0  0.62805706305E+02  0.76161407160E+02  0.15685224911E+03  0.22359618251E+03  0.12509000000E+03 0.  0.
         25    1    4    4    0    0 -0.35994146680E+02 -0.20144916623E+01  0.27631210309E+03  0.30544315868E+03  0.12509000000E+03 0.  0.
         25    1    4    4    0    0 -0.26811559625E+02 -0.74146915498E+02  0.23131866625E+03  0.27454044923E+03  0.12509000000E+03 0.  0.
<mgrwt>
<rscale>  2 0.45188804E+03</rscale>
<asrwt>0</asrwt>
<pdfrwt beam="1">  1       21 0.10794579E+00 0.45188804E+03</pdfrwt>
<pdfrwt beam="2">  1       21 0.10227704E-01 0.45188804E+03</pdfrwt>
<totfact> 0.48772374E+04</totfact>
</mgrwt>
</event>
<event>
 7    0  0.4705418E-002  0.4538397E+03  0.7546771E-02  0.1026583E+00
         21   -1    0    0  502  501  0.00000000000E+00  0.00000000000E+00  0.12051747316E+03  0.12051747316E+03  0.00000000000E+00 0. -1.
         21   -1    0    0  501  502 -0.00000000000E+00 -0.00000000000E+00 -0.42726258932E+03  0.42726258932E+03  0.00000000000E+00 0. -1.
      99926    2    1    2    0    0  0.00000000000E+00  0.00000000000E+00 -0.30674511616E+03  0.54778006247E+03  0.45383965291E+03 0.  0.
      99925    2    3    3    0    0  0.16771145873E+02 -0.83089528758E+02 -0.10522893878E+03  0.29590426179E+03  0.26325094771E+03 0.  0.
         25    1    3    3    0    0 -0.16771145873E+02  0.83089528758E+02 -0.20151617738E+03  0.25187580068E+03  0.12509000000E+03 0.  0.
         25    1    4    4    0    0  0.31595430163E+02 -0.42182944339E+02 -0.17078436700E+02  0.13680955047E+03  0.12509000000E+03 0.  0.
         25    1    4    4    0    0 -0.14824284290E+02 -0.40906584420E+02 -0.88150502079E+02  0.15909471132E+03  0.12509000000E+03 0.  0.
<mgrwt>
<rscale>  2 0.45383965E+03</rscale>
<asrwt>0</asrwt>
<pdfrwt beam="1">  1       21 0.17723158E-01 0.45383965E+03</pdfrwt>
<pdfrwt beam="2">  1       21 0.62832734E-01 0.45383965E+03</pdfrwt>
<totfact> 0.62586076E+04</totfact>
</mgrwt>
</event>
<event>
 7    0  0.4705418E-002  0.4787067E+03  0.7546771E-02  0.1019491E+00
         21   -1    0    0  502  501  0.00000000000E+00  0.00000000000E+00  0.24004619594E+03  0.24004619594E+03  0.00000000000E+00 0.  1.
         21   -1    0    0  501  502 -0.00000000000E+00 -0.00000000000E+00 -0.23866251876E+03  0.23866251876E+03  0.00000000000E+00 0.  1.
      99926    2    1    2    0    0  0.00000000000E+00  0.00000000000E+00  0.13836771803E+01  0.47870871470E+03  0.47870671498E+03 0.  0.
      99925    2    3    3    0    0  0.95304812911E+02  0.20569976290E+02  0.92925572489E+02  0.29558701204E+03  0.26311668206E+03 0.  0.
         25    1    4    4    0    0  0.22664303502E+02 -0.18186429782E+02  0.23626431146E+02  0.13057615874E+03  0.12509000000E+03 0.  0.
         25    1    3    3    0    0 -0.95304812911E+02 -0.20569976290E+02 -0.91541895309E+02  0.18312170266E+03  0.12509000000E+03 0.  0.
         25    1    4    4    0    0  0.72640509409E+02  0.38756406072E+02  0.69299141343E+02  0.16501085331E+03  0.12509000000E+03 0.  0.
<mgrwt>
<rscale>  2 0.47870671E+03</rscale>
<asrwt>0</asrwt>
<pdfrwt beam="1">  1       21 0.35300911E-01 0.47870671E+03</pdfrwt>
<pdfrwt beam="2">  1       21 0.35097429E-01 0.47870671E+03</pdfrwt>
<totfact> 0.55564780E+04</totfact>
</mgrwt>
</event>
<event>
 7    0  0.4705418E-002  0.4539361E+03  0.7546771E-02  0.1026555E+00
         21   -1    0    0  502  501  0.00000000000E+00  0.00000000000E+00  0.54413071617E+03  0.54413071617E+03  0.00000000000E+00 0. -1.
         21   -1    0    0  501  502 -0.00000000000E+00 -0.00000000000E+00 -0.94672997005E+02  0.94672997005E+02  0.00000000000E+00 0. -1.
      99926    2    1    2    0    0  0.00000000000E+00 -0.26645352591E-14  0.44945771916E+03  0.63880371317E+03  0.45393605568E+03 0.  0.
      99925    2    3    3    0    0  0.11008104525E+03  0.64983180131E+01  0.25422124484E+03  0.38204535661E+03  0.26300218348E+03 0.  0.
         25    1    4    4    0    0  0.92401369473E+02 -0.16651942755E+02  0.13025725993E+03  0.20354302283E+03  0.12509000000E+03 0.  0.
         25    1    3    3    0    0 -0.11008104525E+03 -0.64983180131E+01  0.19523647432E+03  0.25675835656E+03  0.12509000000E+03 0.  0.
         25    1    4    4    0    0  0.17679675779E+02  0.23150260768E+02  0.12396398491E+03  0.17850233378E+03  0.12509000000E+03 0.  0.
<mgrwt>
<rscale>  2 0.45393606E+03</rscale>
<asrwt>0</asrwt>
<pdfrwt beam="1">  1       21 0.80019222E-01 0.45393606E+03</pdfrwt>
<pdfrwt beam="2">  1       21 0.13922500E-01 0.45393606E+03</pdfrwt>
<totfact> 0.56826799E+04</totfact>
</mgrwt>
</event>
<event>
 7    0  0.4705418E-002  0.3945830E+03  0.7546771E-02  0.1045672E+00
         21   -1    0    0  502  501  0.00000000000E+00  0.00000000000E+00  0.20727083689E+03  0.20727083689E+03  0.00000000000E+00 0. -1.
         21   -1    0    0  501  502 -0.00000000000E+00 -0.00000000000E+00 -0.18779267453E+03  0.18779267453E+03  0.00000000000E+00 0. -1.
      99926    2    1    2    0    0 -0.35527136788E-14 -0.17763568394E-14  0.19478162356E+02  0.39506351142E+03  0.39458304481E+03 0.  0.
      99925    2    3    3    0    0  0.26577603592E+02 -0.11560690412E+02 -0.28662872877E+01  0.26473008860E+03  0.26312313777E+03 0.  0.
         25    1    4    4    0    0 -0.23390477310E+02  0.99162090119E+01 -0.10781482035E+02  0.12809837659E+03  0.12509000000E+03 0.  0.
         25    1    4    4    0    0  0.49968080903E+02 -0.21476899424E+02  0.79151947474E+01  0.13663171201E+03  0.12509000000E+03 0.  0.
         25    1    3    3    0    0 -0.26577603592E+02  0.11560690412E+02  0.22344449644E+02  0.13033342283E+03  0.12509000000E+03 0.  0.
<mgrwt>
<rscale>  2 0.39458304E+03</rscale>
<asrwt>0</asrwt>
<pdfrwt beam="1">  1       21 0.30481006E-01 0.39458304E+03</pdfrwt>
<pdfrwt beam="2">  1       21 0.27616570E-01 0.39458304E+03</pdfrwt>
<totfact> 0.12235416E+05</totfact>
</mgrwt>
</event>
<event>
 7    0  0.4705418E-002  0.4575784E+03  0.7546771E-02  0.1025486E+00
         21   -1    0    0  502  501  0.00000000000E+00  0.00000000000E+00  0.86762728890E+02  0.86762728890E+02  0.00000000000E+00 0.  1.
         21   -1    0    0  501  502 -0.00000000000E+00 -0.00000000000E+00 -0.60330621214E+03  0.60330621214E+03  0.00000000000E+00 0.  1.
      99926    2    1    2    0    0 -0.71054273576E-14  0.00000000000E+00 -0.51654348325E+03  0.69006894103E+03  0.45757837939E+03 0.  0.
      99925    2    3    3    0    0  0.59607710075E+02  0.51891052155E+02 -0.45145751009E+03  0.52842286964E+03  0.26300396450E+03 0.  0.
         25    1    4    4    0    0  0.58478228827E+02  0.16613911024E+02 -0.28596330007E+03  0.31799094700E+03  0.12509000000E+03 0.  0.
         25    1    3    3    0    0 -0.59607710075E+02 -0.51891052155E+02 -0.65085973154E+02  0.16164607139E+03  0.12509000000E+03 0.  0.
         25    1    4    4    0    0  0.11294812478E+01  0.35277141131E+02 -0.16549421002E+03  0.21043192264E+03  0.12509000000E+03 0.  0.
<mgrwt>
<rscale>  2 0.45757838E+03</rscale>
<asrwt>0</asrwt>
<pdfrwt beam="1">  1       21 0.12759225E-01 0.45757838E+03</pdfrwt>
<pdfrwt beam="2">  1       21 0.88721500E-01 0.45757838E+03</pdfrwt>
<totfact> 0.52374406E+04</totfact>
</mgrwt>
</event>
<event>
 7    0  0.4705418E-002  0.4559494E+03  0.7546771E-02  0.1025963E+00
         21   -1    0    0  502  501  0.00000000000E+00  0.00000000000E+00  0.22809785136E+03  0.22809785136E+03  0.00000000000E+00 0.  1.
         21   -1    0    0  501  502 -0.00000000000E+00 -0.00000000000E+00 -0.22785161149E+03  0.22785161149E+03  0.00000000000E+00 0.  1.
      99926    2    1    2    0    0  0.71054273576E-14  0.00000000000E+00  0.24623986158E+00  0.45594946285E+03  0.45594939636E+03 0.  0.
      99925    2    3    3    0    0  0.44365219081E+02  0.69453250888E+02  0.79004741060E+02  0.28670869845E+03  0.26299829265E+03 0.  0.
         25    1    4    4    0    0  0.33578010603E+02  0.75036518816E+02  0.36910714683E+02  0.15416832006E+03  0.12509000000E+03 0.  0.
         25    1    3    3    0    0 -0.44365219081E+02 -0.69453250888E+02 -0.78758501198E+02  0.16924076440E+03  0.12509000000E+03 0.  0.
         25    1    4    4    0    0  0.10787208477E+02 -0.55832679288E+01  0.42094026377E+02  0.13254037839E+03  0.12509000000E+03 0.  0.
<mgrwt>
<rscale>  2 0.45594940E+03</rscale>
<asrwt>0</asrwt>
<pdfrwt beam="1">  1       21 0.33543802E-01 0.45594940E+03</pdfrwt>
<pdfrwt beam="2">  1       21 0.33507590E-01 0.45594940E+03</pdfrwt>
<totfact> 0.67960017E+04</totfact>
</mgrwt>
</event>
<event>
 7    0  0.4705418E-002  0.4694821E+03  0.7546771E-02  0.1022066E+00
         21   -1    0    0  502  501  0.00000000000E+00  0.00000000000E+00  0.34186735840E+03  0.34186735840E+03  0.00000000000E+00 0. -1.
         21   -1    0    0  501  502 -0.00000000000E+00 -0.00000000000E+00 -0.16118344152E+03  0.16118344152E+03  0.00000000000E+00 0. -1.
      99926    2    1    2    0    0 -0.14210854715E-13  0.00000000000E+00  0.18068391688E+03  0.50305079993E+03  0.46948208644E+03 0.  0.
      99925    2    3    3    0    0  0.88337170575E+02 -0.32798449136E+02  0.20267391026E+03  0.34490446933E+03  0.26268457339E+03 0.  0.
         25    1    4    4    0    0  0.65773706694E+02 -0.32693835523E+02  0.14573926175E+03  0.20562710884E+03  0.12509000000E+03 0.  0.
         25    1    4    4    0    0  0.22563463880E+02 -0.10461361314E+00  0.56934648506E+02  0.13927736050E+03  0.12509000000E+03 0.  0.
         25    1    3    3    0    0 -0.88337170575E+02  0.32798449136E+02 -0.21989993377E+02  0.15814633059E+03  0.12509000000E+03 0.  0.
<mgrwt>
<rscale>  2 0.46948209E+03</rscale>
<asrwt>0</asrwt>
<pdfrwt beam="1">  1       21 0.50274612E-01 0.46948209E+03</pdfrwt>
<pdfrwt beam="2">  1       21 0.23703447E-01 0.46948209E+03</pdfrwt>
<totfact> 0.58086206E+04</totfact>
</mgrwt>
</event>
<event>
 7    0  0.4705418E-002  0.4529022E+03  0.7546771E-02  0.1026860E+00
         21   -1    0    0  502  501  0.00000000000E+00  0.00000000000E+00  0.46927885884E+03  0.46927885884E+03  0.00000000000E+00 0. -1.
         21   -1    0    0  501  502 -0.00000000000E+00 -0.00000000000E+00 -0.10927426304E+03  0.10927426304E+03  0.00000000000E+00 0. -1.
      99926    2    1    2    0    0  0.00000000000E+00  0.35527136788E-14  0.36000459580E+03  0.57855312188E+03  0.45290220339E+03 0.  0.
      99925    2    3    3    0    0  0.75892481746E+02 -0.13732247700E+02  0.32935782884E+03  0.42843658102E+03  0.26293170430E+03 0.  0.
         25    1    3    3    0    0 -0.75892481746E+02  0.13732247700E+02  0.30646766962E+02  0.15011654085E+03  0.12509000000E+03 0.  0.
         25    1    4    4    0    0  0.12515461897E+02 -0.35071973711E+02  0.13444938634E+03  0.18737882942E+03  0.12509000000E+03 0.  0.
         25    1    4    4    0    0  0.63377019849E+02  0.21339726011E+02  0.19490844250E+03  0.24105775161E+03  0.12509000000E+03 0.  0.
<mgrwt>
<rscale>  2 0.45290220E+03</rscale>
<asrwt>0</asrwt>
<pdfrwt beam="1">  1       21 0.69011596E-01 0.45290220E+03</pdfrwt>
<pdfrwt beam="2">  1       21 0.16069745E-01 0.45290220E+03</pdfrwt>
<totfact> 0.61023996E+04</totfact>
</mgrwt>
</event>
<event>
 7    0  0.4705418E-002  0.4478229E+03  0.7546771E-02  0.1028373E+00
         21   -1    0    0  502  501  0.00000000000E+00  0.00000000000E+00  0.67363557078E+02  0.67363557078E+02  0.00000000000E+00 0. -1.
         21   -1    0    0  501  502 -0.00000000000E+00 -0.00000000000E+00 -0.74426492099E+03  0.74426492099E+03  0.00000000000E+00 0. -1.
      99926    2    1    2    0    0  0.00000000000E+00  0.00000000000E+00 -0.67690136391E+03  0.81162847807E+03  0.44782287787E+03 0.  0.
      99925    2    3    3    0    0  0.25681101784E+02  0.50060116368E+02 -0.59226887842E+03  0.65045869200E+03  0.26296112149E+03 0.  0.
         25    1    4    4    0    0  0.30045840960E+02  0.60541092745E+02 -0.28461936832E+03  0.31815667429E+03  0.12509000000E+03 0.  0.
         25    1    4    4    0    0 -0.43647391755E+01 -0.10480976377E+02 -0.30764951010E+03  0.33230201772E+03  0.12509000000E+03 0.  0.
         25    1    3    3    0    0 -0.25681101784E+02 -0.50060116368E+02 -0.84632485489E+02  0.16116978606E+03  0.12509000000E+03 0.  0.
<mgrwt>
<rscale>  2 0.44782288E+03</rscale>
<asrwt>0</asrwt>
<pdfrwt beam="1">  1       21 0.99064052E-02 0.44782288E+03</pdfrwt>
<pdfrwt beam="2">  1       21 0.10945073E+00 0.44782288E+03</pdfrwt>
<totfact> 0.49962508E+04</totfact>
</mgrwt>
</event>
<event>
 7    0  0.4705418E-002  0.4484538E+03  0.7546771E-02  0.1028184E+00
         21   -1    0    0  502  501  0.00000000000E+00  0.00000000000E+00  0.22847849350E+03  0.22847849350E+03  0.00000000000E+00 0.  1.
         21   -1    0    0  501  502 -0.00000000000E+00 -0.00000000000E+00 -0.22005442215E+03  0.22005442215E+03  0.00000000000E+00 0.  1.
      99926    2    1    2    0    0  0.00000000000E+00 -0.35527136788E-14  0.84240713514E+01  0.44853291565E+03  0.44845380079E+03 0.  0.
      99925    2    3    3    0    0  0.58349914856E+02 -0.31138531663E+02  0.89320255711E+02  0.28554205253E+03  0.26302439994E+03 0.  0.
         25    1    3    3    0    0 -0.58349914856E+02  0.31138531663E+02 -0.80896184359E+02  0.16299086312E+03  0.12509000000E+03 0.  0.
         25    1    4    4    0    0  0.70088950191E+02 -0.15414405932E+02  0.55082442916E+02  0.15437502540E+03  0.12509000000E+03 0.  0.
         25    1    4    4    0    0 -0.11739035335E+02 -0.15724125730E+02  0.34237812794E+02  0.13116702713E+03  0.12509000000E+03 0.  0.
<mgrwt>
<rscale>  2 0.44845380E+03</rscale>
<asrwt>0</asrwt>
<pdfrwt beam="1">  1       21 0.33599779E-01 0.44845380E+03</pdfrwt>
<pdfrwt beam="2">  1       21 0.32360944E-01 0.44845380E+03</pdfrwt>
<totfact> 0.72748356E+04</totfact>
</mgrwt>
</event>
<event>
 7    0  0.4705418E-002  0.4448704E+03  0.7546771E-02  0.1029263E+00
         21   -1    0    0  502  501  0.00000000000E+00  0.00000000000E+00  0.11962441045E+04  0.11962441045E+04  0.00000000000E+00 0.  1.
         21   -1    0    0  501  502 -0.00000000000E+00 -0.00000000000E+00 -0.41360639110E+02  0.41360639110E+02  0.00000000000E+00 0.  1.
      99926    2    1    2    0    0  0.00000000000E+00  0.14210854715E-13  0.11548834654E+04  0.12376047436E+04  0.44487041122E+03 0.  0.
      99925    2    3    3    0    0  0.87952160217E+01 -0.10294756898E+03  0.72626056870E+03  0.77930281971E+03  0.26302644996E+03 0.  0.
         25    1    4    4    0    0  0.34733417028E+02 -0.24742477842E+02  0.36679750325E+03  0.38988013152E+03  0.12509000000E+03 0.  0.
         25    1    3    3    0    0 -0.87952160217E+01  0.10294756898E+03  0.42862289672E+03  0.45830192393E+03  0.12509000000E+03 0.  0.
         25    1    4    4    0    0 -0.25938201006E+02 -0.78205091135E+02  0.35946306545E+03  0.38942268818E+03  0.12509000000E+03 0.  0.
<mgrwt>
<rscale>  2 0.44487041E+03</rscale>
<asrwt>0</asrwt>
<pdfrwt beam="1">  1       21 0.17591823E+00 0.44487041E+03</pdfrwt>
<pdfrwt beam="2">  1       21 0.60824477E-02 0.44487041E+03</pdfrwt>
<totfact> 0.33550515E+04</totfact>
</mgrwt>
</event>
<event>
 7    0  0.4705418E-002  0.4542402E+03  0.7546771E-02  0.1026465E+00
         21   -1    0    0  502  501  0.00000000000E+00  0.00000000000E+00  0.85876049236E+03  0.85876049236E+03  0.00000000000E+00 0. -1.
         21   -1    0    0  501  502 -0.00000000000E+00 -0.00000000000E+00 -0.60067432067E+02  0.60067432067E+02  0.00000000000E+00 0. -1.
      99926    2    1    2    0    0 -0.14210854715E-13  0.00000000000E+00  0.79869306029E+03  0.91882792443E+03  0.45424018993E+03 0.  0.
      99925    2    3    3    0    0  0.98431569955E+02  0.35207069744E+02  0.42005918537E+03  0.50659081903E+03  0.26316577854E+03 0.  0.
         25    1    3    3    0    0 -0.98431569955E+02 -0.35207069744E+02  0.37863387493E+03  0.41223710540E+03  0.12509000000E+03 0.  0.
         25    1    4    4    0    0  0.64931779476E+02  0.87190317820E+01  0.15052886964E+03  0.20639429787E+03  0.12509000000E+03 0.  0.
         25    1    4    4    0    0  0.33499790479E+02  0.26488037962E+02  0.26953031573E+03  0.30019652116E+03  0.12509000000E+03 0.  0.
<mgrwt>
<rscale>  2 0.45424019E+03</rscale>
<asrwt>0</asrwt>
<pdfrwt beam="1">  1       21 0.12628830E+00 0.45424019E+03</pdfrwt>
<pdfrwt beam="2">  1       21 0.88334464E-02 0.45424019E+03</pdfrwt>
<totfact> 0.42682728E+04</totfact>
</mgrwt>
</event>
<event>
 7    0  0.4705418E-002  0.4518961E+03  0.7546771E-02  0.1027158E+00
         21   -1    0    0  502  501  0.00000000000E+00  0.00000000000E+00  0.26712271604E+02  0.26712271604E+02  0.00000000000E+00 0. -1.
         21   -1    0    0  501  502 -0.00000000000E+00 -0.00000000000E+00 -0.19112012017E+04  0.19112012017E+04  0.00000000000E+00 0. -1.
      99926    2    1    2    0    0  0.88817841970E-15  0.15543122345E-14 -0.18844889301E+04  0.19379134733E+04  0.45189611899E+03 0.  0.
      99925    2    3    3    0    0  0.28915341249E+01 -0.16560753444E+01 -0.16617843441E+04  0.16824610428E+04  0.26293887212E+03 0.  0.
         25    1    3    3    0    0 -0.28915341249E+01  0.16560753444E+01 -0.22270458592E+03  0.25545243049E+03  0.12509000000E+03 0.  0.
         25    1    4    4    0    0 -0.18549892985E+02 -0.26201168791E+02 -0.98632925813E+03  0.99474796472E+03  0.12509000000E+03 0.  0.
         25    1    4    4    0    0  0.21441427110E+02  0.24545093447E+02 -0.67545508602E+03  0.68771307806E+03  0.12509000000E+03 0.  0.
<mgrwt>
<rscale>  2 0.45189612E+03</rscale>
<asrwt>0</asrwt>
<pdfrwt beam="1">  1       21 0.39282753E-02 0.45189612E+03</pdfrwt>
<pdfrwt beam="2">  1       21 0.28105900E+00 0.45189612E+03</pdfrwt>
<totfact> 0.15110885E+04</totfact>
</mgrwt>
</event>
<event>
 7    0  0.4705418E-002  0.4633041E+03  0.7546771E-02  0.1023827E+00
         21   -1    0    0  502  501  0.00000000000E+00  0.00000000000E+00  0.30250878692E+03  0.30250878692E+03  0.00000000000E+00 0.  1.
         21   -1    0    0  501  502 -0.00000000000E+00 -0.00000000000E+00 -0.17739209818E+03  0.17739209818E+03  0.00000000000E+00 0.  1.
      99926    2    1    2    0    0  0.71054273576E-14  0.00000000000E+00  0.12511668874E+03  0.47990088510E+03  0.46330408343E+03 0.  0.
      99925    2    3    3    0    0  0.51356742349E+02  0.57522507487E+02  0.17530141740E+03  0.32461930557E+03  0.26210828440E+03 0.  0.
         25    1    3    3    0    0 -0.51356742349E+02 -0.57522507487E+02 -0.50184728660E+02  0.15528157954E+03  0.12509000000E+03 0.  0.
         25    1    4    4    0    0  0.57196267010E+02  0.12728296515E+02  0.69272279146E+02  0.15453018880E+03  0.12509000000E+03 0.  0.
         25    1    4    4    0    0 -0.58395246614E+01  0.44794210972E+02  0.10602913825E+03  0.17008911677E+03  0.12509000000E+03 0.  0.
<mgrwt>
<rscale>  2 0.46330408E+03</rscale>
<asrwt>0</asrwt>
<pdfrwt beam="1">  1       21 0.44486586E-01 0.46330408E+03</pdfrwt>
<pdfrwt beam="2">  1       21 0.26087073E-01 0.46330408E+03</pdfrwt>
<totfact> 0.62486845E+04</totfact>
</mgrwt>
</event>
<event>
 7    0  0.4705418E-002  0.4650271E+03  0.7546771E-02  0.1023333E+00
         21   -1    0    0  502  501  0.00000000000E+00  0.00000000000E+00  0.13547696039E+02  0.13547696039E+02  0.00000000000E+00 0.  1.
         21   -1    0    0  501  502 -0.00000000000E+00 -0.00000000000E+00 -0.39905352930E+04  0.39905352930E+04  0.00000000000E+00 0.  1.
      99926    2    1    2    0    0  0.00000000000E+00  0.00000000000E+00 -0.39769875970E+04  0.40040829890E+04  0.46502713548E+03 0.  0.
      99925    2    3    3    0    0 -0.88499769157E+02  0.34698823753E+02 -0.18192170609E+04  0.18406002847E+04  0.26310164560E+03 0.  0.
         25    1    4    4    0    0 -0.20783356778E+02 -0.12432213577E+02 -0.95935696506E+03  0.96778086485E+03  0.12509000000E+03 0.  0.
         25    1    4    4    0    0 -0.67716412379E+02  0.47131037331E+02 -0.85986009586E+03  0.87281941989E+03  0.12509000000E+03 0.  0.
         25    1    3    3    0    0  0.88499769157E+02 -0.34698823753E+02 -0.21577705360E+04  0.21634827043E+04  0.12509000000E+03 0.  0.
<mgrwt>
<rscale>  2 0.46502714E+03</rscale>
<asrwt>0</asrwt>
<pdfrwt beam="1">  1       21 0.19923075E-02 0.46502714E+03</pdfrwt>
<pdfrwt beam="2">  1       21 0.58684365E+00 0.46502714E+03</pdfrwt>
<totfact> 0.41384632E+02</totfact>
</mgrwt>
</event>
<event>
 7    0  0.4705418E-002  0.4578606E+03  0.7546771E-02  0.1025404E+00
         21   -1    0    0  502  501  0.00000000000E+00  0.00000000000E+00  0.66488251251E+03  0.66488251251E+03  0.00000000000E+00 0.  1.
         21   -1    0    0  501  502 -0.00000000000E+00 -0.00000000000E+00 -0.78824589929E+02  0.78824589929E+02  0.00000000000E+00 0.  1.
      99926    2    1    2    0    0 -0.35527136788E-14  0.00000000000E+00  0.58605792258E+03  0.74370710244E+03  0.45786063993E+03 0.  0.
      99925    2    3    3    0    0  0.24882207910E+02 -0.11312925401E+03  0.36409002301E+03  0.46382389658E+03  0.26297092957E+03 0.  0.
         25    1    4    4    0    0  0.11999962902E+02 -0.46140057744E+02  0.24032878564E+03  0.27509695990E+03  0.12509000000E+03 0.  0.
         25    1    3    3    0    0 -0.24882207910E+02  0.11312925401E+03  0.22196789957E+03  0.27988320586E+03  0.12509000000E+03 0.  0.
         25    1    4    4    0    0  0.12882245008E+02 -0.66989196269E+02  0.12376123738E+03  0.18872693668E+03  0.12509000000E+03 0.  0.
<mgrwt>
<rscale>  2 0.45786064E+03</rscale>
<asrwt>0</asrwt>
<pdfrwt beam="1">  1       21 0.97776837E-01 0.45786064E+03</pdfrwt>
<pdfrwt beam="2">  1       21 0.11591852E-01 0.45786064E+03</pdfrwt>
<totfact> 0.49471470E+04</totfact>
</mgrwt>
</event>
<event>
 7    0  0.4705418E-002  0.4724151E+03  0.7546771E-02  0.1021241E+00
         21   -1    0    0  502  501  0.00000000000E+00  0.00000000000E+00  0.26845618800E+03  0.26845618800E+03  0.00000000000E+00 0. -1.
         21   -1    0    0  501  502 -0.00000000000E+00 -0.00000000000E+00 -0.20783282114E+03  0.20783282114E+03  0.00000000000E+00 0. -1.
      99926    2    1    2    0    0  0.17763568394E-14  0.00000000000E+00  0.60623366856E+02  0.47628900914E+03  0.47241510096E+03 0.  0.
      99925    2    3    3    0    0  0.13788927130E+02  0.10882699828E+03 -0.30462418953E+02  0.28661144446E+03  0.26302986724E+03 0.  0.
         25    1    4    4    0    0 -0.19075956267E+02  0.52107690709E+02 -0.46380787946E+02  0.14449148462E+03  0.12509000000E+03 0.  0.
         25    1    4    4    0    0  0.32864883397E+02  0.56719307574E+02  0.15918368994E+02  0.14211995984E+03  0.12509000000E+03 0.  0.
         25    1    3    3    0    0 -0.13788927130E+02 -0.10882699828E+03  0.91085785809E+02  0.18967756468E+03  0.12509000000E+03 0.  0.
<mgrwt>
<rscale>  2 0.47241510E+03</rscale>
<asrwt>0</asrwt>
<pdfrwt beam="1">  1       21 0.39478851E-01 0.47241510E+03</pdfrwt>
<pdfrwt beam="2">  1       21 0.30563650E-01 0.47241510E+03</pdfrwt>
<totfact> 0.58458573E+04</totfact>
</mgrwt>
</event>
<event>
 7    0  0.4705418E-002  0.4518453E+03  0.7546771E-02  0.1027173E+00
         21   -1    0    0  502  501  0.00000000000E+00  0.00000000000E+00  0.81256573314E+02  0.81256573314E+02  0.00000000000E+00 0. -1.
         21   -1    0    0  501  502 -0.00000000000E+00 -0.00000000000E+00 -0.62814670278E+03  0.62814670278E+03  0.00000000000E+00 0. -1.
      99926    2    1    2    0    0  0.00000000000E+00  0.00000000000E+00 -0.54689012946E+03  0.70940327609E+03  0.45184532135E+03 0.  0.
      99925    2    3    3    0    0  0.83161364855E+02  0.54269922200E+02 -0.27001558996E+03  0.38976589439E+03  0.26296006644E+03 0.  0.
         25    1    4    4    0    0  0.75634468642E+02  0.48933496846E+02 -0.12869784880E+03  0.20081261003E+03  0.12509000000E+03 0.  0.
         25    1    4    4    0    0  0.75268962134E+01  0.53364253544E+01 -0.14131774117E+03  0.18895328436E+03  0.12509000000E+03 0.  0.
         25    1    3    3    0    0 -0.83161364855E+02 -0.54269922200E+02 -0.27687453950E+03  0.31963738170E+03  0.12509000000E+03 0.  0.
<mgrwt>
<rscale>  2 0.45184532E+03</rscale>
<asrwt>0</asrwt>
<pdfrwt beam="1">  1       21 0.11949496E-01 0.45184532E+03</pdfrwt>
<pdfrwt beam="2">  1       21 0.92374517E-01 0.45184532E+03</pdfrwt>
<totfact> 0.53716284E+04</totfact>
</mgrwt>
</event>
<event>
 7    0  0.4705418E-002  0.4530671E+03  0.7546771E-02  0.1026811E+00
         21   -1    0    0  502  501  0.00000000000E+00  0.00000000000E+00  0.25753330334E+03  0.25753330334E+03  0.00000000000E+00 0.  1.
         21   -1    0    0  501  502 -0.00000000000E+00 -0.00000000000E+00 -0.19926531583E+03  0.19926531583E+03  0.00000000000E+00 0.  1.
      99926    2    1    2    0    0  0.00000000000E+00  0.17763568394E-14  0.58267987503E+02  0.45679861917E+03  0.45306712539E+03 0.  0.
      99925    2    3    3    0    0  0.10088769298E+03  0.98644236578E+01  0.83628681100E+02  0.29380688218E+03  0.26277955450E+03 0.  0.
         25    1    4    4    0    0  0.25297481670E+02  0.32241860583E+02  0.57564654349E+02  0.14366870809E+03  0.12509000000E+03 0.  0.
         25    1    4    4    0    0  0.75590211306E+02 -0.22377436925E+02  0.26064026751E+02  0.15013817409E+03  0.12509000000E+03 0.  0.
         25    1    3    3    0    0 -0.10088769298E+03 -0.98644236578E+01 -0.25360693597E+02  0.16299173699E+03  0.12509000000E+03 0.  0.
<mgrwt>
<rscale>  2 0.45306713E+03</rscale>
<asrwt>0</asrwt>
<pdfrwt beam="1">  1       21 0.37872545E-01 0.45306713E+03</pdfrwt>
<pdfrwt beam="2">  1       21 0.29303723E-01 0.45306713E+03</pdfrwt>
<totfact> 0.69479311E+04</totfact>
</mgrwt>
</event>
<event>
 7    0  0.4705418E-002  0.4565366E+03  0.7546771E-02  0.1025790E+00
         21   -1    0    0  502  501  0.00000000000E+00  0.00000000000E+00  0.82538366884E+02  0.82538366884E+02  0.00000000000E+00 0.  1.
         21   -1    0    0  501  502 -0.00000000000E+00 -0.00000000000E+00 -0.63129942005E+03  0.63129942005E+03  0.00000000000E+00 0.  1.
      99926    2    1    2    0    0  0.35527136788E-14 -0.14210854715E-13 -0.54876105316E+03  0.71383778693E+03  0.45653662787E+03 0.  0.
      99925    2    3    3    0    0 -0.10123571516E+02  0.83402659488E+02 -0.46673234688E+03  0.54227232693E+03  0.26298612629E+03 0.  0.
         25    1    3    3    0    0  0.10123571516E+02 -0.83402659488E+02 -0.82028706282E+02  0.17156546000E+03  0.12509000000E+03 0.  0.
         25    1    4    4    0    0  0.22591402896E+02  0.63367252682E+02 -0.20154399163E+03  0.24656291055E+03  0.12509000000E+03 0.  0.
         25    1    4    4    0    0 -0.32714974412E+02  0.20035406807E+02 -0.26518835525E+03  0.29570941638E+03  0.12509000000E+03 0.  0.
<mgrwt>
<rscale>  2 0.45653663E+03</rscale>
<asrwt>0</asrwt>
<pdfrwt beam="1">  1       21 0.12137995E-01 0.45653663E+03</pdfrwt>
<pdfrwt beam="2">  1       21 0.92838149E-01 0.45653663E+03</pdfrwt>
<totfact> 0.51532332E+04</totfact>
</mgrwt>
</event>
<event>
 7    0  0.4705418E-002  0.4556094E+03  0.7546771E-02  0.1026062E+00
         21   -1    0    0  502  501  0.00000000000E+00  0.00000000000E+00  0.60117710741E+02  0.60117710741E+02  0.00000000000E+00 0.  1.
         21   -1    0    0  501  502 -0.00000000000E+00 -0.00000000000E+00 -0.86322273424E+03  0.86322273424E+03  0.00000000000E+00 0.  1.
      99926    2    1    2    0    0  0.35527136788E-14 -0.14210854715E-13 -0.80310502349E+03  0.92334044498E+03  0.45560937059E+03 0.  0.
      99925    2    3    3    0    0  0.23718764324E+02 -0.11117022645E+03 -0.51401130915E+03  0.58846123869E+03  0.26297833461E+03 0.  0.
         25    1    3    3    0    0 -0.23718764324E+02  0.11117022645E+03 -0.28909371435E+03  0.33487920629E+03  0.12509000000E+03 0.  0.
         25    1    4    4    0    0  0.15284135626E+02 -0.22483309837E+02 -0.28851011523E+03  0.31563380477E+03  0.12509000000E+03 0.  0.
         25    1    4    4    0    0  0.84346286980E+01 -0.88686916615E+02 -0.22550119392E+03  0.27282743392E+03  0.12509000000E+03 0.  0.
<mgrwt>
<rscale>  2 0.45560937E+03</rscale>
<asrwt>0</asrwt>
<pdfrwt beam="1">  1       21 0.88408406E-02 0.45560937E+03</pdfrwt>
<pdfrwt beam="2">  1       21 0.12694451E+00 0.45560937E+03</pdfrwt>
<totfact> 0.42038936E+04</totfact>
</mgrwt>
</event>
<event>
 7    0  0.4705418E-002  0.4504174E+03  0.7546771E-02  0.1027598E+00
         21   -1    0    0  502  501  0.00000000000E+00  0.00000000000E+00  0.28056210028E+03  0.28056210028E+03  0.00000000000E+00 0.  1.
         21   -1    0    0  501  502 -0.00000000000E+00 -0.00000000000E+00 -0.18077623624E+03  0.18077623624E+03  0.00000000000E+00 0.  1.
      99926    2    1    2    0    0  0.71054273576E-14  0.00000000000E+00  0.99785864040E+02  0.46133833652E+03  0.45041740872E+03 0.  0.
      99925    2    3    3    0    0  0.41053191602E+02 -0.37784966860E+02  0.15868593596E+03  0.31224174087E+03  0.26306008859E+03 0.  0.
         25    1    3    3    0    0 -0.41053191602E+02  0.37784966860E+02 -0.58900071922E+02  0.14909659565E+03  0.12509000000E+03 0.  0.
         25    1    4    4    0    0 -0.42796592473E+01  0.11546923791E+02  0.59190442604E+02  0.13893402581E+03  0.12509000000E+03 0.  0.
         25    1    4    4    0    0  0.45332850849E+02 -0.49331890650E+02  0.99495493358E+02  0.17330771506E+03  0.12509000000E+03 0.  0.
<mgrwt>
<rscale>  2 0.45041741E+03</rscale>
<asrwt>0</asrwt>
<pdfrwt beam="1">  1       21 0.41259133E-01 0.45041741E+03</pdfrwt>
<pdfrwt beam="2">  1       21 0.26584740E-01 0.45041741E+03</pdfrwt>
<totfact> 0.70618030E+04</totfact>
</mgrwt>
</event>
<event>
 7    0  0.4705418E-002  0.4570516E+03  0.7546771E-02  0.1025640E+00
         21   -1    0    0  502  501  0.00000000000E+00  0.00000000000E+00  0.20537461915E+03  0.20537461915E+03  0.00000000000E+00 0.  1.
         21   -1    0    0  501  502 -0.00000000000E+00 -0.00000000000E+00 -0.25428675962E+03  0.25428675962E+03  0.00000000000E+00 0.  1.
      99926    2    1    2    0    0  0.00000000000E+00  0.35527136788E-14 -0.48912140465E+02  0.45966137877E+03  0.45705162252E+03 0.  0.
      99925    2    3    3    0    0 -0.64315994405E+02 -0.19840161436E+02  0.63182693200E+02  0.27871127798E+03  0.26297860105E+03 0.  0.
         25    1    4    4    0    0 -0.43625866425E+02  0.15850179979E+02  0.19040842927E+01  0.13343754368E+03  0.12509000000E+03 0.  0.
         25    1    3    3    0    0  0.64315994405E+02  0.19840161436E+02 -0.11209483367E+03  0.18095010079E+03  0.12509000000E+03 0.  0.
         25    1    4    4    0    0 -0.20690127980E+02 -0.35690341415E+02  0.61278608908E+02  0.14527373429E+03  0.12509000000E+03 0.  0.
<mgrwt>
<rscale>  2 0.45705162E+03</rscale>
<asrwt>0</asrwt>
<pdfrwt beam="1">  1       21 0.30202150E-01 0.45705162E+03</pdfrwt>
<pdfrwt beam="2">  1       21 0.37395111E-01 0.45705162E+03</pdfrwt>
<totfact> 0.67100500E+04</totfact>
</mgrwt>
</event>
<event>
 7    0  0.4705418E-002  0.4680340E+03  0.7546771E-02  0.1022477E+00
         21   -1    0    0  502  501  0.00000000000E+00  0.00000000000E+00  0.41033647142E+03  0.41033647142E+03  0.00000000000E+00 0.  1.
         21   -1    0    0  501  502 -0.00000000000E+00 -0.00000000000E+00 -0.13346107656E+03  0.13346107656E+03  0.00000000000E+00 0.  1.
      99926    2    1    2    0    0  0.00000000000E+00  0.14210854715E-13  0.27687539486E+03  0.54379754797E+03  0.46803396127E+03 0.  0.
      99925    2    3    3    0    0 -0.72704791487E+02 -0.10063976892E+03  0.18933363637E+03  0.34700980096E+03  0.26297191164E+03 0.  0.
         25    1    3    3    0    0  0.72704791487E+02  0.10063976892E+03  0.87541758494E+02  0.19678774701E+03  0.12509000000E+03 0.  0.
         25    1    4    4    0    0 -0.14194493711E+02 -0.15498190837E+02  0.10196607240E+03  0.16274601559E+03  0.12509000000E+03 0.  0.
         25    1    4    4    0    0 -0.58510297776E+02 -0.85141578084E+02  0.87367563972E+02  0.18426378537E+03  0.12509000000E+03 0.  0.
<mgrwt>
<rscale>  2 0.46803396E+03</rscale>
<asrwt>0</asrwt>
<pdfrwt beam="1">  1       21 0.60343598E-01 0.46803396E+03</pdfrwt>
<pdfrwt beam="2">  1       21 0.19626629E-01 0.46803396E+03</pdfrwt>
<totfact> 0.56244086E+04</totfact>
</mgrwt>
</event>
<event>
 7    0  0.4705418E-002  0.4470804E+03  0.7546771E-02  0.1028596E+00
         21   -1    0    0  502  501  0.00000000000E+00  0.00000000000E+00  0.84324714378E+02  0.84324714378E+02  0.00000000000E+00 0. -1.
         21   -1    0    0  501  502 -0.00000000000E+00 -0.00000000000E+00 -0.59259272482E+03  0.59259272482E+03  0.00000000000E+00 0. -1.
      99926    2    1    2    0    0  0.00000000000E+00  0.00000000000E+00 -0.50826801044E+03  0.67691743920E+03  0.44708036084E+03 0.  0.
      99925    2    3    3    0    0 -0.84490101109E+02  0.59921036729E+02 -0.35266391811E+03  0.45199689883E+03  0.26305940315E+03 0.  0.
         25    1    3    3    0    0  0.84490101109E+02 -0.59921036729E+02 -0.15560409233E+03  0.22492054036E+03  0.12509000000E+03 0.  0.
         25    1    4    4    0    0 -0.52130921911E+02  0.35881214654E+02 -0.11889409291E+03  0.18381623436E+03  0.12509000000E+03 0.  0.
         25    1    4    4    0    0 -0.32359179198E+02  0.24039822074E+02 -0.23376982520E+03  0.26818066447E+03  0.12509000000E+03 0.  0.
<mgrwt>
<rscale>  2 0.44708036E+03</rscale>
<asrwt>0</asrwt>
<pdfrwt beam="1">  1       21 0.12400694E-01 0.44708036E+03</pdfrwt>
<pdfrwt beam="2">  1       21 0.87145987E-01 0.44708036E+03</pdfrwt>
<totfact> 0.57689230E+04</totfact>
</mgrwt>
</event>
<event>
 7    0  0.4705418E-002  0.4551344E+03  0.7546771E-02  0.1026202E+00
         21   -1    0    0  502  501  0.00000000000E+00  0.00000000000E+00  0.66981884866E+02  0.66981884866E+02  0.00000000000E+00 0.  1.
         21   -1    0    0  501  502 -0.00000000000E+00 -0.00000000000E+00 -0.77314688530E+03  0.77314688530E+03  0.00000000000E+00 0.  1.
      99926    2    1    2    0    0  0.00000000000E+00 -0.71054273576E-14 -0.70616500044E+03  0.84012877017E+03  0.45513442259E+03 0.  0.
      99925    2    3    3    0    0  0.26817203140E+02  0.42106555350E+02 -0.25589933635E+03  0.37015132311E+03  0.26274589867E+03 0.  0.
         25    1    3    3    0    0 -0.26817203140E+02 -0.42106555350E+02 -0.45026566409E+03  0.46997744706E+03  0.12509000000E+03 0.  0.
         25    1    4    4    0    0  0.44215268576E+02  0.26337818361E+00 -0.10677889859E+03  0.17030649027E+03  0.12509000000E+03 0.  0.
         25    1    4    4    0    0 -0.17398065436E+02  0.41843177166E+02 -0.14912043776E+03  0.19984483284E+03  0.12509000000E+03 0.  0.
<mgrwt>
<rscale>  2 0.45513442E+03</rscale>
<asrwt>0</asrwt>
<pdfrwt beam="1">  1       21 0.98502765E-02 0.45513442E+03</pdfrwt>
<pdfrwt beam="2">  1       21 0.11369808E+00 0.45513442E+03</pdfrwt>
<totfact> 0.45835872E+04</totfact>
</mgrwt>
</event>
<event>
 7    0  0.4705418E-002  0.4713718E+03  0.7546771E-02  0.1021534E+00
         21   -1    0    0  502  501  0.00000000000E+00  0.00000000000E+00  0.41125286776E+03  0.41125286776E+03  0.00000000000E+00 0. -1.
         21   -1    0    0  501  502 -0.00000000000E+00 -0.00000000000E+00 -0.13506978137E+03  0.13506978137E+03  0.00000000000E+00 0. -1.
      99926    2    1    2    0    0  0.00000000000E+00  0.35527136788E-14  0.27618308640E+03  0.54632264913E+03  0.47137176383E+03 0.  0.
      99925    2    3    3    0    0  0.10991959339E+03  0.13980790447E+02  0.97180198303E+02  0.30144038852E+03  0.26295348900E+03 0.  0.
         25    1    4    4    0    0  0.24261472788E+02  0.34265855529E+02  0.53356673426E+02  0.14232782797E+03  0.12509000000E+03 0.  0.
         25    1    3    3    0    0 -0.10991959339E+03 -0.13980790447E+02  0.17900288809E+03  0.24488226061E+03  0.12509000000E+03 0.  0.
         25    1    4    4    0    0  0.85658120607E+02 -0.20285065082E+02  0.43823524877E+02  0.15911256055E+03  0.12509000000E+03 0.  0.
<mgrwt>
<rscale>  2 0.47137176E+03</rscale>
<asrwt>0</asrwt>
<pdfrwt beam="1">  1       21 0.60478363E-01 0.47137176E+03</pdfrwt>
<pdfrwt beam="2">  1       21 0.19863203E-01 0.47137176E+03</pdfrwt>
<totfact> 0.54670094E+04</totfact>
</mgrwt>
</event>
<event>
 7    0  0.4705418E-002  0.4399232E+03  0.7546771E-02  0.1030770E+00
         21   -1    0    0  502  501  0.00000000000E+00  0.00000000000E+00  0.35240003517E+03  0.35240003517E+03  0.00000000000E+00 0. -1.
         21   -1    0    0  501  502 -0.00000000000E+00 -0.00000000000E+00 -0.13729598147E+03  0.13729598147E+03  0.00000000000E+00 0. -1.
      99926    2    1    2    0    0  0.00000000000E+00  0.71054273576E-14  0.21510405370E+03  0.48969601663E+03  0.43992321465E+03 0.  0.
      99925    2    3    3    0    0  0.80255163254E+02 -0.55266228924E+02  0.15255611931E+03  0.31924074542E+03  0.26295633993E+03 0.  0.
         25    1    3    3    0    0 -0.80255163254E+02  0.55266228924E+02  0.62547934396E+02  0.17045527122E+03  0.12509000000E+03 0.  0.
         25    1    4    4    0    0  0.75158196725E+02 -0.45600870847E+02  0.64846742847E+02  0.16607468836E+03  0.12509000000E+03 0.  0.
         25    1    4    4    0    0  0.50969665294E+01 -0.96653580770E+01  0.87709376462E+02  0.15316605706E+03  0.12509000000E+03 0.  0.
<mgrwt>
<rscale>  2 0.43992321E+03</rscale>
<asrwt>0</asrwt>
<pdfrwt beam="1">  1       21 0.51823535E-01 0.43992321E+03</pdfrwt>
<pdfrwt beam="2">  1       21 0.20190585E-01 0.43992321E+03</pdfrwt>
<totfact> 0.74529071E+04</totfact>
</mgrwt>
</event>
<event>
 7    0  0.4705418E-002  0.4596451E+03  0.7546771E-02  0.1024884E+00
         21   -1    0    0  502  501  0.00000000000E+00  0.00000000000E+00  0.26616911278E+03  0.26616911278E+03  0.00000000000E+00 0.  1.
         21   -1    0    0  501  502 -0.00000000000E+00 -0.00000000000E+00 -0.19843925143E+03  0.19843925143E+03  0.00000000000E+00 0.  1.
      99926    2    1    2    0    0  0.14210854715E-13  0.00000000000E+00  0.67729861348E+02  0.46460836421E+03  0.45964507826E+03 0.  0.
      99925    2    3    3    0    0 -0.11619435967E+03  0.92532270352E+01  0.27380593202E+02  0.28893160715E+03  0.26295441677E+03 0.  0.
         25    1    4    4    0    0 -0.16140460207E+02  0.14225412418E+02  0.20088826661E+02  0.12850659855E+03  0.12509000000E+03 0.  0.
         25    1    3    3    0    0  0.11619435967E+03 -0.92532270352E+01  0.40349268146E+02  0.17567675706E+03  0.12509000000E+03 0.  0.
         25    1    4    4    0    0 -0.10005389946E+03 -0.49721853828E+01  0.72917665413E+01  0.16042500860E+03  0.12509000000E+03 0.  0.
<mgrwt>
<rscale>  2 0.45964508E+03</rscale>
<asrwt>0</asrwt>
<pdfrwt beam="1">  1       21 0.39142517E-01 0.45964508E+03</pdfrwt>
<pdfrwt beam="2">  1       21 0.29182243E-01 0.45964508E+03</pdfrwt>
<totfact> 0.65389998E+04</totfact>
</mgrwt>
</event>
<event>
 7    0  0.4705418E-002  0.4518930E+03  0.7546771E-02  0.1027159E+00
         21   -1    0    0  502  501  0.00000000000E+00  0.00000000000E+00  0.60678834467E+03  0.60678834467E+03  0.00000000000E+00 0. -1.
         21   -1    0    0  501  502 -0.00000000000E+00 -0.00000000000E+00 -0.84134492055E+02  0.84134492055E+02  0.00000000000E+00 0. -1.
      99926    2    1    2    0    0  0.00000000000E+00  0.00000000000E+00  0.52265385262E+03  0.69092283673E+03  0.45189303674E+03 0.  0.
      99925    2    3    3    0    0  0.74912206702E+02 -0.72788967812E+02  0.38376903778E+03  0.47680470942E+03  0.26297145096E+03 0.  0.
         25    1    3    3    0    0 -0.74912206702E+02  0.72788967812E+02  0.13888481484E+03  0.21411812731E+03  0.12509000000E+03 0.  0.
         25    1    4    4    0    0  0.55022753001E+02 -0.42684440838E+02  0.26188975074E+03  0.29846811300E+03  0.12509000000E+03 0.  0.
         25    1    4    4    0    0  0.19889453701E+02 -0.30104526973E+02  0.12187928703E+03  0.17833659641E+03  0.12509000000E+03 0.  0.
<mgrwt>
<rscale>  2 0.45189304E+03</rscale>
<asrwt>0</asrwt>
<pdfrwt beam="1">  1       21 0.89233578E-01 0.45189304E+03</pdfrwt>
<pdfrwt beam="2">  1       21 0.12372720E-01 0.45189304E+03</pdfrwt>
<totfact> 0.54724828E+04</totfact>
</mgrwt>
</event>
<event>
 7    0  0.4705418E-002  0.4518316E+03  0.7546771E-02  0.1027177E+00
         21   -1    0    0  502  501  0.00000000000E+00  0.00000000000E+00  0.44682217004E+03  0.44682217004E+03  0.00000000000E+00 0.  1.
         21   -1    0    0  501  502 -0.00000000000E+00 -0.00000000000E+00 -0.11422430477E+03  0.11422430477E+03  0.00000000000E+00 0.  1.
      99926    2    1    2    0    0  0.17763568394E-14  0.00000000000E+00  0.33259786528E+03  0.56104647481E+03  0.45183161345E+03 0.  0.
      99925    2    3    3    0    0 -0.33745965997E+01 -0.91063033655E+02  0.13321687354E+03  0.30864966032E+03  0.26308556292E+03 0.  0.
         25    1    4    4    0    0  0.19948660837E+02 -0.74726161565E+02  0.93819189925E+02  0.17444625760E+03  0.12509000000E+03 0.  0.
         25    1    3    3    0    0  0.33745965997E+01  0.91063033655E+02  0.19938099174E+03  0.25239681449E+03  0.12509000000E+03 0.  0.
         25    1    4    4    0    0 -0.23323257437E+02 -0.16336872090E+02  0.39397683616E+02  0.13420340272E+03  0.12509000000E+03 0.  0.
<mgrwt>
<rscale>  2 0.45183161E+03</rscale>
<asrwt>0</asrwt>
<pdfrwt beam="1">  1       21 0.65709142E-01 0.45183161E+03</pdfrwt>
<pdfrwt beam="2">  1       21 0.16797692E-01 0.45183161E+03</pdfrwt>
<totfact> 0.62698971E+04</totfact>
</mgrwt>
</event>
<event>
 7    0  0.4705418E-002  0.4452099E+03  0.7546771E-02  0.1029160E+00
         21   -1    0    0  502  501  0.00000000000E+00  0.00000000000E+00  0.52924155493E+03  0.52924155493E+03  0.00000000000E+00 0.  1.
         21   -1    0    0  501  502 -0.00000000000E+00 -0.00000000000E+00 -0.93630129745E+02  0.93630129745E+02  0.00000000000E+00 0.  1.
      99926    2    1    2    0    0  0.00000000000E+00 -0.35527136788E-14  0.43561142518E+03  0.62287168467E+03  0.44520986267E+03 0.  0.
      99925    2    3    3    0    0  0.12109500081E+02 -0.27040862329E+02  0.41570390754E+03  0.49278838218E+03  0.26296920473E+03 0.  0.
         25    1    4    4    0    0 -0.32038215148E-01  0.16849541109E+01  0.27404437586E+03  0.30124851558E+03  0.12509000000E+03 0.  0.
         25    1    3    3    0    0 -0.12109500081E+02  0.27040862329E+02  0.19907517637E+02  0.13008330249E+03  0.12509000000E+03 0.  0.
         25    1    4    4    0    0  0.12141538296E+02 -0.28725816440E+02  0.14165953168E+03  0.19153986661E+03  0.12509000000E+03 0.  0.
<mgrwt>
<rscale>  2 0.44520986E+03</rscale>
<asrwt>0</asrwt>
<pdfrwt beam="1">  1       21 0.77829639E-01 0.44520986E+03</pdfrwt>
<pdfrwt beam="2">  1       21 0.13769137E-01 0.44520986E+03</pdfrwt>
<totfact> 0.61942979E+04</totfact>
</mgrwt>
</event>
<event>
 7    0  0.4705418E-002  0.4453965E+03  0.7546771E-02  0.1029104E+00
         21   -1    0    0  502  501  0.00000000000E+00  0.00000000000E+00  0.10276859933E+04  0.10276859933E+04  0.00000000000E+00 0. -1.
         21   -1    0    0  501  502 -0.00000000000E+00 -0.00000000000E+00 -0.48258417596E+02  0.48258417596E+02  0.00000000000E+00 0. -1.
      99926    2    1    2    0    0  0.00000000000E+00  0.00000000000E+00  0.97942757571E+03  0.10759444109E+04  0.44539645182E+03 0.  0.
      99925    2    3    3    0    0  0.28061335422E+02  0.75359217736E+02  0.46449483465E+03  0.53996895796E+03  0.26333357913E+03 0.  0.
         25    1    4    4    0    0  0.84391947799E+01  0.20522206514E+02  0.15022943024E+03  0.19674544665E+03  0.12509000000E+03 0.  0.
         25    1    4    4    0    0  0.19622140643E+02  0.54837011222E+02  0.31426540441E+03  0.34322351130E+03  0.12509000000E+03 0.  0.
         25    1    3    3    0    0 -0.28061335422E+02 -0.75359217736E+02  0.51493274106E+03  0.53597545294E+03  0.12509000000E+03 0.  0.
<mgrwt>
<rscale>  2 0.44539645E+03</rscale>
<asrwt>0</asrwt>
<pdfrwt beam="1">  1       21 0.15113028E+00 0.44539645E+03</pdfrwt>
<pdfrwt beam="2">  1       21 0.70968268E-02 0.44539645E+03</pdfrwt>
<totfact> 0.39195409E+04</totfact>
</mgrwt>
</event>
<event>
 7    0  0.4705418E-002  0.4532277E+03  0.7546771E-02  0.1026764E+00
         21   -1    0    0  502  501  0.00000000000E+00  0.00000000000E+00  0.21259625642E+03  0.21259625642E+03  0.00000000000E+00 0. -1.
         21   -1    0    0  501  502 -0.00000000000E+00 -0.00000000000E+00 -0.24155570960E+03  0.24155570960E+03  0.00000000000E+00 0. -1.
      99926    2    1    2    0    0  0.14210854715E-13  0.14210854715E-13 -0.28959453186E+02  0.45415196602E+03  0.45322771132E+03 0.  0.
      99925    2    3    3    0    0 -0.73816887027E+02 -0.77246397073E+02  0.12964618268E+02  0.28438425843E+03  0.26323067155E+03 0.  0.
         25    1    4    4    0    0 -0.26144679244E+01 -0.35311515518E+02 -0.18163039026E+02  0.13126744706E+03  0.12509000000E+03 0.  0.
         25    1    3    3    0    0  0.73816887027E+02  0.77246397073E+02 -0.41924071454E+02  0.16976770758E+03  0.12509000000E+03 0.  0.
         25    1    4    4    0    0 -0.71202419102E+02 -0.41934881556E+02  0.31127657294E+02  0.15311681138E+03  0.12509000000E+03 0.  0.
<mgrwt>
<rscale>  2 0.45322771E+03</rscale>
<asrwt>0</asrwt>
<pdfrwt beam="1">  1       21 0.31264155E-01 0.45322771E+03</pdfrwt>
<pdfrwt beam="2">  1       21 0.35522899E-01 0.45322771E+03</pdfrwt>
<totfact> 0.69586813E+04</totfact>
</mgrwt>
</event>
<event>
 7    0  0.4705418E-002  0.4545549E+03  0.7546771E-02  0.1026372E+00
         21   -1    0    0  502  501  0.00000000000E+00  0.00000000000E+00  0.33596838700E+02  0.33596838700E+02  0.00000000000E+00 0.  1.
         21   -1    0    0  501  502 -0.00000000000E+00 -0.00000000000E+00 -0.15374973207E+04  0.15374973207E+04  0.00000000000E+00 0.  1.
      99926    2    1    2    0    0  0.00000000000E+00  0.00000000000E+00 -0.15039004820E+04  0.15710941594E+04  0.45455494491E+03 0.  0.
      99925    2    3    3    0    0  0.78054094380E+02 -0.60054913476E+02 -0.75591811077E+03  0.80635618463E+03  0.26286702346E+03 0.  0.
         25    1    4    4    0    0  0.36156715937E+02 -0.12209810514E+02 -0.47002092537E+03  0.48787658887E+03  0.12509000000E+03 0.  0.
         25    1    3    3    0    0 -0.78054094380E+02  0.60054913476E+02 -0.74798237125E+03  0.76473797479E+03  0.12509000000E+03 0.  0.
         25    1    4    4    0    0  0.41897378442E+02 -0.47845102962E+02 -0.28589718540E+03  0.31847959577E+03  0.12509000000E+03 0.  0.
<mgrwt>
<rscale>  2 0.45455494E+03</rscale>
<asrwt>0</asrwt>
<pdfrwt beam="1">  1       21 0.49407129E-02 0.45455494E+03</pdfrwt>
<pdfrwt beam="2">  1       21 0.22610249E+00 0.45455494E+03</pdfrwt>
<totfact> 0.22165799E+04</totfact>
</mgrwt>
</event>
<event>
 7    0  0.4705418E-002  0.4531215E+03  0.7546771E-02  0.1026795E+00
         21   -1    0    0  502  501  0.00000000000E+00  0.00000000000E+00  0.75179999501E+02  0.75179999501E+02  0.00000000000E+00 0.  1.
         21   -1    0    0  501  502 -0.00000000000E+00 -0.00000000000E+00 -0.68275828537E+03  0.68275828537E+03  0.00000000000E+00 0.  1.
      99926    2    1    2    0    0  0.14210854715E-13 -0.71054273576E-14 -0.60757828587E+03  0.75793828487E+03  0.45312147401E+03 0.  0.
      99925    2    3    3    0    0 -0.10416216650E+03 -0.34840907739E+02 -0.35113130193E+03  0.45219949202E+03  0.26292117375E+03 0.  0.
         25    1    4    4    0    0 -0.74276162293E+02  0.15004346371E+02 -0.19714036235E+03  0.24546671722E+03  0.12509000000E+03 0.  0.
         25    1    3    3    0    0  0.10416216650E+03  0.34840907739E+02 -0.25644698394E+03  0.30573879285E+03  0.12509000000E+03 0.  0.
         25    1    4    4    0    0 -0.29886004202E+02 -0.49845254110E+02 -0.15399093958E+03  0.20673277480E+03  0.12509000000E+03 0.  0.
<mgrwt>
<rscale>  2 0.45312147E+03</rscale>
<asrwt>0</asrwt>
<pdfrwt beam="1">  1       21 0.11055882E-01 0.45312147E+03</pdfrwt>
<pdfrwt beam="2">  1       21 0.10040563E+00 0.45312147E+03</pdfrwt>
<totfact> 0.50608297E+04</totfact>
</mgrwt>
</event>
<event>
 7    0  0.4705418E-002  0.4568550E+03  0.7546771E-02  0.1025697E+00
         21   -1    0    0  502  501  0.00000000000E+00  0.00000000000E+00  0.33732827751E+03  0.33732827751E+03  0.00000000000E+00 0.  1.
         21   -1    0    0  501  502 -0.00000000000E+00 -0.00000000000E+00 -0.15468350573E+03  0.15468350573E+03  0.00000000000E+00 0.  1.
      99926    2    1    2    0    0  0.00000000000E+00  0.00000000000E+00  0.18264477178E+03  0.49201178324E+03  0.45685499032E+03 0.  0.
      99925    2    3    3    0    0 -0.69188794756E+02  0.36809727426E+02  0.24514242419E+02  0.27569068447E+03  0.26317743078E+03 0.  0.
         25    1    4    4    0    0 -0.55509488804E+02  0.21299517453E+02 -0.22794350646E+02  0.14036403853E+03  0.12509000000E+03 0.  0.
         25    1    4    4    0    0 -0.13679305952E+02  0.15510209972E+02  0.47308593065E+02  0.13532664594E+03  0.12509000000E+03 0.  0.
         25    1    3    3    0    0  0.69188794756E+02 -0.36809727426E+02  0.15813052936E+03  0.21632109876E+03  0.12509000000E+03 0.  0.
<mgrwt>
<rscale>  2 0.45685499E+03</rscale>
<asrwt>0</asrwt>
<pdfrwt beam="1">  1       21 0.49607100E-01 0.45685499E+03</pdfrwt>
<pdfrwt beam="2">  1       21 0.22747574E-01 0.45685499E+03</pdfrwt>
<totfact> 0.64874942E+04</totfact>
</mgrwt>
</event>
<event>
 7    0  0.4705418E-002  0.4367344E+03  0.7546771E-02  0.1031753E+00
         21   -1    0    0  502  501  0.00000000000E+00  0.00000000000E+00  0.98329162466E+02  0.98329162466E+02  0.00000000000E+00 0. -1.
         21   -1    0    0  501  502 -0.00000000000E+00 -0.00000000000E+00 -0.48494505909E+03  0.48494505909E+03  0.00000000000E+00 0. -1.
      99926    2    1    2    0    0 -0.35527136788E-14  0.00000000000E+00 -0.38661589662E+03  0.58327422155E+03  0.43673443419E+03 0.  0.
      99925    2    3    3    0    0 -0.31509236054E+02 -0.41721191203E+02 -0.35378511010E+03  0.44377920947E+03  0.26275957238E+03 0.  0.
         25    1    4    4    0    0  0.17203919801E+02 -0.23045397979E+02 -0.21052262685E+03  0.24656510244E+03  0.12509000000E+03 0.  0.
         25    1    4    4    0    0 -0.48713155855E+02 -0.18675793223E+02 -0.14326248325E+03  0.19721410703E+03  0.12509000000E+03 0.  0.
         25    1    3    3    0    0  0.31509236054E+02  0.41721191203E+02 -0.32830786523E+02  0.13949501208E+03  0.12509000000E+03 0.  0.
<mgrwt>
<rscale>  2 0.43673443E+03</rscale>
<asrwt>0</asrwt>
<pdfrwt beam="1">  1       21 0.14460171E-01 0.43673443E+03</pdfrwt>
<pdfrwt beam="2">  1       21 0.71315451E-01 0.43673443E+03</pdfrwt>
<totfact> 0.69179919E+04</totfact>
</mgrwt>
</event>
<event>
 7    0  0.4705418E-002  0.4420214E+03  0.7546771E-02  0.1030128E+00
         21   -1    0    0  502  501  0.00000000000E+00  0.00000000000E+00  0.13761080957E+03  0.13761080957E+03  0.00000000000E+00 0.  1.
         21   -1    0    0  501  502 -0.00000000000E+00 -0.00000000000E+00 -0.35495567406E+03  0.35495567406E+03  0.00000000000E+00 0.  1.
      99926    2    1    2    0    0  0.00000000000E+00  0.00000000000E+00 -0.21734486449E+03  0.49256648363E+03  0.44202143690E+03 0.  0.
      99925    2    3    3    0    0 -0.69232023341E+02 -0.49092166262E+02 -0.19842945883E+03  0.34022340202E+03  0.26301064485E+03 0.  0.
         25    1    3    3    0    0  0.69232023341E+02  0.49092166262E+02 -0.18915405656E+02  0.15234308161E+03  0.12509000000E+03 0.  0.
         25    1    4    4    0    0 -0.60319024505E+01 -0.51922422692E+02 -0.86221537191E+02  0.16066730657E+03  0.12509000000E+03 0.  0.
         25    1    4    4    0    0 -0.63200120891E+02  0.28302564303E+01 -0.11220792164E+03  0.17955609544E+03  0.12509000000E+03 0.  0.
<mgrwt>
<rscale>  2 0.44202144E+03</rscale>
<asrwt>0</asrwt>
<pdfrwt beam="1">  1       21 0.20236884E-01 0.44202144E+03</pdfrwt>
<pdfrwt beam="2">  1       21 0.52199363E-01 0.44202144E+03</pdfrwt>
<totfact> 0.73035400E+04</totfact>
</mgrwt>
</event>
<event>
 7    0  0.4705418E-002  0.4419527E+03  0.7546771E-02  0.1030149E+00
         21   -1    0    0  502  501  0.00000000000E+00  0.00000000000E+00  0.39763925958E+03  0.39763925958E+03  0.00000000000E+00 0.  1.
         21   -1    0    0  501  502 -0.00000000000E+00 -0.00000000000E+00 -0.12280113391E+03  0.12280113391E+03  0.00000000000E+00 0.  1.
      99926    2    1    2    0    0  0.00000000000E+00  0.00000000000E+00  0.27483812567E+03  0.52044039349E+03  0.44195272129E+03 0.  0.
      99925    2    3    3    0    0  0.74085793258E+02 -0.61903065758E+02  0.20758585684E+03  0.34871075110E+03  0.26303346871E+03 0.  0.
         25    1    4    4    0    0  0.34762614159E+02 -0.62485271552E+02  0.14120078156E+03  0.20173749606E+03  0.12509000000E+03 0.  0.
         25    1    3    3    0    0 -0.74085793258E+02  0.61903065758E+02  0.67252268829E+02  0.17172964239E+03  0.12509000000E+03 0.  0.
         25    1    4    4    0    0  0.39323179099E+02  0.58220579443E+00  0.66385075282E+02  0.14697325504E+03  0.12509000000E+03 0.  0.
<mgrwt>
<rscale>  2 0.44195272E+03</rscale>
<asrwt>0</asrwt>
<pdfrwt beam="1">  1       21 0.58476361E-01 0.44195272E+03</pdfrwt>
<pdfrwt beam="2">  1       21 0.18058990E-01 0.44195272E+03</pdfrwt>
<totfact> 0.70909364E+04</totfact>
</mgrwt>
</event>
<event>
 7    0  0.4705418E-002  0.4487533E+03  0.7546771E-02  0.1028094E+00
         21   -1    0    0  502  501  0.00000000000E+00  0.00000000000E+00  0.83886694700E+03  0.83886694700E+03  0.00000000000E+00 0. -1.
         21   -1    0    0  501  502 -0.00000000000E+00 -0.00000000000E+00 -0.60015324705E+02  0.60015324705E+02  0.00000000000E+00 0. -1.
      99926    2    1    2    0    0  0.00000000000E+00  0.14210854715E-13  0.77885162230E+03  0.89888227171E+03  0.44875326053E+03 0.  0.
      99925    2    3    3    0    0  0.25054280976E+02  0.10448298533E+03  0.46000876243E+03  0.53992170478E+03  0.26146314189E+03 0.  0.
         25    1    3    3    0    0 -0.25054280976E+02 -0.10448298533E+03  0.31884285987E+03  0.35896056693E+03  0.12509000000E+03 0.  0.
         25    1    4    4    0    0  0.40080012310E+02  0.77227007246E+02  0.22225603257E+03  0.26947294883E+03  0.12509000000E+03 0.  0.
         25    1    4    4    0    0 -0.15025731334E+02  0.27255978082E+02  0.23775272985E+03  0.27044875595E+03  0.12509000000E+03 0.  0.
<mgrwt>
<rscale>  2 0.44875326E+03</rscale>
<asrwt>0</asrwt>
<pdfrwt beam="1">  1       21 0.12336278E+00 0.44875326E+03</pdfrwt>
<pdfrwt beam="2">  1       21 0.88257836E-02 0.44875326E+03</pdfrwt>
<totfact> 0.45464847E+04</totfact>
</mgrwt>
</event>
<event>
 7    0  0.4705418E-002  0.4501935E+03  0.7546771E-02  0.1027664E+00
         21   -1    0    0  502  501  0.00000000000E+00  0.00000000000E+00  0.61611475294E+02  0.61611475294E+02  0.00000000000E+00 0. -1.
         21   -1    0    0  501  502 -0.00000000000E+00 -0.00000000000E+00 -0.82238815005E+03  0.82238815005E+03  0.00000000000E+00 0. -1.
      99926    2    1    2    0    0  0.14210854715E-13 -0.26645352591E-14 -0.76077667476E+03  0.88399962534E+03  0.45019350146E+03 0.  0.
      99925    2    3    3    0    0  0.83405739134E+02 -0.79514328454E+01 -0.61650937952E+03  0.67548031406E+03  0.26300208561E+03 0.  0.
         25    1    3    3    0    0 -0.83405739134E+02  0.79514328454E+01 -0.14426729523E+03  0.20851931128E+03  0.12509000000E+03 0.  0.
         25    1    4    4    0    0  0.79709561498E+02 -0.19315516646E+02 -0.30952732571E+03  0.34377518357E+03  0.12509000000E+03 0.  0.
         25    1    4    4    0    0  0.36961776358E+01  0.11364083801E+02 -0.30698205381E+03  0.33170513049E+03  0.12509000000E+03 0.  0.
<mgrwt>
<rscale>  2 0.45019350E+03</rscale>
<asrwt>0</asrwt>
<pdfrwt beam="1">  1       21 0.90605110E-02 0.45019350E+03</pdfrwt>
<pdfrwt beam="2">  1       21 0.12093944E+00 0.45019350E+03</pdfrwt>
<totfact> 0.45626073E+04</totfact>
</mgrwt>
</event>
<event>
 7    0  0.4705418E-002  0.4559026E+03  0.7546771E-02  0.1025976E+00
         21   -1    0    0  502  501  0.00000000000E+00  0.00000000000E+00  0.26293826394E+03  0.26293826394E+03  0.00000000000E+00 0. -1.
         21   -1    0    0  501  502 -0.00000000000E+00 -0.00000000000E+00 -0.19761974582E+03  0.19761974582E+03  0.00000000000E+00 0. -1.
      99926    2    1    2    0    0 -0.14210854715E-13  0.00000000000E+00  0.65318518117E+02  0.46055800976E+03  0.45590258997E+03 0.  0.
      99925    2    3    3    0    0  0.92021256666E+02 -0.67432779523E+02  0.46804315927E+02  0.29024836465E+03  0.26275155140E+03 0.  0.
         25    1    3    3    0    0 -0.92021256666E+02  0.67432779523E+02  0.18514202190E+02  0.17030964510E+03  0.12509000000E+03 0.  0.
         25    1    4    4    0    0  0.74245400099E+02 -0.23977294905E+02  0.52552787038E+02  0.15651387680E+03  0.12509000000E+03 0.  0.
         25    1    4    4    0    0  0.17775856566E+02 -0.43455484618E+02 -0.57484711105E+01  0.13373448785E+03  0.12509000000E+03 0.  0.
<mgrwt>
<rscale>  2 0.45590259E+03</rscale>
<asrwt>0</asrwt>
<pdfrwt beam="1">  1       21 0.38667392E-01 0.45590259E+03</pdfrwt>
<pdfrwt beam="2">  1       21 0.29061727E-01 0.45590259E+03</pdfrwt>
<totfact> 0.67651665E+04</totfact>
</mgrwt>
</event>
<event>
 7    0  0.4705418E-002  0.4533714E+03  0.7546771E-02  0.1026721E+00
         21   -1    0    0  502  501  0.00000000000E+00  0.00000000000E+00  0.18511307833E+04  0.18511307833E+04  0.00000000000E+00 0.  1.
         21   -1    0    0  501  502 -0.00000000000E+00 -0.00000000000E+00 -0.27759471657E+02  0.27759471657E+02  0.00000000000E+00 0.  1.
      99926    2    1    2    0    0  0.00000000000E+00  0.00000000000E+00  0.18233713116E+04  0.18788902549E+04  0.45337142615E+03 0.  0.
      99925    2    3    3    0    0 -0.43763416198E+02  0.99795667437E+02  0.10489086195E+04  0.10868584492E+04  0.26301631988E+03 0.  0.
         25    1    3    3    0    0  0.43763416198E+02 -0.99795667437E+02  0.77446269209E+03  0.79203180578E+03  0.12509000000E+03 0.  0.
         25    1    4    4    0    0 -0.43727567860E+02  0.64054053444E+02  0.43208521793E+03  0.45646485692E+03  0.12509000000E+03 0.  0.
         25    1    4    4    0    0 -0.35848337288E-01  0.35741613994E+02  0.61682340161E+03  0.63039359223E+03  0.12509000000E+03 0.  0.
<mgrwt>
<rscale>  2 0.45337143E+03</rscale>
<asrwt>0</asrwt>
<pdfrwt beam="1">  1       21 0.27222503E+00 0.45337143E+03</pdfrwt>
<pdfrwt beam="2">  1       21 0.40822765E-02 0.45337143E+03</pdfrwt>
<totfact> 0.15990725E+04</totfact>
</mgrwt>
</event>
<event>
 7    0  0.4705418E-002  0.4436117E+03  0.7546771E-02  0.1029644E+00
         21   -1    0    0  502  501  0.00000000000E+00  0.00000000000E+00  0.24583821292E+04  0.24583821292E+04  0.00000000000E+00 0.  1.
         21   -1    0    0  501  502 -0.00000000000E+00 -0.00000000000E+00 -0.20012278763E+02  0.20012278763E+02  0.00000000000E+00 0.  1.
      99926    2    1    2    0    0  0.00000000000E+00  0.00000000000E+00  0.24383698504E+04  0.24783944079E+04  0.44361167016E+03 0.  0.
      99925    2    3    3    0    0  0.43662836248E+02  0.72440603222E+02  0.18707719147E+04  0.18910537836E+04  0.26295013102E+03 0.  0.
         25    1    3    3    0    0 -0.43662836248E+02 -0.72440603222E+02  0.56759793569E+03  0.58734062431E+03  0.12509000000E+03 0.  0.
         25    1    4    4    0    0  0.26943251895E+02  0.46971474897E+02  0.12259572962E+04  0.12335116774E+04  0.12509000000E+03 0.  0.
         25    1    4    4    0    0  0.16719584353E+02  0.25469128325E+02  0.64481461858E+03  0.65754210621E+03  0.12509000000E+03 0.  0.
<mgrwt>
<rscale>  2 0.44361167E+03</rscale>
<asrwt>0</asrwt>
<pdfrwt beam="1">  1       21 0.36152658E+00 0.44361167E+03</pdfrwt>
<pdfrwt beam="2">  1       21 0.29429839E-02 0.44361167E+03</pdfrwt>
<totfact> 0.80443839E+03</totfact>
</mgrwt>
</event>
<event>
 7    0  0.4705418E-002  0.4584877E+03  0.7546771E-02  0.1025221E+00
         21   -1    0    0  502  501  0.00000000000E+00  0.00000000000E+00  0.15409036081E+04  0.15409036081E+04  0.00000000000E+00 0.  1.
         21   -1    0    0  501  502 -0.00000000000E+00 -0.00000000000E+00 -0.34105141136E+02  0.34105141136E+02  0.00000000000E+00 0.  1.
      99926    2    1    2    0    0  0.00000000000E+00  0.00000000000E+00  0.15067984670E+04  0.15750087493E+04  0.45848766628E+03 0.  0.
      99925    2    3    3    0    0 -0.89517014778E+02  0.73054293955E+02  0.89724969595E+03  0.94212057733E+03  0.26302840063E+03 0.  0.
         25    1    4    4    0    0 -0.76744780511E+02  0.49011266844E+02  0.40656318814E+03  0.43500919492E+03  0.12509000000E+03 0.  0.
         25    1    3    3    0    0  0.89517014778E+02 -0.73054293955E+02  0.60954877106E+03  0.63288817195E+03  0.12509000000E+03 0.  0.
         25    1    4    4    0    0 -0.12772234267E+02  0.24043027110E+02  0.49068650781E+03  0.50711138241E+03  0.12509000000E+03 0.  0.
<mgrwt>
<rscale>  2 0.45848767E+03</rscale>
<asrwt>0</asrwt>
<pdfrwt beam="1">  1       21 0.22660343E+00 0.45848767E+03</pdfrwt>
<pdfrwt beam="2">  1       21 0.50154630E-02 0.45848767E+03</pdfrwt>
<totfact> 0.21413322E+04</totfact>
</mgrwt>
</event>
<event>
 7    0  0.4705418E-002  0.4107114E+03  0.7546771E-02  0.1040133E+00
         21   -1    0    0  502  501  0.00000000000E+00  0.00000000000E+00  0.39448105299E+02  0.39448105299E+02  0.00000000000E+00 0. -1.
         21   -1    0    0  501  502 -0.00000000000E+00 -0.00000000000E+00 -0.10690235929E+04  0.10690235929E+04  0.00000000000E+00 0. -1.
      99926    2    1    2    0    0  0.00000000000E+00  0.00000000000E+00 -0.10295754876E+04  0.11084716982E+04  0.41071135976E+03 0.  0.
      99925    2    3    3    0    0 -0.57418474464E+01 -0.25771426794E+02 -0.83315302215E+03  0.87410781812E+03  0.26310337157E+03 0.  0.
         25    1    3    3    0    0  0.57418474464E+01  0.25771426794E+02 -0.19642246545E+03  0.23436388008E+03  0.12509000000E+03 0.  0.
         25    1    4    4    0    0 -0.15405794680E+01 -0.36569034910E+02 -0.31407777019E+03  0.34004708722E+03  0.12509000000E+03 0.  0.
         25    1    4    4    0    0 -0.42012679784E+01  0.10797608115E+02 -0.51907525196E+03  0.53406073090E+03  0.12509000000E+03 0.  0.
<mgrwt>
<rscale>  2 0.41071136E+03</rscale>
<asrwt>0</asrwt>
<pdfrwt beam="1">  1       21 0.58011925E-02 0.41071136E+03</pdfrwt>
<pdfrwt beam="2">  1       21 0.15720934E+00 0.41071136E+03</pdfrwt>
<totfact> 0.50515253E+04</totfact>
</mgrwt>
</event>
<event>
 7    0  0.4705418E-002  0.4534748E+03  0.7546771E-02  0.1026691E+00
         21   -1    0    0  502  501  0.00000000000E+00  0.00000000000E+00  0.61808658160E+03  0.61808658160E+03  0.00000000000E+00 0.  1.
         21   -1    0    0  501  502 -0.00000000000E+00 -0.00000000000E+00 -0.83175811140E+02  0.83175811140E+02  0.00000000000E+00 0.  1.
      99926    2    1    2    0    0  0.00000000000E+00  0.00000000000E+00  0.53491077046E+03  0.70126239274E+03  0.45347481861E+03 0.  0.
      99925    2    3    3    0    0  0.40502880991E+02 -0.10401409564E+03  0.32772300974E+03  0.43474092690E+03  0.26294084306E+03 0.  0.
         25    1    4    4    0    0  0.37130495109E+02 -0.88866975501E+02  0.15825585540E+03  0.22353620930E+03  0.12509000000E+03 0.  0.
         25    1    3    3    0    0 -0.40502880991E+02  0.10401409564E+03  0.20718776072E+03  0.26652146584E+03  0.12509000000E+03 0.  0.
         25    1    4    4    0    0  0.33723858817E+01 -0.15147120138E+02  0.16946715435E+03  0.21120471760E+03  0.12509000000E+03 0.  0.
<mgrwt>
<rscale>  2 0.45347482E+03</rscale>
<asrwt>0</asrwt>
<pdfrwt beam="1">  1       21 0.90895083E-01 0.45347482E+03</pdfrwt>
<pdfrwt beam="2">  1       21 0.12231737E-01 0.45347482E+03</pdfrwt>
<totfact> 0.53473393E+04</totfact>
</mgrwt>
</event>
<event>
 7    0  0.4705418E-002  0.4508334E+03  0.7546771E-02  0.1027474E+00
         21   -1    0    0  502  501  0.00000000000E+00  0.00000000000E+00  0.49780641281E+03  0.49780641281E+03  0.00000000000E+00 0.  1.
         21   -1    0    0  501  502 -0.00000000000E+00 -0.00000000000E+00 -0.10207319431E+03  0.10207319431E+03  0.00000000000E+00 0.  1.
      99926    2    1    2    0    0  0.00000000000E+00  0.00000000000E+00  0.39573321850E+03  0.59987960712E+03  0.45083340915E+03 0.  0.
      99925    2    3    3    0    0  0.51971849909E+02 -0.95892669763E+02  0.24838553240E+03  0.37794419760E+03  0.26315388368E+03 0.  0.
         25    1    3    3    0    0 -0.51971849909E+02  0.95892669763E+02  0.14734768610E+03  0.22193540951E+03  0.12509000000E+03 0.  0.
         25    1    4    4    0    0  0.51995060917E+02 -0.60775303034E+02  0.17203304167E+03  0.22724436042E+03  0.12509000000E+03 0.  0.
         25    1    4    4    0    0 -0.23211007670E-01 -0.35117366728E+02  0.76352490736E+02  0.15069983718E+03  0.12509000000E+03 0.  0.
<mgrwt>
<rscale>  2 0.45083341E+03</rscale>
<asrwt>0</asrwt>
<pdfrwt beam="1">  1       21 0.73206825E-01 0.45083341E+03</pdfrwt>
<pdfrwt beam="2">  1       21 0.15010764E-01 0.45083341E+03</pdfrwt>
<totfact> 0.60658060E+04</totfact>
</mgrwt>
</event>
<event>
 7    0  0.4705418E-002  0.4515845E+03  0.7546771E-02  0.1027251E+00
         21   -1    0    0  502  501  0.00000000000E+00  0.00000000000E+00  0.56283021263E+03  0.56283021263E+03  0.00000000000E+00 0.  1.
         21   -1    0    0  501  502 -0.00000000000E+00 -0.00000000000E+00 -0.90581730084E+02  0.90581730084E+02  0.00000000000E+00 0.  1.
      99926    2    1    2    0    0  0.00000000000E+00 -0.71054273576E-14  0.47224848254E+03  0.65341194271E+03  0.45158447451E+03 0.  0.
      99925    2    3    3    0    0  0.45460160981E+02 -0.56250144425E+02  0.41791773250E+03  0.49904211572E+03  0.26297737003E+03 0.  0.
         25    1    4    4    0    0 -0.11010127156E+01 -0.37358854097E+02  0.26344452811E+03  0.29401942742E+03  0.12509000000E+03 0.  0.
         25    1    4    4    0    0  0.46561173696E+02 -0.18891290327E+02  0.15447320439E+03  0.20502268831E+03  0.12509000000E+03 0.  0.
         25    1    3    3    0    0 -0.45460160981E+02  0.56250144425E+02  0.54330750047E+02  0.15436982699E+03  0.12509000000E+03 0.  0.
<mgrwt>
<rscale>  2 0.45158447E+03</rscale>
<asrwt>0</asrwt>
<pdfrwt beam="1">  1       21 0.82769147E-01 0.45158447E+03</pdfrwt>
<pdfrwt beam="2">  1       21 0.13320843E-01 0.45158447E+03</pdfrwt>
<totfact> 0.57026248E+04</totfact>
</mgrwt>
</event>
<event>
 7    0  0.4705418E-002  0.4647299E+03  0.7546771E-02  0.1023418E+00
         21   -1    0    0  502  501  0.00000000000E+00  0.00000000000E+00  0.92256600509E+02  0.92256600509E+02  0.00000000000E+00 0.  1.
         21   -1    0    0  501  502 -0.00000000000E+00 -0.00000000000E+00 -0.58525319723E+03  0.58525319723E+03  0.00000000000E+00 0.  1.
      99926    2    1    2    0    0 -0.71054273576E-14  0.71054273576E-14 -0.49299659673E+03  0.67750979774E+03  0.46472990183E+03 0.  0.
      99925    2    3    3    0    0  0.56238781166E+02 -0.51210673866E+02 -0.16838484703E+03  0.32141201655E+03  0.26299599627E+03 0.  0.
         25    1    4    4    0    0  0.36248911311E+02 -0.50006725850E+02 -0.50503398452E+02  0.14836696922E+03  0.12509000000E+03 0.  0.
         25    1    4    4    0    0  0.19989869855E+02 -0.12039480160E+01 -0.11788144858E+03  0.17304504733E+03  0.12509000000E+03 0.  0.
         25    1    3    3    0    0 -0.56238781166E+02  0.51210673866E+02 -0.32461174970E+03  0.35609778119E+03  0.12509000000E+03 0.  0.
<mgrwt>
<rscale>  2 0.46472990E+03</rscale>
<asrwt>0</asrwt>
<pdfrwt beam="1">  1       21 0.13567147E-01 0.46472990E+03</pdfrwt>
<pdfrwt beam="2">  1       21 0.86066646E-01 0.46472990E+03</pdfrwt>
<totfact> 0.50181191E+04</totfact>
</mgrwt>
</event>
<event>
 7    0  0.4705418E-002  0.4610630E+03  0.7546771E-02  0.1024473E+00
         21   -1    0    0  502  501  0.00000000000E+00  0.00000000000E+00  0.42715351799E+03  0.42715351799E+03  0.00000000000E+00 0. -1.
         21   -1    0    0  501  502 -0.00000000000E+00 -0.00000000000E+00 -0.12441607953E+03  0.12441607953E+03  0.00000000000E+00 0. -1.
      99926    2    1    2    0    0  0.00000000000E+00  0.00000000000E+00  0.30273743846E+03  0.55156959752E+03  0.46106297212E+03 0.  0.
      99925    2    3    3    0    0  0.10757546978E+03  0.48758734475E+02  0.20362894563E+03  0.35302515076E+03  0.26308195242E+03 0.  0.
         25    1    3    3    0    0 -0.10757546978E+03 -0.48758734475E+02  0.99108492832E+02  0.19854444676E+03  0.12509000000E+03 0.  0.
         25    1    4    4    0    0  0.70544967398E+02 -0.87896192360E+00  0.69897013212E+02  0.15971995979E+03  0.12509000000E+03 0.  0.
         25    1    4    4    0    0  0.37030502382E+02  0.49637696399E+02  0.13373193241E+03  0.19330519097E+03  0.12509000000E+03 0.  0.
<mgrwt>
<rscale>  2 0.46106297E+03</rscale>
<asrwt>0</asrwt>
<pdfrwt beam="1">  1       21 0.62816693E-01 0.46106297E+03</pdfrwt>
<pdfrwt beam="2">  1       21 0.18296482E-01 0.46106297E+03</pdfrwt>
<totfact> 0.58886947E+04</totfact>
</mgrwt>
</event>
<event>
 7    0  0.4705418E-002  0.4605337E+03  0.7546771E-02  0.1024627E+00
         21   -1    0    0  502  501  0.00000000000E+00  0.00000000000E+00  0.61928290728E+02  0.61928290728E+02  0.00000000000E+00 0. -1.
         21   -1    0    0  501  502 -0.00000000000E+00 -0.00000000000E+00 -0.85619720991E+03  0.85619720991E+03  0.00000000000E+00 0. -1.
      99926    2    1    2    0    0  0.00000000000E+00  0.88817841970E-15 -0.79426891918E+03  0.91812550064E+03  0.46053373269E+03 0.  0.
      99925    2    3    3    0    0  0.11779042419E+03  0.71270576997E+01 -0.50551974378E+03  0.58204668045E+03  0.26325415076E+03 0.  0.
         25    1    4    4    0    0  0.18205183055E+02 -0.13083591742E+02 -0.23490078289E+03  0.26707395037E+03  0.12509000000E+03 0.  0.
         25    1    3    3    0    0 -0.11779042419E+03 -0.71270576997E+01 -0.28874917540E+03  0.33607882019E+03  0.12509000000E+03 0.  0.
         25    1    4    4    0    0  0.99585241137E+02  0.20210649441E+02 -0.27061896089E+03  0.31497273008E+03  0.12509000000E+03 0.  0.
<mgrwt>
<rscale>  2 0.46053373E+03</rscale>
<asrwt>0</asrwt>
<pdfrwt beam="1">  1       21 0.91071013E-02 0.46053373E+03</pdfrwt>
<pdfrwt beam="2">  1       21 0.12591136E+00 0.46053373E+03</pdfrwt>
<totfact> 0.40668971E+04</totfact>
</mgrwt>
</event>
<event>
 7    0  0.4705418E-002  0.4518952E+03  0.7546771E-02  0.1027158E+00
         21   -1    0    0  502  501  0.00000000000E+00  0.00000000000E+00  0.41106771294E+02  0.41106771294E+02  0.00000000000E+00 0.  1.
         21   -1    0    0  501  502 -0.00000000000E+00 -0.00000000000E+00 -0.12419444410E+04  0.12419444410E+04  0.00000000000E+00 0.  1.
      99926    2    1    2    0    0  0.00000000000E+00 -0.71054273576E-14 -0.12008376697E+04  0.12830512123E+04  0.45189523607E+03 0.  0.
      99925    2    3    3    0    0 -0.88834225685E+02  0.63425602902E+02 -0.79310499550E+03  0.84281517507E+03  0.26345314324E+03 0.  0.
         25    1    3    3    0    0  0.88834225685E+02 -0.63425602902E+02 -0.40773267423E+03  0.44023603724E+03  0.12509000000E+03 0.  0.
         25    1    4    4    0    0 -0.82291600800E+02  0.14983443089E+02 -0.39704329635E+03  0.42460251813E+03  0.12509000000E+03 0.  0.
         25    1    4    4    0    0 -0.65426248852E+01  0.48442159813E+02 -0.39606169915E+03  0.41821265694E+03  0.12509000000E+03 0.  0.
<mgrwt>
<rscale>  2 0.45189524E+03</rscale>
<asrwt>0</asrwt>
<pdfrwt beam="1">  1       21 0.60451140E-02 0.45189524E+03</pdfrwt>
<pdfrwt beam="2">  1       21 0.18263887E+00 0.45189524E+03</pdfrwt>
<totfact> 0.30337047E+04</totfact>
</mgrwt>
</event>
<event>
 7    0  0.4705418E-002  0.4541814E+03  0.7546771E-02  0.1026482E+00
         21   -1    0    0  502  501  0.00000000000E+00  0.00000000000E+00  0.53435929747E+03  0.53435929747E+03  0.00000000000E+00 0. -1.
         21   -1    0    0  501  502 -0.00000000000E+00 -0.00000000000E+00 -0.96508466310E+02  0.96508466310E+02  0.00000000000E+00 0. -1.
      99926    2    1    2    0    0 -0.71054273576E-14  0.00000000000E+00  0.43785083116E+03  0.63086776378E+03  0.45418144505E+03 0.  0.
      99925    2    3    3    0    0 -0.58247594238E+02  0.38176911115E+01  0.40915016751E+03  0.48987629881E+03  0.26299728433E+03 0.  0.
         25    1    4    4    0    0 -0.20862324763E+02 -0.15146439067E+02  0.13620001011E+03  0.18671529682E+03  0.12509000000E+03 0.  0.
         25    1    4    4    0    0 -0.37385269475E+02  0.18964130178E+02  0.27295015740E+03  0.30316100199E+03  0.12509000000E+03 0.  0.
         25    1    3    3    0    0  0.58247594238E+02 -0.38176911115E+01  0.28700663651E+02  0.14099146497E+03  0.12509000000E+03 0.  0.
<mgrwt>
<rscale>  2 0.45418145E+03</rscale>
<asrwt>0</asrwt>
<pdfrwt beam="1">  1       21 0.78582248E-01 0.45418145E+03</pdfrwt>
<pdfrwt beam="2">  1       21 0.14192422E-01 0.45418145E+03</pdfrwt>
<totfact> 0.57186001E+04</totfact>
</mgrwt>
</event>
<event>
 7    0  0.4705418E-002  0.4535145E+03  0.7546771E-02  0.1026679E+00
         21   -1    0    0  502  501  0.00000000000E+00  0.00000000000E+00  0.48014797331E+03  0.48014797331E+03  0.00000000000E+00 0.  1.
         21   -1    0    0  501  502 -0.00000000000E+00 -0.00000000000E+00 -0.10708961364E+03  0.10708961364E+03  0.00000000000E+00 0.  1.
      99926    2    1    2    0    0 -0.14210854715E-13  0.00000000000E+00  0.37305835967E+03  0.58723758694E+03  0.45351454640E+03 0.  0.
      99925    2    3    3    0    0 -0.75626923240E+02 -0.71383433844E+02  0.28846677378E+03  0.40388472864E+03  0.26285883722E+03 0.  0.
         25    1    3    3    0    0  0.75626923240E+02  0.71383433844E+02  0.84591585891E+02  0.18335285831E+03  0.12509000000E+03 0.  0.
         25    1    4    4    0    0 -0.55562615388E+02 -0.73278682946E+02  0.17313403556E+03  0.23255079439E+03  0.12509000000E+03 0.  0.
         25    1    4    4    0    0 -0.20064307852E+02  0.18952491020E+01  0.11533273822E+03  0.17133393424E+03  0.12509000000E+03 0.  0.
<mgrwt>
<rscale>  2 0.45351455E+03</rscale>
<asrwt>0</asrwt>
<pdfrwt beam="1">  1       21 0.70609995E-01 0.45351455E+03</pdfrwt>
<pdfrwt beam="2">  1       21 0.15748473E-01 0.45351455E+03</pdfrwt>
<totfact> 0.60174191E+04</totfact>
</mgrwt>
</event>
<event>
 7    0  0.4705418E-002  0.4428138E+03  0.7546771E-02  0.1029887E+00
         21   -1    0    0  502  501  0.00000000000E+00  0.00000000000E+00  0.12214359029E+03  0.12214359029E+03  0.00000000000E+00 0. -1.
         21   -1    0    0  501  502 -0.00000000000E+00 -0.00000000000E+00 -0.40133923320E+03  0.40133923320E+03  0.00000000000E+00 0. -1.
      99926    2    1    2    0    0  0.35527136788E-14  0.00000000000E+00 -0.27919564291E+03  0.52348282350E+03  0.44281379774E+03 0.  0.
      99925    2    3    3    0    0 -0.17425332870E+02  0.98827972547E+02 -0.19332709329E+03  0.34157205884E+03  0.26310738491E+03 0.  0.
         25    1    4    4    0    0 -0.18306329776E+02  0.87503633628E+02 -0.84859841724E+02  0.17561522840E+03  0.12509000000E+03 0.  0.
         25    1    4    4    0    0  0.88099690638E+00  0.11324338919E+02 -0.10846725157E+03  0.16595683044E+03  0.12509000000E+03 0.  0.
         25    1    3    3    0    0  0.17425332870E+02 -0.98827972547E+02 -0.85868549619E+02  0.18191076465E+03  0.12509000000E+03 0.  0.
<mgrwt>
<rscale>  2 0.44281380E+03</rscale>
<asrwt>0</asrwt>
<pdfrwt beam="1">  1       21 0.17962293E-01 0.44281380E+03</pdfrwt>
<pdfrwt beam="2">  1       21 0.59020476E-01 0.44281380E+03</pdfrwt>
<totfact> 0.70183662E+04</totfact>
</mgrwt>
</event>
<event>
 7    0  0.4705418E-002  0.4551344E+03  0.7546771E-02  0.1026202E+00
         21   -1    0    0  502  501  0.00000000000E+00  0.00000000000E+00  0.24045356357E+02  0.24045356357E+02  0.00000000000E+00 0.  1.
         21   -1    0    0  501  502 -0.00000000000E+00 -0.00000000000E+00 -0.21537142714E+04  0.21537142714E+04  0.00000000000E+00 0.  1.
      99926    2    1    2    0    0  0.00000000000E+00  0.00000000000E+00 -0.21296689150E+04  0.21777596278E+04  0.45513438520E+03 0.  0.
      99925    2    3    3    0    0 -0.36193343741E+02 -0.92529909684E+02 -0.10794589736E+04  0.11154695678E+04  0.26299988336E+03 0.  0.
         25    1    4    4    0    0 -0.22043669683E+02 -0.67432732393E+02 -0.42888681629E+03  0.45235440316E+03  0.12509000000E+03 0.  0.
         25    1    4    4    0    0 -0.14149674058E+02 -0.25097177291E+02 -0.65057215735E+03  0.66311516466E+03  0.12509000000E+03 0.  0.
         25    1    3    3    0    0  0.36193343741E+02  0.92529909684E+02 -0.10502099414E+04  0.10622900599E+04  0.12509000000E+03 0.  0.
<mgrwt>
<rscale>  2 0.45513439E+03</rscale>
<asrwt>0</asrwt>
<pdfrwt beam="1">  1       21 0.35360814E-02 0.45513439E+03</pdfrwt>
<pdfrwt beam="2">  1       21 0.31672272E+00 0.45513439E+03</pdfrwt>
<totfact> 0.11007217E+04</totfact>
</mgrwt>
</event>
<event>
 7    0  0.4705418E-002  0.4583260E+03  0.7546771E-02  0.1025268E+00
         21   -1    0    0  502  501  0.00000000000E+00  0.00000000000E+00  0.71190055845E+03  0.71190055845E+03  0.00000000000E+00 0. -1.
         21   -1    0    0  501  502 -0.00000000000E+00 -0.00000000000E+00 -0.73768293434E+02  0.73768293434E+02  0.00000000000E+00 0. -1.
      99926    2    1    2    0    0 -0.17763568394E-14  0.00000000000E+00  0.63813226501E+03  0.78566885188E+03  0.45832603806E+03 0.  0.
      99925    2    3    3    0    0  0.10352847010E+02  0.85993490599E+02  0.53321288898E+03  0.60085098090E+03  0.26306625478E+03 0.  0.
         25    1    4    4    0    0 -0.19257397243E+02  0.11635605625E+02  0.27571739164E+03  0.30360142098E+03  0.12509000000E+03 0.  0.
         25    1    3    3    0    0 -0.10352847010E+02 -0.85993490599E+02  0.10491937603E+03  0.18481787098E+03  0.12509000000E+03 0.  0.
         25    1    4    4    0    0  0.29610244253E+02  0.74357884974E+02  0.25749549735E+03  0.29724955993E+03  0.12509000000E+03 0.  0.
<mgrwt>
<rscale>  2 0.45832604E+03</rscale>
<asrwt>0</asrwt>
<pdfrwt beam="1">  1       21 0.10469125E+00 0.45832604E+03</pdfrwt>
<pdfrwt beam="2">  1       21 0.10848279E-01 0.45832604E+03</pdfrwt>
<totfact> 0.47221005E+04</totfact>
</mgrwt>
</event>
<event>
 7    0  0.4705418E-002  0.4531169E+03  0.7546771E-02  0.1026797E+00
         21   -1    0    0  502  501  0.00000000000E+00  0.00000000000E+00  0.92556572482E+03  0.92556572482E+03  0.00000000000E+00 0. -1.
         21   -1    0    0  501  502 -0.00000000000E+00 -0.00000000000E+00 -0.55456610065E+02  0.55456610065E+02  0.00000000000E+00 0. -1.
      99926    2    1    2    0    0  0.00000000000E+00  0.00000000000E+00  0.87010911476E+03  0.98102233489E+03  0.45311692748E+03 0.  0.
      99925    2    3    3    0    0  0.15274276686E+02 -0.89054884062E+02  0.68940644174E+03  0.74339859862E+03  0.26305162727E+03 0.  0.
         25    1    4    4    0    0  0.20540278637E+02 -0.60784249073E+02  0.26464811418E+03  0.29967108706E+03  0.12509000000E+03 0.  0.
         25    1    3    3    0    0 -0.15274276686E+02  0.89054884062E+02  0.18070267302E+03  0.23762373627E+03  0.12509000000E+03 0.  0.
         25    1    4    4    0    0 -0.52660019508E+01 -0.28270634989E+02  0.42475832756E+03  0.44372751156E+03  0.12509000000E+03 0.  0.
<mgrwt>
<rscale>  2 0.45311693E+03</rscale>
<asrwt>0</asrwt>
<pdfrwt beam="1">  1       21 0.13611260E+00 0.45311693E+03</pdfrwt>
<pdfrwt beam="2">  1       21 0.81553844E-02 0.45311693E+03</pdfrwt>
<totfact> 0.40502238E+04</totfact>
</mgrwt>
</event>
<event>
 7    0  0.4705418E-002  0.4419252E+03  0.7546771E-02  0.1030158E+00
         21   -1    0    0  502  501  0.00000000000E+00  0.00000000000E+00  0.28178287128E+03  0.28178287128E+03  0.00000000000E+00 0.  1.
         21   -1    0    0  501  502 -0.00000000000E+00 -0.00000000000E+00 -0.17326985400E+03  0.17326985400E+03  0.00000000000E+00 0.  1.
      99926    2    1    2    0    0  0.00000000000E+00  0.00000000000E+00  0.10851301727E+03  0.45505272528E+03  0.44192522882E+03 0.  0.
      99925    2    3    3    0    0 -0.92114442216E+02  0.32972713607E+02  0.45077680905E+02  0.28404447897E+03  0.26282503383E+03 0.  0.
         25    1    3    3    0    0  0.92114442216E+02 -0.32972713607E+02  0.63435336367E+02  0.17100824631E+03  0.12509000000E+03 0.  0.
         25    1    4    4    0    0 -0.33238321628E+02  0.35601076547E+02  0.55752575586E+02  0.14535501526E+03  0.12509000000E+03 0.  0.
         25    1    4    4    0    0 -0.58876120589E+02 -0.26283629398E+01 -0.10674894681E+02  0.13868946371E+03  0.12509000000E+03 0.  0.
<mgrwt>
<rscale>  2 0.44192523E+03</rscale>
<asrwt>0</asrwt>
<pdfrwt beam="1">  1       21 0.41438657E-01 0.44192523E+03</pdfrwt>
<pdfrwt beam="2">  1       21 0.25480861E-01 0.44192523E+03</pdfrwt>
<totfact> 0.76161244E+04</totfact>
</mgrwt>
</event>
<event>
 7    0  0.4705418E-002  0.4489852E+03  0.7546771E-02  0.1028025E+00
         21   -1    0    0  502  501  0.00000000000E+00  0.00000000000E+00  0.71603196466E+03  0.71603196466E+03  0.00000000000E+00 0.  1.
         21   -1    0    0  501  502 -0.00000000000E+00 -0.00000000000E+00 -0.70383630231E+02  0.70383630231E+02  0.00000000000E+00 0.  1.
      99926    2    1    2    0    0  0.14210854715E-13  0.00000000000E+00  0.64564833443E+03  0.78641559489E+03  0.44898520704E+03 0.  0.
      99925    2    3    3    0    0 -0.94987987340E+02  0.49189035810E+02  0.39744015007E+03  0.48859502834E+03  0.26329479646E+03 0.  0.
         25    1    3    3    0    0  0.94987987340E+02 -0.49189035810E+02  0.24820818435E+03  0.29782056656E+03  0.12509000000E+03 0.  0.
         25    1    4    4    0    0 -0.96938388412E+01  0.59298160596E+01  0.19814365419E+03  0.23460082912E+03  0.12509000000E+03 0.  0.
         25    1    4    4    0    0 -0.85294148499E+02  0.43259219751E+02  0.19929649588E+03  0.25399419921E+03  0.12509000000E+03 0.  0.
<mgrwt>
<rscale>  2 0.44898521E+03</rscale>
<asrwt>0</asrwt>
<pdfrwt beam="1">  1       21 0.10529881E+00 0.44898521E+03</pdfrwt>
<pdfrwt beam="2">  1       21 0.10350534E-01 0.44898521E+03</pdfrwt>
<totfact> 0.50784273E+04</totfact>
</mgrwt>
</event>
<event>
 7    0  0.4705418E-002  0.4511960E+03  0.7546771E-02  0.1027366E+00
         21   -1    0    0  502  501  0.00000000000E+00  0.00000000000E+00  0.11602108329E+03  0.11602108329E+03  0.00000000000E+00 0. -1.
         21   -1    0    0  501  502 -0.00000000000E+00 -0.00000000000E+00 -0.43866552666E+03  0.43866552666E+03  0.00000000000E+00 0. -1.
      99926    2    1    2    0    0  0.00000000000E+00 -0.71054273576E-14 -0.32264444336E+03  0.55468660995E+03  0.45119596454E+03 0.  0.
      99925    2    3    3    0    0  0.14969884413E+02 -0.39202857869E+02 -0.32811235232E+03  0.42263219831E+03  0.26305759407E+03 0.  0.
         25    1    4    4    0    0 -0.11410282218E+02 -0.53469294298E+02 -0.18918295590E+03  0.23329564693E+03  0.12509000000E+03 0.  0.
         25    1    3    3    0    0 -0.14969884413E+02  0.39202857869E+02  0.54679089539E+01  0.13205441164E+03  0.12509000000E+03 0.  0.
         25    1    4    4    0    0  0.26380166631E+02  0.14266436429E+02 -0.13892939642E+03  0.18933655138E+03  0.12509000000E+03 0.  0.
<mgrwt>
<rscale>  2 0.45119596E+03</rscale>
<asrwt>0</asrwt>
<pdfrwt beam="1">  1       21 0.17061924E-01 0.45119596E+03</pdfrwt>
<pdfrwt beam="2">  1       21 0.64509636E-01 0.45119596E+03</pdfrwt>
<totfact> 0.63445722E+04</totfact>
</mgrwt>
</event>
<event>
 7    0  0.4705418E-002  0.4599173E+03  0.7546771E-02  0.1024805E+00
         21   -1    0    0  502  501  0.00000000000E+00  0.00000000000E+00  0.41569773073E+03  0.41569773073E+03  0.00000000000E+00 0. -1.
         21   -1    0    0  501  502 -0.00000000000E+00 -0.00000000000E+00 -0.12721016370E+03  0.12721016370E+03  0.00000000000E+00 0. -1.
      99926    2    1    2    0    0 -0.14210854715E-13  0.71054273576E-14  0.28848756703E+03  0.54290789443E+03  0.45991728116E+03 0.  0.
      99925    2    3    3    0    0 -0.91427846447E+02  0.39456492348E+02  0.10862100973E+03  0.30225180698E+03  0.26389726254E+03 0.  0.
         25    1    4    4    0    0 -0.50297378882E+02  0.22806668200E+02  0.10398843556E+02  0.13713356440E+03  0.12509000000E+03 0.  0.
         25    1    4    4    0    0 -0.41130467565E+02  0.16649824148E+02  0.98222166177E+02  0.16511824259E+03  0.12509000000E+03 0.  0.
         25    1    3    3    0    0  0.91427846447E+02 -0.39456492348E+02  0.17986655729E+03  0.24065608745E+03  0.12509000000E+03 0.  0.
<mgrwt>
<rscale>  2 0.45991728E+03</rscale>
<asrwt>0</asrwt>
<pdfrwt beam="1">  1       21 0.61132019E-01 0.45991728E+03</pdfrwt>
<pdfrwt beam="2">  1       21 0.18707377E-01 0.45991728E+03</pdfrwt>
<totfact> 0.59969739E+04</totfact>
</mgrwt>
</event>
<event>
 7    0  0.4705418E-002  0.4713881E+03  0.7546771E-02  0.1021529E+00
         21   -1    0    0  502  501  0.00000000000E+00  0.00000000000E+00  0.64989901446E+02  0.64989901446E+02  0.00000000000E+00 0. -1.
         21   -1    0    0  501  502 -0.00000000000E+00 -0.00000000000E+00 -0.85477403219E+03  0.85477403219E+03  0.00000000000E+00 0. -1.
      99926    2    1    2    0    0  0.00000000000E+00  0.00000000000E+00 -0.78978413074E+03  0.91976393363E+03  0.47138807838E+03 0.  0.
      99925    2    3    3    0    0  0.54174689510E+02 -0.46352743484E+02 -0.69724928330E+03  0.74860996814E+03  0.26301491883E+03 0.  0.
         25    1    4    4    0    0  0.17852905856E+02 -0.62997043964E+02 -0.36221990712E+03  0.38876486854E+03  0.12509000000E+03 0.  0.
         25    1    3    3    0    0 -0.54174689510E+02  0.46352743484E+02 -0.92534847441E+02  0.17115396549E+03  0.12509000000E+03 0.  0.
         25    1    4    4    0    0  0.36321783655E+02  0.16644300480E+02 -0.33502937618E+03  0.35984509960E+03  0.12509000000E+03 0.  0.
<mgrwt>
<rscale>  2 0.47138808E+03</rscale>
<asrwt>0</asrwt>
<pdfrwt beam="1">  1       21 0.95573387E-02 0.47138808E+03</pdfrwt>
<pdfrwt beam="2">  1       21 0.12570206E+00 0.47138808E+03</pdfrwt>
<totfact> 0.37361958E+04</totfact>
</mgrwt>
</event>
<event>
 7    0  0.4705418E-002  0.4358634E+03  0.7546771E-02  0.1032024E+00
         21   -1    0    0  502  501  0.00000000000E+00  0.00000000000E+00  0.12555141694E+03  0.12555141694E+03  0.00000000000E+00 0. -1.
         21   -1    0    0  501  502 -0.00000000000E+00 -0.00000000000E+00 -0.37828513641E+03  0.37828513641E+03  0.00000000000E+00 0. -1.
      99926    2    1    2    0    0  0.00000000000E+00  0.00000000000E+00 -0.25273371947E+03  0.50383655335E+03  0.43586344138E+03 0.  0.
      99925    2    3    3    0    0 -0.35162521290E+02 -0.29566787723E+02 -0.25691827357E+03  0.37051132530E+03  0.26298487608E+03 0.  0.
         25    1    4    4    0    0 -0.44324562245E+01 -0.51966696549E+02 -0.11737459359E+03  0.17928883830E+03  0.12509000000E+03 0.  0.
         25    1    3    3    0    0  0.35162521290E+02  0.29566787723E+02  0.41845540961E+01  0.13332522804E+03  0.12509000000E+03 0.  0.
         25    1    4    4    0    0 -0.30730065065E+02  0.22399908827E+02 -0.13954367998E+03  0.19122248701E+03  0.12509000000E+03 0.  0.
<mgrwt>
<rscale>  2 0.43586344E+03</rscale>
<asrwt>0</asrwt>
<pdfrwt beam="1">  1       21 0.18463444E-01 0.43586344E+03</pdfrwt>
<pdfrwt beam="2">  1       21 0.55630167E-01 0.43586344E+03</pdfrwt>
<totfact> 0.75885342E+04</totfact>
</mgrwt>
</event>
<event>
 7    0  0.4705418E-002  0.4598042E+03  0.7546771E-02  0.1024838E+00
         21   -1    0    0  502  501  0.00000000000E+00  0.00000000000E+00  0.93376881393E+03  0.93376881393E+03  0.00000000000E+00 0.  1.
         21   -1    0    0  501  502 -0.00000000000E+00 -0.00000000000E+00 -0.56603928707E+02  0.56603928707E+02  0.00000000000E+00 0.  1.
      99926    2    1    2    0    0  0.00000000000E+00  0.00000000000E+00  0.87716488522E+03  0.99037274264E+03  0.45980423387E+03 0.  0.
      99925    2    3    3    0    0  0.36306764127E+02  0.10846167241E+03  0.60858137902E+03  0.67277752320E+03  0.26301365997E+03 0.  0.
         25    1    4    4    0    0  0.20990200578E+02  0.12607254887E+02  0.24364382848E+03  0.27497155244E+03  0.12509000000E+03 0.  0.
         25    1    4    4    0    0  0.15316563549E+02  0.95854417524E+02  0.36493755054E+03  0.39780597076E+03  0.12509000000E+03 0.  0.
         25    1    3    3    0    0 -0.36306764127E+02 -0.10846167241E+03  0.26858350621E+03  0.31759521944E+03  0.12509000000E+03 0.  0.
<mgrwt>
<rscale>  2 0.45980423E+03</rscale>
<asrwt>0</asrwt>
<pdfrwt beam="1">  1       21 0.13731893E+00 0.45980423E+03</pdfrwt>
<pdfrwt beam="2">  1       21 0.83241077E-02 0.45980423E+03</pdfrwt>
<totfact> 0.38093617E+04</totfact>
</mgrwt>
</event>
<event>
 7    0  0.4705418E-002  0.4573017E+03  0.7546771E-02  0.1025567E+00
         21   -1    0    0  502  501  0.00000000000E+00  0.00000000000E+00  0.21451065833E+03  0.21451065833E+03  0.00000000000E+00 0. -1.
         21   -1    0    0  501  502 -0.00000000000E+00 -0.00000000000E+00 -0.24372313056E+03  0.24372313056E+03  0.00000000000E+00 0. -1.
      99926    2    1    2    0    0  0.71054273576E-14 -0.71054273576E-14 -0.29212472230E+02  0.45823378888E+03  0.45730169116E+03 0.  0.
      99925    2    3    3    0    0  0.41867139922E+02 -0.43641339170E+02 -0.11673290650E+03  0.29402429341E+03  0.26299484741E+03 0.  0.
         25    1    3    3    0    0 -0.41867139922E+02  0.43641339170E+02  0.87520434267E+02  0.16420949547E+03  0.12509000000E+03 0.  0.
         25    1    4    4    0    0  0.21409506173E+02 -0.32499083614E+02 -0.16484970401E+02  0.13203719074E+03  0.12509000000E+03 0.  0.
         25    1    4    4    0    0  0.20457633749E+02 -0.11142255556E+02 -0.10024793610E+03  0.16198710266E+03  0.12509000000E+03 0.  0.
<mgrwt>
<rscale>  2 0.45730169E+03</rscale>
<asrwt>0</asrwt>
<pdfrwt beam="1">  1       21 0.31545685E-01 0.45730169E+03</pdfrwt>
<pdfrwt beam="2">  1       21 0.35841637E-01 0.45730169E+03</pdfrwt>
<totfact> 0.67069371E+04</totfact>
</mgrwt>
</event>
<event>
 7    0  0.4705418E-002  0.4517658E+03  0.7546771E-02  0.1027197E+00
         21   -1    0    0  502  501  0.00000000000E+00  0.00000000000E+00  0.59493774081E+03  0.59493774081E+03  0.00000000000E+00 0.  1.
         21   -1    0    0  501  502 -0.00000000000E+00 -0.00000000000E+00 -0.85762048768E+02  0.85762048768E+02  0.00000000000E+00 0.  1.
      99926    2    1    2    0    0  0.00000000000E+00  0.00000000000E+00  0.50917569204E+03  0.68069978957E+03  0.45176577799E+03 0.  0.
      99925    2    3    3    0    0 -0.79777104380E+01  0.10964869233E+03  0.31221033691E+03  0.42276697116E+03  0.26300216318E+03 0.  0.
         25    1    4    4    0    0 -0.86956874088E+01  0.59414746491E+02  0.21760759072E+03  0.25808196124E+03  0.12509000000E+03 0.  0.
         25    1    3    3    0    0  0.79777104380E+01 -0.10964869233E+03  0.19696535513E+03  0.25793281841E+03  0.12509000000E+03 0.  0.
         25    1    4    4    0    0  0.71797697086E+00  0.50233945837E+02  0.94602746187E+02  0.16468500992E+03  0.12509000000E+03 0.  0.
<mgrwt>
<rscale>  2 0.45176578E+03</rscale>
<asrwt>0</asrwt>
<pdfrwt beam="1">  1       21 0.87490842E-01 0.45176578E+03</pdfrwt>
<pdfrwt beam="2">  1       21 0.12612066E-01 0.45176578E+03</pdfrwt>
<totfact> 0.55360198E+04</totfact>
</mgrwt>
</event>
<event>
 7    0  0.4705418E-002  0.4430949E+03  0.7546771E-02  0.1029801E+00
         21   -1    0    0  502  501  0.00000000000E+00  0.00000000000E+00  0.16650960086E+03  0.16650960086E+03  0.00000000000E+00 0.  1.
         21   -1    0    0  501  502 -0.00000000000E+00 -0.00000000000E+00 -0.29477739986E+03  0.29477739986E+03  0.00000000000E+00 0.  1.
      99926    2    1    2    0    0  0.00000000000E+00  0.00000000000E+00 -0.12826779900E+03  0.46128700072E+03  0.44309487559E+03 0.  0.
      99925    2    3    3    0    0  0.49510346461E+01  0.97378594871E+02 -0.11152937785E+03  0.30180412915E+03  0.26294453172E+03 0.  0.
         25    1    4    4    0    0  0.33924714248E+02  0.50080407108E+02 -0.83562891073E+02  0.16213944084E+03  0.12509000000E+03 0.  0.
         25    1    3    3    0    0 -0.49510346461E+01 -0.97378594871E+02 -0.16738421150E+02  0.15948287157E+03  0.12509000000E+03 0.  0.
         25    1    4    4    0    0 -0.28973679602E+02  0.47298187763E+02 -0.27966486780E+02  0.13966468830E+03  0.12509000000E+03 0.  0.
<mgrwt>
<rscale>  2 0.44309488E+03</rscale>
<asrwt>0</asrwt>
<pdfrwt beam="1">  1       21 0.24486706E-01 0.44309488E+03</pdfrwt>
<pdfrwt beam="2">  1       21 0.43349617E-01 0.44309488E+03</pdfrwt>
<totfact> 0.74918897E+04</totfact>
</mgrwt>
</event>
<event>
 7    0  0.4705418E-002  0.4632109E+03  0.7546771E-02  0.1023854E+00
         21   -1    0    0  502  501  0.00000000000E+00  0.00000000000E+00  0.80092096962E+02  0.80092096962E+02  0.00000000000E+00 0. -1.
         21   -1    0    0  501  502 -0.00000000000E+00 -0.00000000000E+00 -0.66974248681E+03  0.66974248681E+03  0.00000000000E+00 0. -1.
      99926    2    1    2    0    0  0.00000000000E+00  0.00000000000E+00 -0.58965038985E+03  0.74983458377E+03  0.46321088153E+03 0.  0.
      99925    2    3    3    0    0  0.79195346938E+02 -0.90133403789E+02 -0.34742239183E+03  0.45197917492E+03  0.26303407149E+03 0.  0.
         25    1    4    4    0    0  0.37727598431E+02 -0.86063404820E+02 -0.20525850036E+03  0.25808688731E+03  0.12509000000E+03 0.  0.
         25    1    3    3    0    0 -0.79195346938E+02  0.90133403789E+02 -0.24222799802E+03  0.29785540885E+03  0.12509000000E+03 0.  0.
         25    1    4    4    0    0  0.41467748507E+02 -0.40699989695E+01 -0.14216389147E+03  0.19389228761E+03  0.12509000000E+03 0.  0.
<mgrwt>
<rscale>  2 0.46321088E+03</rscale>
<asrwt>0</asrwt>
<pdfrwt beam="1">  1       21 0.11778250E-01 0.46321088E+03</pdfrwt>
<pdfrwt beam="2">  1       21 0.98491541E-01 0.46321088E+03</pdfrwt>
<totfact> 0.47161347E+04</totfact>
</mgrwt>
</event>
<event>
 7    0  0.4705418E-002  0.4507839E+03  0.7546771E-02  0.1027489E+00
         21   -1    0    0  502  501  0.00000000000E+00  0.00000000000E+00  0.34155383985E+03  0.34155383985E+03  0.00000000000E+00 0. -1.
         21   -1    0    0  501  502 -0.00000000000E+00 -0.00000000000E+00 -0.14873651721E+03  0.14873651721E+03  0.00000000000E+00 0. -1.
      99926    2    1    2    0    0  0.35527136788E-14  0.14210854715E-13  0.19281732263E+03  0.49029035706E+03  0.45078388871E+03 0.  0.
      99925    2    3    3    0    0  0.29651955000E+02  0.78575602876E+02  0.45617201213E+02  0.27965145361E+03  0.26281294233E+03 0.  0.
         25    1    4    4    0    0  0.21842678232E+02 -0.16314297343E+00  0.32380433860E+02  0.13104628879E+03  0.12509000000E+03 0.  0.
         25    1    4    4    0    0  0.78092767682E+01  0.78738745849E+02  0.13236767354E+02  0.14860516482E+03  0.12509000000E+03 0.  0.
         25    1    3    3    0    0 -0.29651955000E+02 -0.78575602876E+02  0.14720012142E+03  0.21063890346E+03  0.12509000000E+03 0.  0.
<mgrwt>
<rscale>  2 0.45078389E+03</rscale>
<asrwt>0</asrwt>
<pdfrwt beam="1">  1       21 0.50228506E-01 0.45078389E+03</pdfrwt>
<pdfrwt beam="2">  1       21 0.21873017E-01 0.45078389E+03</pdfrwt>
<totfact> 0.68212994E+04</totfact>
</mgrwt>
</event>
<event>
 7    0  0.4705418E-002  0.4418445E+03  0.7546771E-02  0.1030182E+00
         21   -1    0    0  502  501  0.00000000000E+00  0.00000000000E+00  0.86825689531E+02  0.86825689531E+02  0.00000000000E+00 0. -1.
         21   -1    0    0  501  502 -0.00000000000E+00 -0.00000000000E+00 -0.56212211482E+03  0.56212211482E+03  0.00000000000E+00 0. -1.
      99926    2    1    2    0    0  0.00000000000E+00 -0.71054273576E-14 -0.47529642529E+03  0.64894780436E+03  0.44184449853E+03 0.  0.
      99925    2    3    3    0    0 -0.69358267491E+02 -0.61669757837E+02 -0.35821830739E+03  0.45409267332E+03  0.26318448265E+03 0.  0.
         25    1    4    4    0    0 -0.52083503300E+02  0.56859855603E+01 -0.16322435932E+03  0.21221385752E+03  0.12509000000E+03 0.  0.
         25    1    4    4    0    0 -0.17274764191E+02 -0.67355743397E+02 -0.19499394807E+03  0.24187881580E+03  0.12509000000E+03 0.  0.
         25    1    3    3    0    0  0.69358267491E+02  0.61669757837E+02 -0.11707811790E+03  0.19485513104E+03  0.12509000000E+03 0.  0.
<mgrwt>
<rscale>  2 0.44184450E+03</rscale>
<asrwt>0</asrwt>
<pdfrwt beam="1">  1       21 0.12768483E-01 0.44184450E+03</pdfrwt>
<pdfrwt beam="2">  1       21 0.82665021E-01 0.44184450E+03</pdfrwt>
<totfact> 0.61943612E+04</totfact>
</mgrwt>
</event>
<event>
 7    0  0.4705418E-002  0.4336305E+03  0.7546771E-02  0.1032719E+00
         21   -1    0    0  502  501  0.00000000000E+00  0.00000000000E+00  0.51359439593E+02  0.51359439593E+02  0.00000000000E+00 0. -1.
         21   -1    0    0  501  502 -0.00000000000E+00 -0.00000000000E+00 -0.91529150926E+03  0.91529150926E+03  0.00000000000E+00 0. -1.
      99926    2    1    2    0    0  0.00000000000E+00  0.00000000000E+00 -0.86393206966E+03  0.96665094885E+03  0.43363052928E+03 0.  0.
      99925    2    3    3    0    0 -0.43675542502E+02  0.10437066360E+02 -0.37708548985E+03  0.46198909597E+03  0.26310449023E+03 0.  0.
         25    1    3    3    0    0  0.43675542502E+02 -0.10437066360E+02 -0.48684657982E+03  0.50466185288E+03  0.12509000000E+03 0.  0.
         25    1    4    4    0    0  0.12976954763E+00  0.20366021826E+02 -0.13079797261E+03  0.18212745379E+03  0.12509000000E+03 0.  0.
         25    1    4    4    0    0 -0.43805312049E+02 -0.99289554661E+01 -0.24628751723E+03  0.27986164218E+03  0.12509000000E+03 0.  0.
<mgrwt>
<rscale>  2 0.43363053E+03</rscale>
<asrwt>0</asrwt>
<pdfrwt beam="1">  1       21 0.75528585E-02 0.43363053E+03</pdfrwt>
<pdfrwt beam="2">  1       21 0.13460170E+00 0.43363053E+03</pdfrwt>
<totfact> 0.48006281E+04</totfact>
</mgrwt>
</event>
<event>
 7    0  0.4705418E-002  0.4507535E+03  0.7546771E-02  0.1027498E+00
         21   -1    0    0  502  501  0.00000000000E+00  0.00000000000E+00  0.18915537795E+03  0.18915537795E+03  0.00000000000E+00 0. -1.
         21   -1    0    0  501  502 -0.00000000000E+00 -0.00000000000E+00 -0.26853413159E+03  0.26853413159E+03  0.00000000000E+00 0. -1.
      99926    2    1    2    0    0  0.00000000000E+00  0.00000000000E+00 -0.79378753642E+02  0.45768950955E+03  0.45075348098E+03 0.  0.
      99925    2    3    3    0    0  0.10745615418E+03  0.14633402692E+02 -0.38057836473E+02  0.28705572672E+03  0.26304301888E+03 0.  0.
         25    1    4    4    0    0  0.25418422486E+02 -0.12253071119E+02 -0.42235557486E+02  0.13500957140E+03  0.12509000000E+03 0.  0.
         25    1    3    3    0    0 -0.10745615418E+03 -0.14633402692E+02 -0.41320917168E+02  0.17063378282E+03  0.12509000000E+03 0.  0.
         25    1    4    4    0    0  0.82037731693E+02  0.26886473811E+02  0.41777210125E+01  0.15204615532E+03  0.12509000000E+03 0.  0.
<mgrwt>
<rscale>  2 0.45075348E+03</rscale>
<asrwt>0</asrwt>
<pdfrwt beam="1">  1       21 0.27816968E-01 0.45075348E+03</pdfrwt>
<pdfrwt beam="2">  1       21 0.39490313E-01 0.45075348E+03</pdfrwt>
<totfact> 0.70713343E+04</totfact>
</mgrwt>
</event>
<event>
 7    0  0.4705418E-002  0.4601506E+03  0.7546771E-02  0.1024738E+00
         21   -1    0    0  502  501  0.00000000000E+00  0.00000000000E+00  0.30193263746E+03  0.30193263746E+03  0.00000000000E+00 0.  1.
         21   -1    0    0  501  502 -0.00000000000E+00 -0.00000000000E+00 -0.17531941712E+03  0.17531941712E+03  0.00000000000E+00 0.  1.
      99926    2    1    2    0    0  0.00000000000E+00  0.00000000000E+00  0.12661322034E+03  0.47725205457E+03  0.46015064493E+03 0.  0.
      99925    2    3    3    0    0  0.88845339780E+02  0.61510986281E+02  0.29770274670E+02  0.28567136645E+03  0.26276370473E+03 0.  0.
         25    1    3    3    0    0 -0.88845339780E+02 -0.61510986281E+02  0.96842945669E+02  0.19158068812E+03  0.12509000000E+03 0.  0.
         25    1    4    4    0    0  0.45271190867E+02  0.75800421845E+01  0.47711430690E+02  0.14153030234E+03  0.12509000000E+03 0.  0.
         25    1    4    4    0    0  0.43574148913E+02  0.53930944096E+02 -0.17941156020E+02  0.14414106411E+03  0.12509000000E+03 0.  0.
<mgrwt>
<rscale>  2 0.46015064E+03</rscale>
<asrwt>0</asrwt>
<pdfrwt beam="1">  1       21 0.44401858E-01 0.46015064E+03</pdfrwt>
<pdfrwt beam="2">  1       21 0.25782267E-01 0.46015064E+03</pdfrwt>
<totfact> 0.64234821E+04</totfact>
</mgrwt>
</event>
<event>
 7    0  0.4705418E-002  0.4785458E+03  0.7546771E-02  0.1019536E+00
         21   -1    0    0  502  501  0.00000000000E+00  0.00000000000E+00  0.27091719631E+03  0.27091719631E+03  0.00000000000E+00 0. -1.
         21   -1    0    0  501  502 -0.00000000000E+00 -0.00000000000E+00 -0.21132480389E+03  0.21132480389E+03  0.00000000000E+00 0. -1.
      99926    2    1    2    0    0  0.00000000000E+00  0.00000000000E+00  0.59592392412E+02  0.48224200020E+03  0.47854581131E+03 0.  0.
      99925    2    3    3    0    0  0.13283227995E+03 -0.16300298849E+02  0.44623437648E+02  0.29844403491E+03  0.26299710349E+03 0.  0.
         25    1    3    3    0    0 -0.13283227995E+03  0.16300298849E+02  0.14968954764E+02  0.18379796529E+03  0.12509000000E+03 0.  0.
         25    1    4    4    0    0  0.11119549745E+03 -0.13439508376E+02  0.30884732368E+02  0.17072326682E+03  0.12509000000E+03 0.  0.
         25    1    4    4    0    0  0.21636782494E+02 -0.28607904731E+01  0.13738705279E+02  0.12772076809E+03  0.12509000000E+03 0.  0.
<mgrwt>
<rscale>  2 0.47854581E+03</rscale>
<asrwt>0</asrwt>
<pdfrwt beam="1">  1       21 0.39840764E-01 0.47854581E+03</pdfrwt>
<pdfrwt beam="2">  1       21 0.31077177E-01 0.47854581E+03</pdfrwt>
<totfact> 0.55425651E+04</totfact>
</mgrwt>
</event>
<event>
 7    0  0.4705418E-002  0.4544497E+03  0.7546771E-02  0.1026403E+00
         21   -1    0    0  502  501  0.00000000000E+00  0.00000000000E+00  0.80777486336E+03  0.80777486336E+03  0.00000000000E+00 0.  1.
         21   -1    0    0  501  502 -0.00000000000E+00 -0.00000000000E+00 -0.63917731382E+02  0.63917731382E+02  0.00000000000E+00 0.  1.
      99926    2    1    2    0    0  0.00000000000E+00  0.00000000000E+00  0.74385713198E+03  0.87169259474E+03  0.45444971882E+03 0.  0.
      99925    2    3    3    0    0 -0.99762530807E+02 -0.44417796201E+02  0.52131868386E+03  0.59403025995E+03  0.26300812995E+03 0.  0.
         25    1    4    4    0    0 -0.44241575029E+02  0.34663644952E+01  0.31536242908E+03  0.34215537760E+03  0.12509000000E+03 0.  0.
         25    1    3    3    0    0  0.99762530807E+02  0.44417796201E+02  0.22253844812E+03  0.27766233479E+03  0.12509000000E+03 0.  0.
         25    1    4    4    0    0 -0.55520955778E+02 -0.47884160696E+02  0.20595625478E+03  0.25187488235E+03  0.12509000000E+03 0.  0.
<mgrwt>
<rscale>  2 0.45444972E+03</rscale>
<asrwt>0</asrwt>
<pdfrwt beam="1">  1       21 0.11879041E+00 0.45444972E+03</pdfrwt>
<pdfrwt beam="2">  1       21 0.93996669E-02 0.45444972E+03</pdfrwt>
<totfact> 0.44672499E+04</totfact>
</mgrwt>
</event>
<event>
 7    0  0.4705418E-002  0.4567097E+03  0.7546771E-02  0.1025740E+00
         21   -1    0    0  502  501  0.00000000000E+00  0.00000000000E+00  0.24350210438E+02  0.24350210438E+02  0.00000000000E+00 0.  1.
         21   -1    0    0  501  502 -0.00000000000E+00 -0.00000000000E+00 -0.21414981091E+04  0.21414981091E+04  0.00000000000E+00 0.  1.
      99926    2    1    2    0    0  0.14210854715E-13 -0.71054273576E-14 -0.21171478986E+04  0.21658483195E+04  0.45670966536E+03 0.  0.
      99925    2    3    3    0    0  0.94348890331E+02 -0.53551470731E+02 -0.11535685049E+04  0.11881457936E+04  0.26306017967E+03 0.  0.
         25    1    3    3    0    0 -0.94348890331E+02  0.53551470731E+02 -0.96357939373E+03  0.97770252595E+03  0.12509000000E+03 0.  0.
         25    1    4    4    0    0  0.69041368798E+02 -0.62438834036E+02 -0.59214029387E+03  0.61232585633E+03  0.12509000000E+03 0.  0.
         25    1    4    4    0    0  0.25307521533E+02  0.88873633056E+01 -0.56142821103E+03  0.57581993723E+03  0.12509000000E+03 0.  0.
<mgrwt>
<rscale>  2 0.45670967E+03</rscale>
<asrwt>0</asrwt>
<pdfrwt beam="1">  1       21 0.35809143E-02 0.45670967E+03</pdfrwt>
<pdfrwt beam="2">  1       21 0.31492611E+00 0.45670967E+03</pdfrwt>
<totfact> 0.11038866E+04</totfact>
</mgrwt>
</event>
<event>
 7    0  0.4705418E-002  0.4394171E+03  0.7546771E-02  0.1030926E+00
         21   -1    0    0  502  501  0.00000000000E+00  0.00000000000E+00  0.37524896106E+03  0.37524896106E+03  0.00000000000E+00 0.  1.
         21   -1    0    0  501  502 -0.00000000000E+00 -0.00000000000E+00 -0.12863952741E+03  0.12863952741E+03  0.00000000000E+00 0.  1.
      99926    2    1    2    0    0  0.00000000000E+00  0.35527136788E-14  0.24660943365E+03  0.50388848848E+03  0.43941710943E+03 0.  0.
      99925    2    3    3    0    0 -0.80534316168E+02  0.30749544460E+02  0.20996527555E+03  0.34761432878E+03  0.26328500541E+03 0.  0.
         25    1    4    4    0    0 -0.43706747042E+02  0.52356794040E+02  0.13160352403E+03  0.19395491553E+03  0.12509000000E+03 0.  0.
         25    1    3    3    0    0  0.80534316168E+02 -0.30749544460E+02  0.36644158103E+02  0.15627415969E+03  0.12509000000E+03 0.  0.
         25    1    4    4    0    0 -0.36827569126E+02 -0.21607249580E+02  0.78361751514E+02  0.15365941326E+03  0.12509000000E+03 0.  0.
<mgrwt>
<rscale>  2 0.43941711E+03</rscale>
<asrwt>0</asrwt>
<pdfrwt beam="1">  1       21 0.55183670E-01 0.43941711E+03</pdfrwt>
<pdfrwt beam="2">  1       21 0.18917578E-01 0.43941711E+03</pdfrwt>
<totfact> 0.73698779E+04</totfact>
</mgrwt>
</event>
<event>
 7    0  0.4705418E-002  0.4535710E+03  0.7546771E-02  0.1026662E+00
         21   -1    0    0  502  501  0.00000000000E+00  0.00000000000E+00  0.91575412032E+02  0.91575412032E+02  0.00000000000E+00 0.  1.
         21   -1    0    0  501  502 -0.00000000000E+00 -0.00000000000E+00 -0.56163176969E+03  0.56163176969E+03  0.00000000000E+00 0.  1.
      99926    2    1    2    0    0  0.00000000000E+00 -0.44408920985E-15 -0.47005635766E+03  0.65320718173E+03  0.45357098990E+03 0.  0.
      99925    2    3    3    0    0 -0.62195992352E+02 -0.20941453430E+01 -0.42989196828E+03  0.50783382384E+03  0.26308812465E+03 0.  0.
         25    1    3    3    0    0  0.62195992352E+02  0.20941453430E+01 -0.40164389378E+02  0.14537335789E+03  0.12509000000E+03 0.  0.
         25    1    4    4    0    0 -0.55207419337E+02  0.16161583780E+02 -0.17015073990E+03  0.21887859267E+03  0.12509000000E+03 0.  0.
         25    1    4    4    0    0 -0.69885730145E+01 -0.18255729123E+02 -0.25974122838E+03  0.28895523117E+03  0.12509000000E+03 0.  0.
<mgrwt>
<rscale>  2 0.45357099E+03</rscale>
<asrwt>0</asrwt>
<pdfrwt beam="1">  1       21 0.13466972E-01 0.45357099E+03</pdfrwt>
<pdfrwt beam="2">  1       21 0.82592909E-01 0.45357099E+03</pdfrwt>
<totfact> 0.56147329E+04</totfact>
</mgrwt>
</event>
<event>
 7    0  0.4705418E-002  0.4561041E+03  0.7546771E-02  0.1025917E+00
         21   -1    0    0  502  501  0.00000000000E+00  0.00000000000E+00  0.22869958665E+02  0.22869958665E+02  0.00000000000E+00 0. -1.
         21   -1    0    0  501  502 -0.00000000000E+00 -0.00000000000E+00 -0.22740633187E+04  0.22740633187E+04  0.00000000000E+00 0. -1.
      99926    2    1    2    0    0  0.00000000000E+00  0.00000000000E+00 -0.22511933601E+04  0.22969332774E+04  0.45610408505E+03 0.  0.
      99925    2    3    3    0    0  0.34247302960E+02  0.81376332634E+02 -0.10506062687E+04  0.10866226324E+04  0.26302134551E+03 0.  0.
         25    1    4    4    0    0  0.32189407321E+02  0.18436743710E+01 -0.48292505508E+03  0.49990366472E+03  0.12509000000E+03 0.  0.
         25    1    3    3    0    0 -0.34247302960E+02 -0.81376332634E+02 -0.12005870914E+04  0.12103106450E+04  0.12509000000E+03 0.  0.
         25    1    4    4    0    0  0.20578956388E+01  0.79532658263E+02 -0.56768121357E+03  0.58671896766E+03  0.12509000000E+03 0.  0.
<mgrwt>
<rscale>  2 0.45610409E+03</rscale>
<asrwt>0</asrwt>
<pdfrwt beam="1">  1       21 0.33632286E-02 0.45610409E+03</pdfrwt>
<pdfrwt beam="2">  1       21 0.33442114E+00 0.45610409E+03</pdfrwt>
<totfact> 0.93587987E+03</totfact>
</mgrwt>
</event>
<event>
 7    0  0.4705418E-002  0.4647316E+03  0.7546771E-02  0.1023418E+00
         21   -1    0    0  502  501  0.00000000000E+00  0.00000000000E+00  0.16456665515E+03  0.16456665515E+03  0.00000000000E+00 0. -1.
         21   -1    0    0  501  502 -0.00000000000E+00 -0.00000000000E+00 -0.32809729591E+03  0.32809729591E+03  0.00000000000E+00 0. -1.
      99926    2    1    2    0    0  0.00000000000E+00  0.00000000000E+00 -0.16353064077E+03  0.49266395106E+03  0.46473164106E+03 0.  0.
      99925    2    3    3    0    0 -0.67572056773E+02 -0.45638294793E+02 -0.19821679567E+03  0.33936856871E+03  0.26312029669E+03 0.  0.
         25    1    3    3    0    0  0.67572056773E+02  0.45638294793E+02  0.34686154906E+02  0.15329538235E+03  0.12509000000E+03 0.  0.
         25    1    4    4    0    0 -0.41149039065E+02 -0.82921153984E+01 -0.52650840625E+02  0.14206203473E+03  0.12509000000E+03 0.  0.
         25    1    4    4    0    0 -0.26423017709E+02 -0.37346179395E+02 -0.14556595505E+03  0.19730653398E+03  0.12509000000E+03 0.  0.
<mgrwt>
<rscale>  2 0.46473164E+03</rscale>
<asrwt>0</asrwt>
<pdfrwt beam="1">  1       21 0.24200979E-01 0.46473164E+03</pdfrwt>
<pdfrwt beam="2">  1       21 0.48249602E-01 0.46473164E+03</pdfrwt>
<totfact> 0.60943205E+04</totfact>
</mgrwt>
</event>
<event>
 7    0  0.4705418E-002  0.4294370E+03  0.7546771E-02  0.1034038E+00
         21   -1    0    0  502  501  0.00000000000E+00  0.00000000000E+00  0.49709996219E+03  0.49709996219E+03  0.00000000000E+00 0. -1.
         21   -1    0    0  501  502 -0.00000000000E+00 -0.00000000000E+00 -0.92746023230E+02  0.92746023230E+02  0.00000000000E+00 0. -1.
      99926    2    1    2    0    0  0.00000000000E+00 -0.71054273576E-14  0.40435393896E+03  0.58984598542E+03  0.42943704843E+03 0.  0.
      99925    2    3    3    0    0  0.67889641673E+02  0.47826441681E+02  0.29703135734E+03  0.40528700678E+03  0.26293261238E+03 0.  0.
         25    1    3    3    0    0 -0.67889641673E+02 -0.47826441681E+02  0.10732258162E+03  0.18455897864E+03  0.12509000000E+03 0.  0.
         25    1    4    4    0    0 -0.49222372282E+01  0.32021944191E+02  0.12321541327E+03  0.17854741526E+03  0.12509000000E+03 0.  0.
         25    1    4    4    0    0  0.72811878902E+02  0.15804497490E+02  0.17381594407E+03  0.22673959152E+03  0.12509000000E+03 0.  0.
<mgrwt>
<rscale>  2 0.42943705E+03</rscale>
<asrwt>0</asrwt>
<pdfrwt beam="1">  1       21 0.73102934E-01 0.42943705E+03</pdfrwt>
<pdfrwt beam="2">  1       21 0.13639121E-01 0.42943705E+03</pdfrwt>
<totfact> 0.72968699E+04</totfact>
</mgrwt>
</event>
<event>
 7    0  0.4705418E-002  0.4522612E+03  0.7546771E-02  0.1027050E+00
         21   -1    0    0  502  501  0.00000000000E+00  0.00000000000E+00  0.19727245013E+03  0.19727245013E+03  0.00000000000E+00 0. -1.
         21   -1    0    0  501  502 -0.00000000000E+00 -0.00000000000E+00 -0.25921025593E+03  0.25921025593E+03  0.00000000000E+00 0. -1.
      99926    2    1    2    0    0  0.00000000000E+00 -0.35527136788E-14 -0.61937805804E+02  0.45648270605E+03  0.45226117359E+03 0.  0.
      99925    2    3    3    0    0  0.45119009927E+02 -0.18267025352E+02 -0.13911515612E+03  0.30164969674E+03  0.26319214200E+03 0.  0.
         25    1    4    4    0    0 -0.67919415136E+01 -0.16660943870E+02 -0.98556754223E+02  0.16026434233E+03  0.12509000000E+03 0.  0.
         25    1    3    3    0    0 -0.45119009927E+02  0.18267025352E+02  0.77177350311E+02  0.15483300931E+03  0.12509000000E+03 0.  0.
         25    1    4    4    0    0  0.51910951441E+02 -0.16060814812E+01 -0.40558401893E+02  0.14138535441E+03  0.12509000000E+03 0.  0.
<mgrwt>
<rscale>  2 0.45226117E+03</rscale>
<asrwt>0</asrwt>
<pdfrwt beam="1">  1       21 0.29010654E-01 0.45226117E+03</pdfrwt>
<pdfrwt beam="2">  1       21 0.38119155E-01 0.45226117E+03</pdfrwt>
<totfact> 0.69953107E+04</totfact>
</mgrwt>
</event>
<event>
 7    0  0.4705418E-002  0.4531686E+03  0.7546771E-02  0.1026781E+00
         21   -1    0    0  502  501  0.00000000000E+00  0.00000000000E+00  0.77028703278E+02  0.77028703278E+02  0.00000000000E+00 0. -1.
         21   -1    0    0  501  502 -0.00000000000E+00 -0.00000000000E+00 -0.66651044517E+03  0.66651044517E+03  0.00000000000E+00 0. -1.
      99926    2    1    2    0    0  0.00000000000E+00  0.00000000000E+00 -0.58948174189E+03  0.74353914845E+03  0.45316855722E+03 0.  0.
      99925    2    3    3    0    0  0.44156169806E+02  0.10127542454E+03 -0.39403765442E+03  0.48653257581E+03  0.26313835768E+03 0.  0.
         25    1    4    4    0    0  0.16653584862E+02  0.86921700276E+02 -0.17699985244E+03  0.23411360433E+03  0.12509000000E+03 0.  0.
         25    1    4    4    0    0  0.27502584944E+02  0.14353724269E+02 -0.21703780198E+03  0.25241897149E+03  0.12509000000E+03 0.  0.
         25    1    3    3    0    0 -0.44156169806E+02 -0.10127542454E+03 -0.19544408748E+03  0.25700657264E+03  0.12509000000E+03 0.  0.
<mgrwt>
<rscale>  2 0.45316856E+03</rscale>
<asrwt>0</asrwt>
<pdfrwt beam="1">  1       21 0.11327750E-01 0.45316856E+03</pdfrwt>
<pdfrwt beam="2">  1       21 0.98016244E-01 0.45316856E+03</pdfrwt>
<totfact> 0.51337079E+04</totfact>
</mgrwt>
</event>
<event>
 7    0  0.4705418E-002  0.4558594E+03  0.7546771E-02  0.1025989E+00
         21   -1    0    0  502  501  0.00000000000E+00  0.00000000000E+00  0.20215122170E+03  0.20215122170E+03  0.00000000000E+00 0. -1.
         21   -1    0    0  501  502 -0.00000000000E+00 -0.00000000000E+00 -0.25699550075E+03  0.25699550075E+03  0.00000000000E+00 0. -1.
      99926    2    1    2    0    0 -0.35527136788E-14  0.00000000000E+00 -0.54844279053E+02  0.45914672245E+03  0.45585942766E+03 0.  0.
      99925    2    3    3    0    0  0.24117319078E+02  0.91058204911E+02  0.29953950380E+02  0.28106952128E+03  0.26311517419E+03 0.  0.
         25    1    3    3    0    0 -0.24117319078E+02 -0.91058204911E+02 -0.84798229433E+02  0.17807720117E+03  0.12509000000E+03 0.  0.
         25    1    4    4    0    0  0.17666558349E+02  0.87969040216E+02  0.22211445288E+02  0.15553621997E+03  0.12509000000E+03 0.  0.
         25    1    4    4    0    0  0.64507607293E+01  0.30891646949E+01  0.77425050916E+01  0.12553330131E+03  0.12509000000E+03 0.  0.
<mgrwt>
<rscale>  2 0.45585943E+03</rscale>
<asrwt>0</asrwt>
<pdfrwt beam="1">  1       21 0.29728121E-01 0.45585943E+03</pdfrwt>
<pdfrwt beam="2">  1       21 0.37793456E-01 0.45585943E+03</pdfrwt>
<totfact> 0.67777016E+04</totfact>
</mgrwt>
</event>
<event>
 7    0  0.4705418E-002  0.4531967E+03  0.7546771E-02  0.1026773E+00
         21   -1    0    0  502  501  0.00000000000E+00  0.00000000000E+00  0.18476502629E+03  0.18476502629E+03  0.00000000000E+00 0.  1.
         21   -1    0    0  501  502 -0.00000000000E+00 -0.00000000000E+00 -0.27790326529E+03  0.27790326529E+03  0.00000000000E+00 0.  1.
      99926    2    1    2    0    0  0.00000000000E+00  0.00000000000E+00 -0.93138239004E+02  0.46266829158E+03  0.45319666423E+03 0.  0.
      99925    2    3    3    0    0  0.87590808203E+02  0.18280392913E+02  0.96900404256E+01  0.27766157388E+03  0.26267038333E+03 0.  0.
         25    1    4    4    0    0  0.34415942744E+02 -0.21271633387E+01 -0.32726449266E+02  0.13381894679E+03  0.12509000000E+03 0.  0.
         25    1    3    3    0    0 -0.87590808203E+02 -0.18280392913E+02 -0.10282827943E+03  0.18500671771E+03  0.12509000000E+03 0.  0.
         25    1    4    4    0    0  0.53174865459E+02  0.20407556251E+02  0.42416489692E+02  0.14384262708E+03  0.12509000000E+03 0.  0.
<mgrwt>
<rscale>  2 0.45319666E+03</rscale>
<asrwt>0</asrwt>
<pdfrwt beam="1">  1       21 0.27171328E-01 0.45319666E+03</pdfrwt>
<pdfrwt beam="2">  1       21 0.40868127E-01 0.45319666E+03</pdfrwt>
<totfact> 0.68967002E+04</totfact>
</mgrwt>
</event>
<event>
 7    0  0.4705418E-002  0.4644573E+03  0.7546771E-02  0.1023496E+00
         21   -1    0    0  502  501  0.00000000000E+00  0.00000000000E+00  0.52286304102E+02  0.52286304102E+02  0.00000000000E+00 0. -1.
         21   -1    0    0  501  502 -0.00000000000E+00 -0.00000000000E+00 -0.10314390657E+04  0.10314390657E+04  0.00000000000E+00 0. -1.
      99926    2    1    2    0    0  0.14210854715E-13  0.00000000000E+00 -0.97915276162E+03  0.10837253698E+04  0.46445726027E+03 0.  0.
      99925    2    3    3    0    0 -0.11844326329E+03 -0.27040896951E+02 -0.63008982514E+03  0.69352995923E+03  0.26307907533E+03 0.  0.
         25    1    4    4    0    0 -0.31306252719E+02 -0.57412400490E+01 -0.21439995636E+03  0.25025565465E+03  0.12509000000E+03 0.  0.
         25    1    3    3    0    0  0.11844326329E+03  0.27040896951E+02 -0.34906293648E+03  0.39019541060E+03  0.12509000000E+03 0.  0.
         25    1    4    4    0    0 -0.87137010567E+02 -0.21299656902E+02 -0.41568986878E+03  0.44327430458E+03  0.12509000000E+03 0.  0.
<mgrwt>
<rscale>  2 0.46445726E+03</rscale>
<asrwt>0</asrwt>
<pdfrwt beam="1">  1       21 0.76891622E-02 0.46445726E+03</pdfrwt>
<pdfrwt beam="2">  1       21 0.15168222E+00 0.46445726E+03</pdfrwt>
<totfact> 0.33520989E+04</totfact>
</mgrwt>
</event>
<event>
 7    0  0.4705418E-002  0.4534559E+03  0.7546771E-02  0.1026696E+00
         21   -1    0    0  502  501  0.00000000000E+00  0.00000000000E+00  0.52710082093E+03  0.52710082093E+03  0.00000000000E+00 0. -1.
         21   -1    0    0  501  502 -0.00000000000E+00 -0.00000000000E+00 -0.97525090393E+02  0.97525090393E+02  0.00000000000E+00 0. -1.
      99926    2    1    2    0    0 -0.17763568394E-14  0.00000000000E+00  0.42957573053E+03  0.62462591132E+03  0.45345586426E+03 0.  0.
      99925    2    3    3    0    0 -0.10267823346E+02  0.63701068980E+02  0.39632429958E+03  0.48000080926E+03  0.26299158174E+03 0.  0.
         25    1    3    3    0    0  0.10267823346E+02 -0.63701068980E+02  0.33251430955E+02  0.14462510206E+03  0.12509000000E+03 0.  0.
         25    1    4    4    0    0  0.24452932575E+02  0.57326728831E+02  0.22648449352E+03  0.26613348841E+03  0.12509000000E+03 0.  0.
         25    1    4    4    0    0 -0.34720755921E+02  0.63743401483E+01  0.16983980606E+03  0.21386732085E+03  0.12509000000E+03 0.  0.
<mgrwt>
<rscale>  2 0.45345586E+03</rscale>
<asrwt>0</asrwt>
<pdfrwt beam="1">  1       21 0.77514826E-01 0.45345586E+03</pdfrwt>
<pdfrwt beam="2">  1       21 0.14341925E-01 0.45345586E+03</pdfrwt>
<totfact> 0.57890056E+04</totfact>
</mgrwt>
</event>
<event>
 7    0  0.4705418E-002  0.4380777E+03  0.7546771E-02  0.1031338E+00
         21   -1    0    0  502  501  0.00000000000E+00  0.00000000000E+00  0.62450077361E+02  0.62450077361E+02  0.00000000000E+00 0.  1.
         21   -1    0    0  501  502 -0.00000000000E+00 -0.00000000000E+00 -0.76826205444E+03  0.76826205444E+03  0.00000000000E+00 0.  1.
      99926    2    1    2    0    0  0.00000000000E+00  0.00000000000E+00 -0.70581197708E+03  0.83071213180E+03  0.43807773161E+03 0.  0.
      99925    2    3    3    0    0  0.39163356117E+02  0.85661586654E+02 -0.41184318911E+03  0.49764031929E+03  0.26298174666E+03 0.  0.
         25    1    4    4    0    0  0.16230228118E+02  0.16264651539E+01 -0.16833920916E+03  0.21036079277E+03  0.12509000000E+03 0.  0.
         25    1    3    3    0    0 -0.39163356117E+02 -0.85661586654E+02 -0.29396878797E+03  0.33307181251E+03  0.12509000000E+03 0.  0.
         25    1    4    4    0    0  0.22933127999E+02  0.84035121501E+02 -0.24350397995E+03  0.28727952652E+03  0.12509000000E+03 0.  0.
<mgrwt>
<rscale>  2 0.43807773E+03</rscale>
<asrwt>0</asrwt>
<pdfrwt beam="1">  1       21 0.91838346E-02 0.43807773E+03</pdfrwt>
<pdfrwt beam="2">  1       21 0.11297972E+00 0.43807773E+03</pdfrwt>
<totfact> 0.53010381E+04</totfact>
</mgrwt>
</event>
<event>
 7    0  0.4705418E-002  0.4023198E+03  0.7546771E-02  0.1042979E+00
         21   -1    0    0  502  501  0.00000000000E+00  0.00000000000E+00  0.14834716560E+03  0.14834716560E+03  0.00000000000E+00 0.  1.
         21   -1    0    0  501  502 -0.00000000000E+00 -0.00000000000E+00 -0.27277438420E+03  0.27277438420E+03  0.00000000000E+00 0.  1.
      99926    2    1    2    0    0  0.00000000000E+00  0.35527136788E-14 -0.12442721860E+03  0.42112154981E+03  0.40231980685E+03 0.  0.
      99925    2    3    3    0    0  0.35072481197E+02 -0.31770523199E+02 -0.99254908689E+02  0.28503114468E+03  0.26296724408E+03 0.  0.
         25    1    4    4    0    0 -0.10093806293E+02  0.90936510668E+01 -0.28805235928E+02  0.12908070782E+03  0.12509000000E+03 0.  0.
         25    1    3    3    0    0 -0.35072481197E+02  0.31770523199E+02 -0.25172309911E+02  0.13609040513E+03  0.12509000000E+03 0.  0.
         25    1    4    4    0    0  0.45166287490E+02 -0.40864174266E+02 -0.70449672762E+02  0.15595043686E+03  0.12509000000E+03 0.  0.
<mgrwt>
<rscale>  2 0.40231981E+03</rscale>
<asrwt>0</asrwt>
<pdfrwt beam="1">  1       21 0.21815760E-01 0.40231981E+03</pdfrwt>
<pdfrwt beam="2">  1       21 0.40113879E-01 0.40231981E+03</pdfrwt>
<totfact> 0.11080875E+05</totfact>
</mgrwt>
</event>
<event>
 7    0  0.4705418E-002  0.4521317E+03  0.7546771E-02  0.1027088E+00
         21   -1    0    0  502  501  0.00000000000E+00  0.00000000000E+00  0.22506312918E+03  0.22506312918E+03  0.00000000000E+00 0. -1.
         21   -1    0    0  501  502 -0.00000000000E+00 -0.00000000000E+00 -0.22707306529E+03  0.22707306529E+03  0.00000000000E+00 0. -1.
      99926    2    1    2    0    0  0.00000000000E+00  0.00000000000E+00 -0.20099361127E+01  0.45213619446E+03  0.45213172693E+03 0.  0.
      99925    2    3    3    0    0 -0.77870858930E+02  0.78246981936E+02 -0.42508365831E+01  0.28528599043E+03  0.26302769031E+03 0.  0.
         25    1    4    4    0    0 -0.70639360912E+02  0.26931478582E+02  0.20662796943E+02  0.14761328912E+03  0.12509000000E+03 0.  0.
         25    1    4    4    0    0 -0.72314980177E+01  0.51315503354E+02 -0.24913633526E+02  0.13767270130E+03  0.12509000000E+03 0.  0.
         25    1    3    3    0    0  0.77870858930E+02 -0.78246981936E+02  0.22409004703E+01  0.16685020404E+03  0.12509000000E+03 0.  0.
<mgrwt>
<rscale>  2 0.45213173E+03</rscale>
<asrwt>0</asrwt>
<pdfrwt beam="1">  1       21 0.33097519E-01 0.45213173E+03</pdfrwt>
<pdfrwt beam="2">  1       21 0.33393098E-01 0.45213173E+03</pdfrwt>
<totfact> 0.70352442E+04</totfact>
</mgrwt>
</event>
<event>
 7    0  0.4705418E-002  0.4271284E+03  0.7546771E-02  0.1034771E+00
         21   -1    0    0  502  501  0.00000000000E+00  0.00000000000E+00  0.42338238441E+03  0.42338238441E+03  0.00000000000E+00 0.  1.
         21   -1    0    0  501  502 -0.00000000000E+00 -0.00000000000E+00 -0.10772690972E+03  0.10772690972E+03  0.00000000000E+00 0.  1.
      99926    2    1    2    0    0  0.00000000000E+00 -0.17763568394E-14  0.31565547469E+03  0.53110929412E+03  0.42712843923E+03 0.  0.
      99925    2    3    3    0    0  0.70923247156E+02  0.11296948592E+02  0.14866174997E+03  0.31044633794E+03  0.26290470670E+03 0.  0.
         25    1    4    4    0    0  0.45499883208E+02 -0.21337768925E+02  0.10747311012E+03  0.17240509637E+03  0.12509000000E+03 0.  0.
         25    1    3    3    0    0 -0.70923247156E+02 -0.11296948592E+02  0.16699372472E+03  0.22066295618E+03  0.12509000000E+03 0.  0.
         25    1    4    4    0    0  0.25423363948E+02  0.32634717518E+02  0.41188639841E+02  0.13804124157E+03  0.12509000000E+03 0.  0.
<mgrwt>
<rscale>  2 0.42712844E+03</rscale>
<asrwt>0</asrwt>
<pdfrwt beam="1">  1       21 0.62262115E-01 0.42712844E+03</pdfrwt>
<pdfrwt beam="2">  1       21 0.15842193E-01 0.42712844E+03</pdfrwt>
<totfact> 0.79215083E+04</totfact>
</mgrwt>
</event>
<event>
 7    0  0.4705418E-002  0.4667762E+03  0.7546771E-02  0.1022834E+00
         21   -1    0    0  502  501  0.00000000000E+00  0.00000000000E+00  0.10738376381E+03  0.10738376381E+03  0.00000000000E+00 0. -1.
         21   -1    0    0  501  502 -0.00000000000E+00 -0.00000000000E+00 -0.50724612538E+03  0.50724612538E+03  0.00000000000E+00 0. -1.
      99926    2    1    2    0    0  0.00000000000E+00  0.00000000000E+00 -0.39986236157E+03  0.61462988919E+03  0.46677616957E+03 0.  0.
      99925    2    3    3    0    0 -0.57363006056E+02 -0.35073200664E+02 -0.11234826137E+03  0.29395480474E+03  0.26318558382E+03 0.  0.
         25    1    4    4    0    0 -0.60966597153E+02 -0.56025469141E+01 -0.82849027503E+02  0.16204870860E+03  0.12509000000E+03 0.  0.
         25    1    3    3    0    0  0.57363006056E+02  0.35073200664E+02 -0.28751410020E+03  0.32067508444E+03  0.12509000000E+03 0.  0.
         25    1    4    4    0    0  0.36035910970E+01 -0.29470653750E+02 -0.29499233869E+02  0.13190609614E+03  0.12509000000E+03 0.  0.
<mgrwt>
<rscale>  2 0.46677617E+03</rscale>
<asrwt>0</asrwt>
<pdfrwt beam="1">  1       21 0.15791730E-01 0.46677617E+03</pdfrwt>
<pdfrwt beam="2">  1       21 0.74595019E-01 0.46677617E+03</pdfrwt>
<totfact> 0.52710190E+04</totfact>
</mgrwt>
</event>
<event>
 7    0  0.4705418E-002  0.4566386E+03  0.7546771E-02  0.1025761E+00
         21   -1    0    0  502  501  0.00000000000E+00  0.00000000000E+00  0.25240471641E+03  0.25240471641E+03  0.00000000000E+00 0. -1.
         21   -1    0    0  501  502 -0.00000000000E+00 -0.00000000000E+00 -0.20653222391E+03  0.20653222391E+03  0.00000000000E+00 0. -1.
      99926    2    1    2    0    0  0.14210854715E-13  0.00000000000E+00  0.45872492492E+02  0.45893694032E+03  0.45663862038E+03 0.  0.
      99925    2    3    3    0    0  0.98151965598E+02  0.10397396234E+02 -0.29856993021E+02  0.28251591755E+03  0.26302450349E+03 0.  0.
         25    1    4    4    0    0  0.36886850792E+02 -0.24152698887E+02  0.11600680502E+02  0.13313931242E+03  0.12509000000E+03 0.  0.
         25    1    4    4    0    0  0.61265114806E+02  0.34550095121E+02 -0.41457673522E+02  0.14937660513E+03  0.12509000000E+03 0.  0.
         25    1    3    3    0    0 -0.98151965598E+02 -0.10397396234E+02  0.75729485513E+02  0.17642102277E+03  0.12509000000E+03 0.  0.
<mgrwt>
<rscale>  2 0.45663862E+03</rscale>
<asrwt>0</asrwt>
<pdfrwt beam="1">  1       21 0.37118341E-01 0.45663862E+03</pdfrwt>
<pdfrwt beam="2">  1       21 0.30372386E-01 0.45663862E+03</pdfrwt>
<totfact> 0.67373178E+04</totfact>
</mgrwt>
</event>
<event>
 7    0  0.4705418E-002  0.4523365E+03  0.7546771E-02  0.1027028E+00
         21   -1    0    0  502  501  0.00000000000E+00  0.00000000000E+00  0.54959144953E+03  0.54959144953E+03  0.00000000000E+00 0. -1.
         21   -1    0    0  501  502 -0.00000000000E+00 -0.00000000000E+00 -0.93072923785E+02  0.93072923785E+02  0.00000000000E+00 0. -1.
      99926    2    1    2    0    0  0.00000000000E+00  0.00000000000E+00  0.45651852574E+03  0.64266437331E+03  0.45233652559E+03 0.  0.
      99925    2    3    3    0    0  0.93317401296E+02  0.55924431300E+02  0.31685449193E+03  0.42589438036E+03  0.26297067284E+03 0.  0.
         25    1    4    4    0    0  0.46781825426E+02 -0.93139466409E+00  0.19546777276E+03  0.23673733329E+03  0.12509000000E+03 0.  0.
         25    1    3    3    0    0 -0.93317401296E+02 -0.55924431300E+02  0.13966403382E+03  0.21676999295E+03  0.12509000000E+03 0.  0.
         25    1    4    4    0    0  0.46535575869E+02  0.56855825964E+02  0.12138671916E+03  0.18915704707E+03  0.12509000000E+03 0.  0.
<mgrwt>
<rscale>  2 0.45233653E+03</rscale>
<asrwt>0</asrwt>
<pdfrwt beam="1">  1       21 0.80822270E-01 0.45233653E+03</pdfrwt>
<pdfrwt beam="2">  1       21 0.13687195E-01 0.45233653E+03</pdfrwt>
<totfact> 0.57321319E+04</totfact>
</mgrwt>
</event>
<event>
 7    0  0.4705418E-002  0.4473652E+03  0.7546771E-02  0.1028511E+00
         21   -1    0    0  502  501  0.00000000000E+00  0.00000000000E+00  0.25418271206E+03  0.25418271206E+03  0.00000000000E+00 0. -1.
         21   -1    0    0  501  502 -0.00000000000E+00 -0.00000000000E+00 -0.19684232243E+03  0.19684232243E+03  0.00000000000E+00 0. -1.
      99926    2    1    2    0    0  0.14210854715E-13  0.14210854715E-13  0.57340389635E+02  0.45102503449E+03  0.44736524391E+03 0.  0.
      99925    2    3    3    0    0  0.83614581943E+02  0.64838443778E+02  0.35199926844E+02  0.28569769163E+03  0.26303747651E+03 0.  0.
         25    1    3    3    0    0 -0.83614581943E+02 -0.64838443778E+02  0.22140462791E+02  0.16532734286E+03  0.12509000000E+03 0.  0.
         25    1    4    4    0    0  0.37419208010E+01  0.22881597966E+02 -0.12094642647E+01  0.12722633533E+03  0.12509000000E+03 0.  0.
         25    1    4    4    0    0  0.79872661142E+02  0.41956845811E+02  0.36409391108E+02  0.15847135631E+03  0.12509000000E+03 0.  0.
<mgrwt>
<rscale>  2 0.44736524E+03</rscale>
<asrwt>0</asrwt>
<pdfrwt beam="1">  1       21 0.37379811E-01 0.44736524E+03</pdfrwt>
<pdfrwt beam="2">  1       21 0.28947400E-01 0.44736524E+03</pdfrwt>
<totfact> 0.73195734E+04</totfact>
</mgrwt>
</event>
<event>
 7    0  0.4705418E-002  0.4394686E+03  0.7546771E-02  0.1030910E+00
         21   -1    0    0  502  501  0.00000000000E+00  0.00000000000E+00  0.39806032748E+03  0.39806032748E+03  0.00000000000E+00 0. -1.
         21   -1    0    0  501  502 -0.00000000000E+00 -0.00000000000E+00 -0.12129611463E+03  0.12129611463E+03  0.00000000000E+00 0. -1.
      99926    2    1    2    0    0  0.00000000000E+00  0.00000000000E+00  0.27676421285E+03  0.51935644211E+03  0.43946863875E+03 0.  0.
      99925    2    3    3    0    0 -0.25770377646E+02 -0.87171214457E+02  0.21982180686E+03  0.35457513645E+03  0.26294289803E+03 0.  0.
         25    1    3    3    0    0  0.25770377646E+02  0.87171214457E+02  0.56942405989E+02  0.16478130566E+03  0.12509000000E+03 0.  0.
         25    1    4    4    0    0 -0.17326629917E+01 -0.40268289232E+02  0.58812070281E+02  0.14398230777E+03  0.12509000000E+03 0.  0.
         25    1    4    4    0    0 -0.24037714654E+02 -0.46902925226E+02  0.16100973658E+03  0.21059282869E+03  0.12509000000E+03 0.  0.
<mgrwt>
<rscale>  2 0.43946864E+03</rscale>
<asrwt>0</asrwt>
<pdfrwt beam="1">  1       21 0.58538283E-01 0.43946864E+03</pdfrwt>
<pdfrwt beam="2">  1       21 0.17837664E-01 0.43946864E+03</pdfrwt>
<totfact> 0.72444324E+04</totfact>
</mgrwt>
</event>
<event>
 7    0  0.4705418E-002  0.4558949E+03  0.7546771E-02  0.1025979E+00
         21   -1    0    0  502  501  0.00000000000E+00  0.00000000000E+00  0.54467713821E+03  0.54467713821E+03  0.00000000000E+00 0.  1.
         21   -1    0    0  501  502 -0.00000000000E+00 -0.00000000000E+00 -0.95396052164E+02  0.95396052164E+02  0.00000000000E+00 0.  1.
      99926    2    1    2    0    0  0.26645352591E-14  0.00000000000E+00  0.44928108605E+03  0.64007319038E+03  0.45589493829E+03 0.  0.
      99925    2    3    3    0    0  0.38127398644E+01 -0.84816409160E+02  0.17582246609E+03  0.32760641586E+03  0.26306665293E+03 0.  0.
         25    1    4    4    0    0 -0.28959715902E+02 -0.69572153683E+02  0.98922262257E+02  0.17638614397E+03  0.12509000000E+03 0.  0.
         25    1    4    4    0    0  0.32772455767E+02 -0.15244255477E+02  0.76900203837E+02  0.15122027190E+03  0.12509000000E+03 0.  0.
         25    1    3    3    0    0 -0.38127398644E+01  0.84816409160E+02  0.27345861995E+03  0.31246677451E+03  0.12509000000E+03 0.  0.
<mgrwt>
<rscale>  2 0.45589494E+03</rscale>
<asrwt>0</asrwt>
<pdfrwt beam="1">  1       21 0.80099578E-01 0.45589494E+03</pdfrwt>
<pdfrwt beam="2">  1       21 0.14028831E-01 0.45589494E+03</pdfrwt>
<totfact> 0.55881317E+04</totfact>
</mgrwt>
</event>
<event>
 7    0  0.4705418E-002  0.4571375E+03  0.7546771E-02  0.1025615E+00
         21   -1    0    0  502  501  0.00000000000E+00  0.00000000000E+00  0.72714212852E+03  0.72714212852E+03  0.00000000000E+00 0.  1.
         21   -1    0    0  501  502 -0.00000000000E+00 -0.00000000000E+00 -0.71847964392E+02  0.71847964392E+02  0.00000000000E+00 0.  1.
      99926    2    1    2    0    0  0.14210854715E-13  0.00000000000E+00  0.65529416413E+03  0.79899009291E+03  0.45713753623E+03 0.  0.
      99925    2    3    3    0    0 -0.98022663157E+02  0.58816236141E+02  0.38720009543E+03  0.48183125275E+03  0.26300123591E+03 0.  0.
         25    1    4    4    0    0 -0.12272400117E+02  0.15131187195E+02  0.14211541504E+03  0.19032567857E+03  0.12509000000E+03 0.  0.
         25    1    3    3    0    0  0.98022663157E+02 -0.58816236141E+02  0.26809406869E+03  0.31715884016E+03  0.12509000000E+03 0.  0.
         25    1    4    4    0    0 -0.85750263040E+02  0.43685048946E+02  0.24508468040E+03  0.29150557418E+03  0.12509000000E+03 0.  0.
<mgrwt>
<rscale>  2 0.45713754E+03</rscale>
<asrwt>0</asrwt>
<pdfrwt beam="1">  1       21 0.10693266E+00 0.45713754E+03</pdfrwt>
<pdfrwt beam="2">  1       21 0.10565878E-01 0.45713754E+03</pdfrwt>
<totfact> 0.47019958E+04</totfact>
</mgrwt>
</event>
<event>
 7    0  0.4705418E-002  0.4544524E+03  0.7546771E-02  0.1026403E+00
         21   -1    0    0  502  501  0.00000000000E+00  0.00000000000E+00  0.71402933188E+02  0.71402933188E+02  0.00000000000E+00 0.  1.
         21   -1    0    0  501  502 -0.00000000000E+00 -0.00000000000E+00 -0.72310412169E+03  0.72310412169E+03  0.00000000000E+00 0.  1.
      99926    2    1    2    0    0  0.00000000000E+00 -0.17763568394E-14 -0.65170118850E+03  0.79450705487E+03  0.45445244103E+03 0.  0.
      99925    2    3    3    0    0 -0.76573063942E+02 -0.23985084501E+01 -0.55467356021E+03  0.61863478385E+03  0.26301530455E+03 0.  0.
         25    1    3    3    0    0  0.76573063942E+02  0.23985084501E+01 -0.97027628285E+02  0.17587227102E+03  0.12509000000E+03 0.  0.
         25    1    4    4    0    0 -0.35156185342E+02 -0.39193294872E+02 -0.30766817326E+03  0.33627263443E+03  0.12509000000E+03 0.  0.
         25    1    4    4    0    0 -0.41416878600E+02  0.36794786422E+02 -0.24700538696E+03  0.28236214942E+03  0.12509000000E+03 0.  0.
<mgrwt>
<rscale>  2 0.45445244E+03</rscale>
<asrwt>0</asrwt>
<pdfrwt beam="1">  1       21 0.10500432E-01 0.45445244E+03</pdfrwt>
<pdfrwt beam="2">  1       21 0.10633884E+00 0.45445244E+03</pdfrwt>
<totfact> 0.48238615E+04</totfact>
</mgrwt>
</event>
<event>
 7    0  0.4705418E-002  0.4563864E+03  0.7546771E-02  0.1025834E+00
         21   -1    0    0  502  501  0.00000000000E+00  0.00000000000E+00  0.38255123435E+03  0.38255123435E+03  0.00000000000E+00 0. -1.
         21   -1    0    0  501  502 -0.00000000000E+00 -0.00000000000E+00 -0.13611807723E+03  0.13611807723E+03  0.00000000000E+00 0. -1.
      99926    2    1    2    0    0  0.00000000000E+00 -0.71054273576E-14  0.24643315712E+03  0.51866931159E+03  0.45638640849E+03 0.  0.
      99925    2    3    3    0    0 -0.10142328500E+03  0.40226633567E+02  0.19417018390E+03  0.34464692435E+03  0.26301060313E+03 0.  0.
         25    1    4    4    0    0 -0.53896860449E+02 -0.64254572089E+01  0.13238223073E+03  0.19004925988E+03  0.12509000000E+03 0.  0.
         25    1    3    3    0    0  0.10142328500E+03 -0.40226633567E+02  0.52262973216E+02  0.17402238723E+03  0.12509000000E+03 0.  0.
         25    1    4    4    0    0 -0.47526424551E+02  0.46652090776E+02  0.61787953174E+02  0.15459766448E+03  0.12509000000E+03 0.  0.
<mgrwt>
<rscale>  2 0.45638641E+03</rscale>
<asrwt>0</asrwt>
<pdfrwt beam="1">  1       21 0.56257534E-01 0.45638641E+03</pdfrwt>
<pdfrwt beam="2">  1       21 0.20017364E-01 0.45638641E+03</pdfrwt>
<totfact> 0.63279070E+04</totfact>
</mgrwt>
</event>
<event>
 7    0  0.4705418E-002  0.4410608E+03  0.7546771E-02  0.1030422E+00
         21   -1    0    0  502  501  0.00000000000E+00  0.00000000000E+00  0.10698163838E+03  0.10698163838E+03  0.00000000000E+00 0.  1.
         21   -1    0    0  501  502 -0.00000000000E+00 -0.00000000000E+00 -0.45459827099E+03  0.45459827099E+03  0.00000000000E+00 0.  1.
      99926    2    1    2    0    0  0.00000000000E+00  0.00000000000E+00 -0.34761663262E+03  0.56157990937E+03  0.44106084766E+03 0.  0.
      99925    2    3    3    0    0  0.64769535387E+02  0.75235748462E+02 -0.22800369384E+03  0.36205478869E+03  0.26313964933E+03 0.  0.
         25    1    4    4    0    0 -0.10258085834E+00  0.30894533394E+02 -0.13926378027E+03  0.18972714964E+03  0.12509000000E+03 0.  0.
         25    1    3    3    0    0 -0.64769535387E+02 -0.75235748462E+02 -0.11961293877E+03  0.19952512068E+03  0.12509000000E+03 0.  0.
         25    1    4    4    0    0  0.64872116246E+02  0.44341215068E+02 -0.88739913574E+02  0.17232763905E+03  0.12509000000E+03 0.  0.
<mgrwt>
<rscale>  2 0.44106085E+03</rscale>
<asrwt>0</asrwt>
<pdfrwt beam="1">  1       21 0.15732594E-01 0.44106085E+03</pdfrwt>
<pdfrwt beam="2">  1       21 0.66852686E-01 0.44106085E+03</pdfrwt>
<totfact> 0.68335827E+04</totfact>
</mgrwt>
</event>
<event>
 7    0  0.4705418E-002  0.4510079E+03  0.7546771E-02  0.1027422E+00
         21   -1    0    0  502  501  0.00000000000E+00  0.00000000000E+00  0.27010578912E+03  0.27010578912E+03  0.00000000000E+00 0.  1.
         21   -1    0    0  501  502 -0.00000000000E+00 -0.00000000000E+00 -0.18826709973E+03  0.18826709973E+03  0.00000000000E+00 0.  1.
      99926    2    1    2    0    0  0.71054273576E-14  0.00000000000E+00  0.81838689388E+02  0.45837288884E+03  0.45100790918E+03 0.  0.
      99925    2    3    3    0    0  0.56749450404E+02  0.24137875762E+02  0.14340482425E+03  0.30592278478E+03  0.26309821258E+03 0.  0.
         25    1    4    4    0    0  0.32045035320E+02  0.47153657134E+02  0.97208925885E+02  0.16836696541E+03  0.12509000000E+03 0.  0.
         25    1    3    3    0    0 -0.56749450404E+02 -0.24137875762E+02 -0.61566134862E+02  0.15245010406E+03  0.12509000000E+03 0.  0.
         25    1    4    4    0    0  0.24704415084E+02 -0.23015781371E+02  0.46195898365E+02  0.13755581937E+03  0.12509000000E+03 0.  0.
<mgrwt>
<rscale>  2 0.45100791E+03</rscale>
<asrwt>0</asrwt>
<pdfrwt beam="1">  1       21 0.39721440E-01 0.45100791E+03</pdfrwt>
<pdfrwt beam="2">  1       21 0.27686338E-01 0.45100791E+03</pdfrwt>
<totfact> 0.70516287E+04</totfact>
</mgrwt>
</event>
<event>
 7    0  0.4705418E-002  0.4497700E+03  0.7546771E-02  0.1027791E+00
         21   -1    0    0  502  501  0.00000000000E+00  0.00000000000E+00  0.23851374423E+03  0.23851374423E+03  0.00000000000E+00 0.  1.
         21   -1    0    0  501  502 -0.00000000000E+00 -0.00000000000E+00 -0.21203496530E+03  0.21203496530E+03  0.00000000000E+00 0.  1.
      99926    2    1    2    0    0  0.00000000000E+00  0.00000000000E+00  0.26478778928E+02  0.45054870953E+03  0.44976995668E+03 0.  0.
      99925    2    3    3    0    0 -0.41005260124E+02  0.91448728392E+02 -0.23949703133E+02  0.28251644720E+03  0.26305446846E+03 0.  0.
         25    1    4    4    0    0 -0.78382296194E+01  0.12714489294E+02 -0.34651804324E+02  0.13065738297E+03  0.12509000000E+03 0.  0.
         25    1    3    3    0    0  0.41005260124E+02 -0.91448728392E+02  0.50428482062E+02  0.16803226233E+03  0.12509000000E+03 0.  0.
         25    1    4    4    0    0 -0.33167030505E+02  0.78734239098E+02  0.10702101191E+02  0.15185906423E+03  0.12509000000E+03 0.  0.
<mgrwt>
<rscale>  2 0.44976996E+03</rscale>
<asrwt>0</asrwt>
<pdfrwt beam="1">  1       21 0.35075551E-01 0.44976996E+03</pdfrwt>
<pdfrwt beam="2">  1       21 0.31181613E-01 0.44976996E+03</pdfrwt>
<totfact> 0.71823872E+04</totfact>
</mgrwt>
</event>
<event>
 7    0  0.4705418E-002  0.4656611E+03  0.7546771E-02  0.1023152E+00
         21   -1    0    0  502  501  0.00000000000E+00  0.00000000000E+00  0.17365864104E+03  0.17365864104E+03  0.00000000000E+00 0. -1.
         21   -1    0    0  501  502 -0.00000000000E+00 -0.00000000000E+00 -0.31216446756E+03  0.31216446756E+03  0.00000000000E+00 0. -1.
      99926    2    1    2    0    0  0.00000000000E+00  0.00000000000E+00 -0.13850582652E+03  0.48582310859E+03  0.46566106651E+03 0.  0.
      99925    2    3    3    0    0  0.45571163867E+02 -0.19280462200E+02  0.31282882514E+02  0.26920320874E+03  0.26276088305E+03 0.  0.
         25    1    3    3    0    0 -0.45571163867E+02  0.19280462200E+02 -0.16978870903E+03  0.21661989985E+03  0.12509000000E+03 0.  0.
         25    1    4    4    0    0  0.90525201371E+01 -0.46883306036E+02  0.94927005936E+01  0.13422969854E+03  0.12509000000E+03 0.  0.
         25    1    4    4    0    0  0.36518643730E+02  0.27602843836E+02  0.21790181920E+02  0.13497351020E+03  0.12509000000E+03 0.  0.
<mgrwt>
<rscale>  2 0.46566107E+03</rscale>
<asrwt>0</asrwt>
<pdfrwt beam="1">  1       21 0.25538036E-01 0.46566107E+03</pdfrwt>
<pdfrwt beam="2">  1       21 0.45906539E-01 0.46566107E+03</pdfrwt>
<totfact> 0.60954996E+04</totfact>
</mgrwt>
</event>
<event>
 7    0  0.4705418E-002  0.4532055E+03  0.7546771E-02  0.1026770E+00
         21   -1    0    0  502  501  0.00000000000E+00  0.00000000000E+00  0.34707067188E+03  0.34707067188E+03  0.00000000000E+00 0.  1.
         21   -1    0    0  501  502 -0.00000000000E+00 -0.00000000000E+00 -0.14794911872E+03  0.14794911872E+03  0.00000000000E+00 0.  1.
      99926    2    1    2    0    0  0.71054273576E-14  0.00000000000E+00  0.19912155316E+03  0.49501979060E+03  0.45320547234E+03 0.  0.
      99925    2    3    3    0    0  0.35108908672E+02 -0.36563610929E+02  0.16867634904E+02  0.26823017018E+03  0.26285618497E+03 0.  0.
         25    1    4    4    0    0  0.41971490288E+02 -0.51158503969E+02  0.60942583005E+01  0.14164549626E+03  0.12509000000E+03 0.  0.
         25    1    4    4    0    0 -0.68625816151E+01  0.14594893040E+02  0.10773376604E+02  0.12658467393E+03  0.12509000000E+03 0.  0.
         25    1    3    3    0    0 -0.35108908672E+02  0.36563610929E+02  0.18225391825E+03  0.22678962042E+03  0.12509000000E+03 0.  0.
<mgrwt>
<rscale>  2 0.45320547E+03</rscale>
<asrwt>0</asrwt>
<pdfrwt beam="1">  1       21 0.51039805E-01 0.45320547E+03</pdfrwt>
<pdfrwt beam="2">  1       21 0.21757223E-01 0.45320547E+03</pdfrwt>
<totfact> 0.66565198E+04</totfact>
</mgrwt>
</event>
<event>
 7    0  0.4705418E-002  0.4355204E+03  0.7546771E-02  0.1032130E+00
         21   -1    0    0  502  501  0.00000000000E+00  0.00000000000E+00  0.25085858232E+03  0.25085858232E+03  0.00000000000E+00 0. -1.
         21   -1    0    0  501  502 -0.00000000000E+00 -0.00000000000E+00 -0.18902885855E+03  0.18902885855E+03  0.00000000000E+00 0. -1.
      99926    2    1    2    0    0  0.00000000000E+00  0.35527136788E-14  0.61829723763E+02  0.43988744087E+03  0.43552043109E+03 0.  0.
      99925    2    3    3    0    0 -0.69028294899E+02 -0.31414266263E+02  0.95054565726E+02  0.28987690842E+03  0.26313777750E+03 0.  0.
         25    1    4    4    0    0 -0.68258025627E+02 -0.34316676097E+02  0.69281525842E+02  0.16212411987E+03  0.12509000000E+03 0.  0.
         25    1    3    3    0    0  0.69028294899E+02  0.31414266263E+02 -0.33224841963E+02  0.15001053245E+03  0.12509000000E+03 0.  0.
         25    1    4    4    0    0 -0.77026927235E+00  0.29024098343E+01  0.25773039884E+02  0.12775278855E+03  0.12509000000E+03 0.  0.
<mgrwt>
<rscale>  2 0.43552043E+03</rscale>
<asrwt>0</asrwt>
<pdfrwt beam="1">  1       21 0.36890968E-01 0.43552043E+03</pdfrwt>
<pdfrwt beam="2">  1       21 0.27798361E-01 0.43552043E+03</pdfrwt>
<totfact> 0.81635264E+04</totfact>
</mgrwt>
</event>
<event>
 7    0  0.4705418E-002  0.4537556E+03  0.7546771E-02  0.1026608E+00
         21   -1    0    0  502  501  0.00000000000E+00  0.00000000000E+00  0.44202951309E+02  0.44202951309E+02  0.00000000000E+00 0.  1.
         21   -1    0    0  501  502 -0.00000000000E+00 -0.00000000000E+00 -0.11644817031E+04  0.11644817031E+04  0.00000000000E+00 0.  1.
      99926    2    1    2    0    0  0.71054273576E-14  0.00000000000E+00 -0.11202787518E+04  0.12086846544E+04  0.45375556425E+03 0.  0.
      99925    2    3    3    0    0  0.41626510883E+02 -0.52810120645E+02 -0.94418823442E+03  0.98246119484E+03  0.26309105287E+03 0.  0.
         25    1    4    4    0    0  0.12891072756E+02  0.14543379605E+02 -0.43587516214E+03  0.45388583886E+03  0.12509000000E+03 0.  0.
         25    1    4    4    0    0  0.28735438127E+02 -0.67353500249E+02 -0.50831307228E+03  0.52857535598E+03  0.12509000000E+03 0.  0.
         25    1    3    3    0    0 -0.41626510883E+02  0.52810120645E+02 -0.17609051737E+03  0.22622345957E+03  0.12509000000E+03 0.  0.
<mgrwt>
<rscale>  2 0.45375556E+03</rscale>
<asrwt>0</asrwt>
<pdfrwt beam="1">  1       21 0.65004329E-02 0.45375556E+03</pdfrwt>
<pdfrwt beam="2">  1       21 0.17124734E+00 0.45375556E+03</pdfrwt>
<totfact> 0.32192818E+04</totfact>
</mgrwt>
</event>
<event>
 7    0  0.4705418E-002  0.4546210E+03  0.7546771E-02  0.1026353E+00
         21   -1    0    0  502  501  0.00000000000E+00  0.00000000000E+00  0.40674483838E+02  0.40674483838E+02  0.00000000000E+00 0.  1.
         21   -1    0    0  501  502 -0.00000000000E+00 -0.00000000000E+00 -0.12703312916E+04  0.12703312916E+04  0.00000000000E+00 0.  1.
      99926    2    1    2    0    0  0.71054273576E-14  0.00000000000E+00 -0.12296568078E+04  0.13110057754E+04  0.45462102718E+03 0.  0.
      99925    2    3    3    0    0  0.48972044143E+02 -0.47651294928E+02 -0.51733009148E+03  0.58455841613E+03  0.26345627968E+03 0.  0.
         25    1    3    3    0    0 -0.48972044143E+02  0.47651294928E+02 -0.71232671628E+03  0.72644735930E+03  0.12509000000E+03 0.  0.
         25    1    4    4    0    0 -0.25997089071E+01 -0.54593356174E+02 -0.24895141149E+03  0.28392165541E+03  0.12509000000E+03 0.  0.
         25    1    4    4    0    0  0.51571753050E+02  0.69420612460E+01 -0.26837867999E+03  0.30063676072E+03  0.12509000000E+03 0.  0.
<mgrwt>
<rscale>  2 0.45462103E+03</rscale>
<asrwt>0</asrwt>
<pdfrwt beam="1">  1       21 0.59815408E-02 0.45462103E+03</pdfrwt>
<pdfrwt beam="2">  1       21 0.18681345E+00 0.45462103E+03</pdfrwt>
<totfact> 0.28881739E+04</totfact>
</mgrwt>
</event>
<event>
 7    0  0.4705418E-002  0.4572729E+03  0.7546771E-02  0.1025575E+00
         21   -1    0    0  502  501  0.00000000000E+00  0.00000000000E+00  0.87147140080E+02  0.87147140080E+02  0.00000000000E+00 0.  1.
         21   -1    0    0  501  502 -0.00000000000E+00 -0.00000000000E+00 -0.59984339536E+03  0.59984339536E+03  0.00000000000E+00 0.  1.
      99926    2    1    2    0    0  0.14210854715E-13  0.00000000000E+00 -0.51269625528E+03  0.68699053544E+03  0.45727294432E+03 0.  0.
      99925    2    3    3    0    0  0.88039912835E+02 -0.51711878398E+02 -0.24284039585E+03  0.37251503943E+03  0.26338346973E+03 0.  0.
         25    1    4    4    0    0  0.67624744801E+02 -0.42429231872E+02 -0.89253644889E+02  0.17316774253E+03  0.12509000000E+03 0.  0.
         25    1    3    3    0    0 -0.88039912835E+02  0.51711878398E+02 -0.26985585943E+03  0.31447549601E+03  0.12509000000E+03 0.  0.
         25    1    4    4    0    0  0.20415168034E+02 -0.92826465259E+01 -0.15358675096E+03  0.19934729690E+03  0.12509000000E+03 0.  0.
<mgrwt>
<rscale>  2 0.45727294E+03</rscale>
<asrwt>0</asrwt>
<pdfrwt beam="1">  1       21 0.12815756E-01 0.45727294E+03</pdfrwt>
<pdfrwt beam="2">  1       21 0.88212265E-01 0.45727294E+03</pdfrwt>
<totfact> 0.52666398E+04</totfact>
</mgrwt>
</event>
<event>
 7    0  0.4705418E-002  0.4559625E+03  0.7546771E-02  0.1025959E+00
         21   -1    0    0  502  501  0.00000000000E+00  0.00000000000E+00  0.72459521456E+02  0.72459521456E+02  0.00000000000E+00 0. -1.
         21   -1    0    0  501  502 -0.00000000000E+00 -0.00000000000E+00 -0.71730333050E+03  0.71730333050E+03  0.00000000000E+00 0. -1.
      99926    2    1    2    0    0  0.17763568394E-14  0.00000000000E+00 -0.64484380904E+03  0.78976285195E+03  0.45596252507E+03 0.  0.
      99925    2    3    3    0    0 -0.14265164070E+02 -0.57981027074E+02 -0.23704301787E+03  0.35904915611E+03  0.26298594977E+03 0.  0.
         25    1    4    4    0    0  0.17395024937E+02 -0.25775153394E+02 -0.73942559433E+02  0.14859998526E+03  0.12509000000E+03 0.  0.
         25    1    4    4    0    0 -0.31660189007E+02 -0.32205873680E+02 -0.16310045844E+03  0.21044917085E+03  0.12509000000E+03 0.  0.
         25    1    3    3    0    0  0.14265164070E+02  0.57981027074E+02 -0.40780079117E+03  0.43071369584E+03  0.12509000000E+03 0.  0.
<mgrwt>
<rscale>  2 0.45596253E+03</rscale>
<asrwt>0</asrwt>
<pdfrwt beam="1">  1       21 0.10655811E-01 0.45596253E+03</pdfrwt>
<pdfrwt beam="2">  1       21 0.10548579E+00 0.45596253E+03</pdfrwt>
<totfact> 0.47901086E+04</totfact>
</mgrwt>
</event>
<event>
 7    0  0.4705418E-002  0.4566238E+03  0.7546771E-02  0.1025765E+00
         21   -1    0    0  502  501  0.00000000000E+00  0.00000000000E+00  0.25607982760E+03  0.25607982760E+03  0.00000000000E+00 0. -1.
         21   -1    0    0  501  502 -0.00000000000E+00 -0.00000000000E+00 -0.20355499316E+03  0.20355499316E+03  0.00000000000E+00 0. -1.
      99926    2    1    2    0    0  0.00000000000E+00  0.00000000000E+00  0.52524834436E+02  0.45963482077E+03  0.45662381697E+03 0.  0.
      99925    2    3    3    0    0  0.90468745148E+02  0.50098298478E+02  0.83106863176E+02  0.29447670882E+03  0.26289798016E+03 0.  0.
         25    1    4    4    0    0  0.11137175862E+02  0.14165311432E+02  0.14110126573E+02  0.12716641265E+03  0.12509000000E+03 0.  0.
         25    1    3    3    0    0 -0.90468745148E+02 -0.50098298478E+02 -0.30582028739E+02  0.16515811194E+03  0.12509000000E+03 0.  0.
         25    1    4    4    0    0  0.79331569286E+02  0.35932987047E+02  0.68996736603E+02  0.16731029617E+03  0.12509000000E+03 0.  0.
<mgrwt>
<rscale>  2 0.45662382E+03</rscale>
<asrwt>0</asrwt>
<pdfrwt beam="1">  1       21 0.37658798E-01 0.45662382E+03</pdfrwt>
<pdfrwt beam="2">  1       21 0.29934558E-01 0.45662382E+03</pdfrwt>
<totfact> 0.67330946E+04</totfact>
</mgrwt>
</event>
<event>
 7    0  0.4705418E-002  0.4440366E+03  0.7546771E-02  0.1029515E+00
         21   -1    0    0  502  501  0.00000000000E+00  0.00000000000E+00  0.11485169915E+03  0.11485169915E+03  0.00000000000E+00 0.  1.
         21   -1    0    0  501  502 -0.00000000000E+00 -0.00000000000E+00 -0.42918061102E+03  0.42918061102E+03  0.00000000000E+00 0.  1.
      99926    2    1    2    0    0  0.00000000000E+00  0.35527136788E-14 -0.31432891187E+03  0.54403231017E+03  0.44403658596E+03 0.  0.
      99925    2    3    3    0    0 -0.89253194040E+02 -0.16454951220E+02 -0.25862214356E+03  0.37975312646E+03  0.26285000637E+03 0.  0.
         25    1    3    3    0    0  0.89253194040E+02  0.16454951220E+02 -0.55706768311E+02  0.16427918371E+03  0.12509000000E+03 0.  0.
         25    1    4    4    0    0 -0.54022377206E+02 -0.20441176156E+02 -0.18391365218E+03  0.22979990966E+03  0.12509000000E+03 0.  0.
         25    1    4    4    0    0 -0.35230816834E+02  0.39862249359E+01 -0.74708491387E+02  0.14995321680E+03  0.12509000000E+03 0.  0.
<mgrwt>
<rscale>  2 0.44403659E+03</rscale>
<asrwt>0</asrwt>
<pdfrwt beam="1">  1       21 0.16889956E-01 0.44403659E+03</pdfrwt>
<pdfrwt beam="2">  1       21 0.63114795E-01 0.44403659E+03</pdfrwt>
<totfact> 0.67970077E+04</totfact>
</mgrwt>
</event>
<event>
 7    0  0.4705418E-002  0.4500982E+03  0.7546771E-02  0.1027693E+00
         21   -1    0    0  502  501  0.00000000000E+00  0.00000000000E+00  0.64934795415E+03  0.64934795415E+03  0.00000000000E+00 0.  1.
         21   -1    0    0  501  502 -0.00000000000E+00 -0.00000000000E+00 -0.77996846720E+02  0.77996846720E+02  0.00000000000E+00 0.  1.
      99926    2    1    2    0    0 -0.14210854715E-13 -0.35527136788E-14  0.57135110743E+03  0.72734480087E+03  0.45009817972E+03 0.  0.
      99925    2    3    3    0    0  0.10322642231E+03  0.30703947991E+02  0.33870460052E+03  0.44208994647E+03  0.26291498183E+03 0.  0.
         25    1    4    4    0    0  0.66481459313E+02 -0.22134791413E+02  0.17564789444E+03  0.22673646453E+03  0.12509000000E+03 0.  0.
         25    1    3    3    0    0 -0.10322642231E+03 -0.30703947991E+02  0.23264650691E+03  0.28525485441E+03  0.12509000000E+03 0.  0.
         25    1    4    4    0    0  0.36744962992E+02  0.52838739403E+02  0.16305670608E+03  0.21535348194E+03  0.12509000000E+03 0.  0.
<mgrwt>
<rscale>  2 0.45009818E+03</rscale>
<asrwt>0</asrwt>
<pdfrwt beam="1">  1       21 0.95492344E-01 0.45009818E+03</pdfrwt>
<pdfrwt beam="2">  1       21 0.11470125E-01 0.45009818E+03</pdfrwt>
<totfact> 0.53475107E+04</totfact>
</mgrwt>
</event>
<event>
 7    0  0.4705418E-002  0.4587055E+03  0.7546771E-02  0.1025157E+00
         21   -1    0    0  502  501  0.00000000000E+00  0.00000000000E+00  0.69996004962E+03  0.69996004962E+03  0.00000000000E+00 0. -1.
         21   -1    0    0  501  502 -0.00000000000E+00 -0.00000000000E+00 -0.75150988483E+02  0.75150988483E+02  0.00000000000E+00 0. -1.
      99926    2    1    2    0    0  0.14210854715E-13  0.00000000000E+00  0.62480906114E+03  0.77511103810E+03  0.45870552483E+03 0.  0.
      99925    2    3    3    0    0 -0.10050023542E+03  0.46065450406E+02  0.32871139360E+03  0.43519390135E+03  0.26290726206E+03 0.  0.
         25    1    4    4    0    0 -0.24740187406E+02  0.11334759394E+02  0.10445869533E+03  0.16522615039E+03  0.12509000000E+03 0.  0.
         25    1    4    4    0    0 -0.75760048016E+02  0.34730691012E+02  0.22425269827E+03  0.26996775095E+03  0.12509000000E+03 0.  0.
         25    1    3    3    0    0  0.10050023542E+03 -0.46065450406E+02  0.29609766754E+03  0.33991713676E+03  0.12509000000E+03 0.  0.
<mgrwt>
<rscale>  2 0.45870552E+03</rscale>
<asrwt>0</asrwt>
<pdfrwt beam="1">  1       21 0.10293530E+00 0.45870552E+03</pdfrwt>
<pdfrwt beam="2">  1       21 0.11051616E-01 0.45870552E+03</pdfrwt>
<totfact> 0.47592742E+04</totfact>
</mgrwt>
</event>
<event>
 7    0  0.4705418E-002  0.4550727E+03  0.7546771E-02  0.1026220E+00
         21   -1    0    0  502  501  0.00000000000E+00  0.00000000000E+00  0.48617477188E+03  0.48617477188E+03  0.00000000000E+00 0. -1.
         21   -1    0    0  501  502 -0.00000000000E+00 -0.00000000000E+00 -0.10649007107E+03  0.10649007107E+03  0.00000000000E+00 0. -1.
      99926    2    1    2    0    0  0.17763568394E-14  0.14210854715E-13  0.37968470080E+03  0.59266484295E+03  0.45507267996E+03 0.  0.
      99925    2    3    3    0    0  0.13730043180E+02 -0.10647587115E+03  0.28640419430E+03  0.40325949399E+03  0.26280264792E+03 0.  0.
         25    1    4    4    0    0 -0.28614952217E+02 -0.32226491654E+02  0.13814216862E+03  0.19128023710E+03  0.12509000000E+03 0.  0.
         25    1    3    3    0    0 -0.13730043180E+02  0.10647587115E+03  0.93280506500E+02  0.18940534896E+03  0.12509000000E+03 0.  0.
         25    1    4    4    0    0  0.42344995397E+02 -0.74249379493E+02  0.14826202569E+03  0.21197925689E+03  0.12509000000E+03 0.  0.
<mgrwt>
<rscale>  2 0.45507268E+03</rscale>
<asrwt>0</asrwt>
<pdfrwt beam="1">  1       21 0.71496289E-01 0.45507268E+03</pdfrwt>
<pdfrwt beam="2">  1       21 0.15660305E-01 0.45507268E+03</pdfrwt>
<totfact> 0.59098098E+04</totfact>
</mgrwt>
</event>
<event>
 7    0  0.4705418E-002  0.4538992E+03  0.7546771E-02  0.1026566E+00
         21   -1    0    0  502  501  0.00000000000E+00  0.00000000000E+00  0.31641188127E+03  0.31641188127E+03  0.00000000000E+00 0.  1.
         21   -1    0    0  501  502 -0.00000000000E+00 -0.00000000000E+00 -0.16278185726E+03  0.16278185726E+03  0.00000000000E+00 0.  1.
      99926    2    1    2    0    0  0.00000000000E+00  0.00000000000E+00  0.15363002400E+03  0.47919373853E+03  0.45389916807E+03 0.  0.
      99925    2    3    3    0    0 -0.10005412679E+03 -0.49689417802E+02  0.88089792231E+02  0.29913014807E+03  0.26313336440E+03 0.  0.
         25    1    3    3    0    0  0.10005412679E+03  0.49689417802E+02  0.65540231773E+02  0.18006359046E+03  0.12509000000E+03 0.  0.
         25    1    4    4    0    0 -0.21993761485E+02 -0.45865696115E+01  0.66486799364E+02  0.14343209109E+03  0.12509000000E+03 0.  0.
         25    1    4    4    0    0 -0.78060365305E+02 -0.45102848191E+02  0.21602992867E+02  0.15569805698E+03  0.12509000000E+03 0.  0.
<mgrwt>
<rscale>  2 0.45389917E+03</rscale>
<asrwt>0</asrwt>
<pdfrwt beam="1">  1       21 0.46531159E-01 0.45389917E+03</pdfrwt>
<pdfrwt beam="2">  1       21 0.23938508E-01 0.45389917E+03</pdfrwt>
<totfact> 0.67345359E+04</totfact>
</mgrwt>
</event>
<event>
 7    0  0.4705418E-002  0.4466958E+03  0.7546771E-02  0.1028712E+00
         21   -1    0    0  502  501  0.00000000000E+00  0.00000000000E+00  0.42585291257E+03  0.42585291257E+03  0.00000000000E+00 0. -1.
         21   -1    0    0  501  502 -0.00000000000E+00 -0.00000000000E+00 -0.11713970025E+03  0.11713970025E+03  0.00000000000E+00 0. -1.
      99926    2    1    2    0    0  0.35527136788E-14  0.00000000000E+00  0.30871321233E+03  0.54299261282E+03  0.44669579147E+03 0.  0.
      99925    2    3    3    0    0 -0.22475612483E+02  0.62555309869E+02  0.96717920414E+02  0.28802627810E+03  0.26303319334E+03 0.  0.
         25    1    4    4    0    0  0.22056782846E+02  0.27040412078E+02  0.71619395872E+02  0.14830553435E+03  0.12509000000E+03 0.  0.
         25    1    4    4    0    0 -0.44532395330E+02  0.35514897791E+02  0.25098524542E+02  0.13972074375E+03  0.12509000000E+03 0.  0.
         25    1    3    3    0    0  0.22475612483E+02 -0.62555309869E+02  0.21199529191E+03  0.25496633472E+03  0.12509000000E+03 0.  0.
<mgrwt>
<rscale>  2 0.44669579E+03</rscale>
<asrwt>0</asrwt>
<pdfrwt beam="1">  1       21 0.62625428E-01 0.44669579E+03</pdfrwt>
<pdfrwt beam="2">  1       21 0.17226427E-01 0.44669579E+03</pdfrwt>
<totfact> 0.66601842E+04</totfact>
</mgrwt>
</event>
<event>
 7    0  0.4705418E-002  0.4639675E+03  0.7546771E-02  0.1023637E+00
         21   -1    0    0  502  501  0.00000000000E+00  0.00000000000E+00  0.57029946727E+03  0.57029946727E+03  0.00000000000E+00 0.  1.
         21   -1    0    0  501  502 -0.00000000000E+00 -0.00000000000E+00 -0.94365275653E+02  0.94365275653E+02  0.00000000000E+00 0.  1.
      99926    2    1    2    0    0  0.00000000000E+00 -0.71054273576E-14  0.47593419162E+03  0.66466474292E+03  0.46396752660E+03 0.  0.
      99925    2    3    3    0    0 -0.92616585431E+02  0.45529472976E+02  0.38839295548E+03  0.48037762745E+03  0.26317828991E+03 0.  0.
         25    1    4    4    0    0 -0.59391710422E+02  0.52941809720E+02  0.25074973060E+03  0.29129563330E+03  0.12509000000E+03 0.  0.
         25    1    3    3    0    0  0.92616585431E+02 -0.45529472976E+02  0.87541236139E+02  0.18428711548E+03  0.12509000000E+03 0.  0.
         25    1    4    4    0    0 -0.33224875009E+02 -0.74123367439E+01  0.13764322488E+03  0.18908199415E+03  0.12509000000E+03 0.  0.
<mgrwt>
<rscale>  2 0.46396753E+03</rscale>
<asrwt>0</asrwt>
<pdfrwt beam="1">  1       21 0.83867567E-01 0.46396753E+03</pdfrwt>
<pdfrwt beam="2">  1       21 0.13877247E-01 0.46396753E+03</pdfrwt>
<totfact> 0.51149722E+04</totfact>
</mgrwt>
</event>
<event>
 7    0  0.4705418E-002  0.4407864E+03  0.7546771E-02  0.1030506E+00
         21   -1    0    0  502  501  0.00000000000E+00  0.00000000000E+00  0.37549077675E+02  0.37549077675E+02  0.00000000000E+00 0. -1.
         21   -1    0    0  501  502 -0.00000000000E+00 -0.00000000000E+00 -0.12935915212E+04  0.12935915212E+04  0.00000000000E+00 0. -1.
      99926    2    1    2    0    0  0.00000000000E+00  0.00000000000E+00 -0.12560424436E+04  0.13311405989E+04  0.44078642679E+03 0.  0.
      99925    2    3    3    0    0  0.70021796918E+02  0.70000754582E+02 -0.82165410518E+03  0.86838375746E+03  0.26300517862E+03 0.  0.
         25    1    3    3    0    0 -0.70021796918E+02 -0.70000754582E+02 -0.43438833837E+03  0.46275684144E+03  0.12509000000E+03 0.  0.
         25    1    4    4    0    0  0.34990253878E+02  0.73887236775E+02 -0.48568527839E+03  0.50815483798E+03  0.12509000000E+03 0.  0.
         25    1    4    4    0    0  0.35031543040E+02 -0.38864821924E+01 -0.33596882679E+03  0.36022891947E+03  0.12509000000E+03 0.  0.
<mgrwt>
<rscale>  2 0.44078643E+03</rscale>
<asrwt>0</asrwt>
<pdfrwt beam="1">  1       21 0.55219237E-02 0.44078643E+03</pdfrwt>
<pdfrwt beam="2">  1       21 0.19023403E+00 0.44078643E+03</pdfrwt>
<totfact> 0.31571258E+04</totfact>
</mgrwt>
</event>
<event>
 7    0  0.4705418E-002  0.4531907E+03  0.7546771E-02  0.1026775E+00
         21   -1    0    0  502  501  0.00000000000E+00  0.00000000000E+00  0.52859260017E+02  0.52859260017E+02  0.00000000000E+00 0. -1.
         21   -1    0    0  501  502 -0.00000000000E+00 -0.00000000000E+00 -0.97136135190E+03  0.97136135190E+03  0.00000000000E+00 0. -1.
      99926    2    1    2    0    0  0.00000000000E+00  0.88817841970E-15 -0.91850209188E+03  0.10242206119E+04  0.45319065423E+03 0.  0.
      99925    2    3    3    0    0  0.10668890618E+03  0.66541137372E+00 -0.65210885211E+03  0.71117775259E+03  0.26295413157E+03 0.  0.
         25    1    4    4    0    0  0.89234139853E+02  0.23444138935E+02 -0.35765786141E+03  0.38997309304E+03  0.12509000000E+03 0.  0.
         25    1    3    3    0    0 -0.10668890618E+03 -0.66541137372E+00 -0.26639323977E+03  0.31304285932E+03  0.12509000000E+03 0.  0.
         25    1    4    4    0    0  0.17454766332E+02 -0.22778727562E+02 -0.29445099069E+03  0.32120465955E+03  0.12509000000E+03 0.  0.
<mgrwt>
<rscale>  2 0.45319065E+03</rscale>
<asrwt>0</asrwt>
<pdfrwt beam="1">  1       21 0.77734212E-02 0.45319065E+03</pdfrwt>
<pdfrwt beam="2">  1       21 0.14284725E+00 0.45319065E+03</pdfrwt>
<totfact> 0.38782730E+04</totfact>
</mgrwt>
</event>
<event>
 7    0  0.4705418E-002  0.4554164E+03  0.7546771E-02  0.1026119E+00
         21   -1    0    0  502  501  0.00000000000E+00  0.00000000000E+00  0.93380531963E+02  0.93380531963E+02  0.00000000000E+00 0. -1.
         21   -1    0    0  501  502 -0.00000000000E+00 -0.00000000000E+00 -0.55526599915E+03  0.55526599915E+03  0.00000000000E+00 0. -1.
      99926    2    1    2    0    0  0.00000000000E+00  0.00000000000E+00 -0.46188546719E+03  0.64864653111E+03  0.45541644407E+03 0.  0.
      99925    2    3    3    0    0 -0.67517344151E+02 -0.86956186582E+02 -0.32792887407E+03  0.43484324048E+03  0.26349824894E+03 0.  0.
         25    1    4    4    0    0 -0.51633444223E+02 -0.16719446786E+02 -0.19946418773E+03  0.24161751334E+03  0.12509000000E+03 0.  0.
         25    1    3    3    0    0  0.67517344151E+02  0.86956186582E+02 -0.13395659312E+03  0.21380329063E+03  0.12509000000E+03 0.  0.
         25    1    4    4    0    0 -0.15883899928E+02 -0.70236739797E+02 -0.12846468634E+03  0.19322572714E+03  0.12509000000E+03 0.  0.
<mgrwt>
<rscale>  2 0.45541644E+03</rscale>
<asrwt>0</asrwt>
<pdfrwt beam="1">  1       21 0.13732432E-01 0.45541644E+03</pdfrwt>
<pdfrwt beam="2">  1       21 0.81656762E-01 0.45541644E+03</pdfrwt>
<totfact> 0.55596645E+04</totfact>
</mgrwt>
</event>
<event>
 7    0  0.4705418E-002  0.4605105E+03  0.7546771E-02  0.1024633E+00
         21   -1    0    0  502  501  0.00000000000E+00  0.00000000000E+00  0.11252378509E+03  0.11252378509E+03  0.00000000000E+00 0.  1.
         21   -1    0    0  501  502 -0.00000000000E+00 -0.00000000000E+00 -0.47116688910E+03  0.47116688910E+03  0.00000000000E+00 0.  1.
      99926    2    1    2    0    0  0.71054273576E-14  0.00000000000E+00 -0.35864310401E+03  0.58369067420E+03  0.46051050704E+03 0.  0.
      99925    2    3    3    0    0 -0.61401602042E+02  0.73068473816E+02 -0.31288526043E+03  0.41982961431E+03  0.26315501184E+03 0.  0.
         25    1    3    3    0    0  0.61401602042E+02 -0.73068473816E+02 -0.45757843584E+02  0.16386105989E+03  0.12509000000E+03 0.  0.
         25    1    4    4    0    0  0.24295643562E+01  0.20417310719E+02 -0.11217930837E+03  0.16927632642E+03  0.12509000000E+03 0.  0.
         25    1    4    4    0    0 -0.63831166398E+02  0.52651163097E+02 -0.20070595206E+03  0.25055328789E+03  0.12509000000E+03 0.  0.
<mgrwt>
<rscale>  2 0.46051051E+03</rscale>
<asrwt>0</asrwt>
<pdfrwt beam="1">  1       21 0.16547615E-01 0.46051051E+03</pdfrwt>
<pdfrwt beam="2">  1       21 0.69289249E-01 0.46051051E+03</pdfrwt>
<totfact> 0.57162503E+04</totfact>
</mgrwt>
</event>
<event>
 7    0  0.4705418E-002  0.4571852E+03  0.7546771E-02  0.1025601E+00
         21   -1    0    0  502  501  0.00000000000E+00  0.00000000000E+00  0.23704087685E+03  0.23704087685E+03  0.00000000000E+00 0. -1.
         21   -1    0    0  501  502 -0.00000000000E+00 -0.00000000000E+00 -0.22044543353E+03  0.22044543353E+03  0.00000000000E+00 0. -1.
      99926    2    1    2    0    0  0.00000000000E+00  0.00000000000E+00  0.16595443325E+02  0.45748631038E+03  0.45718520912E+03 0.  0.
      99925    2    3    3    0    0 -0.77201012949E+01  0.99904859118E+02  0.67341006204E+02  0.28936968094E+03  0.26298178700E+03 0.  0.
         25    1    4    4    0    0  0.73576812449E+01  0.84540041518E+01  0.34736043438E+02  0.13030620274E+03  0.12509000000E+03 0.  0.
         25    1    4    4    0    0 -0.15077782540E+02  0.91450854967E+02  0.32604962766E+02  0.15906347820E+03  0.12509000000E+03 0.  0.
         25    1    3    3    0    0  0.77201012949E+01 -0.99904859118E+02 -0.50745562879E+02  0.16811662943E+03  0.12509000000E+03 0.  0.
<mgrwt>
<rscale>  2 0.45718521E+03</rscale>
<asrwt>0</asrwt>
<pdfrwt beam="1">  1       21 0.34858952E-01 0.45718521E+03</pdfrwt>
<pdfrwt beam="2">  1       21 0.32418446E-01 0.45718521E+03</pdfrwt>
<totfact> 0.67184973E+04</totfact>
</mgrwt>
</event>
<event>
 7    0  0.4705418E-002  0.4508614E+03  0.7546771E-02  0.1027465E+00
         21   -1    0    0  502  501  0.00000000000E+00  0.00000000000E+00  0.11955407233E+04  0.11955407233E+04  0.00000000000E+00 0.  1.
         21   -1    0    0  501  502 -0.00000000000E+00 -0.00000000000E+00 -0.42507121751E+02  0.42507121751E+02  0.00000000000E+00 0.  1.
      99926    2    1    2    0    0  0.00000000000E+00 -0.14210854715E-13  0.11530336016E+04  0.12380478451E+04  0.45086137596E+03 0.  0.
      99925    2    3    3    0    0  0.66816776823E+02 -0.86409856959E+02  0.71560135089E+03  0.77015295615E+03  0.26290518714E+03 0.  0.
         25    1    3    3    0    0 -0.66816776823E+02  0.86409856959E+02  0.43743225067E+03  0.46789488892E+03  0.12509000000E+03 0.  0.
         25    1    4    4    0    0  0.33551580438E+00 -0.66406237234E+02  0.35822004978E+03  0.38519996506E+03  0.12509000000E+03 0.  0.
         25    1    4    4    0    0  0.66481261019E+02 -0.20003619725E+02  0.35738130111E+03  0.38495299109E+03  0.12509000000E+03 0.  0.
<mgrwt>
<rscale>  2 0.45086138E+03</rscale>
<asrwt>0</asrwt>
<pdfrwt beam="1">  1       21 0.17581479E+00 0.45086138E+03</pdfrwt>
<pdfrwt beam="2">  1       21 0.62510481E-02 0.45086138E+03</pdfrwt>
<totfact> 0.31986578E+04</totfact>
</mgrwt>
</event>
<event>
 7    0  0.4705418E-002  0.4553670E+03  0.7546771E-02  0.1026134E+00
         21   -1    0    0  502  501  0.00000000000E+00  0.00000000000E+00  0.54329366270E+02  0.54329366270E+02  0.00000000000E+00 0.  1.
         21   -1    0    0  501  502 -0.00000000000E+00 -0.00000000000E+00 -0.95417607385E+03  0.95417607385E+03  0.00000000000E+00 0.  1.
      99926    2    1    2    0    0  0.00000000000E+00  0.00000000000E+00 -0.89984670758E+03  0.10085054401E+04  0.45536702297E+03 0.  0.
      99925    2    3    3    0    0  0.88441865188E+02 -0.57945967442E+02 -0.65779455780E+03  0.71624451222E+03  0.26293121222E+03 0.  0.
         25    1    4    4    0    0  0.34530245396E+02 -0.42733560207E+02 -0.23546146471E+03  0.27222803764E+03  0.12509000000E+03 0.  0.
         25    1    4    4    0    0  0.53911619792E+02 -0.15212407235E+02 -0.42233309309E+03  0.44401647458E+03  0.12509000000E+03 0.  0.
         25    1    3    3    0    0 -0.88441865188E+02  0.57945967442E+02 -0.24205214978E+03  0.29226092790E+03  0.12509000000E+03 0.  0.
<mgrwt>
<rscale>  2 0.45536702E+03</rscale>
<asrwt>0</asrwt>
<pdfrwt beam="1">  1       21 0.79896129E-02 0.45536702E+03</pdfrwt>
<pdfrwt beam="2">  1       21 0.14032001E+00 0.45536702E+03</pdfrwt>
<totfact> 0.38726473E+04</totfact>
</mgrwt>
</event>
<event>
 7    0  0.4705418E-002  0.4560764E+03  0.7546771E-02  0.1025925E+00
         21   -1    0    0  502  501  0.00000000000E+00  0.00000000000E+00  0.37578092354E+03  0.37578092354E+03  0.00000000000E+00 0.  1.
         21   -1    0    0  501  502 -0.00000000000E+00 -0.00000000000E+00 -0.13838224995E+03  0.13838224995E+03  0.00000000000E+00 0.  1.
      99926    2    1    2    0    0  0.00000000000E+00 -0.14210854715E-13  0.23739867359E+03  0.51416317348E+03  0.45607635188E+03 0.  0.
      99925    2    3    3    0    0 -0.12610000040E+02 -0.11128727667E+03  0.17402373501E+03  0.33469796518E+03  0.26304865995E+03 0.  0.
         25    1    4    4    0    0 -0.19935693499E+02 -0.73136816064E+02  0.50728778216E+02  0.15481389724E+03  0.12509000000E+03 0.  0.
         25    1    4    4    0    0  0.73256934596E+01 -0.38150460607E+02  0.12329495680E+03  0.17988406794E+03  0.12509000000E+03 0.  0.
         25    1    3    3    0    0  0.12610000040E+02  0.11128727667E+03  0.63374938581E+02  0.17946520830E+03  0.12509000000E+03 0.  0.
<mgrwt>
<rscale>  2 0.45607635E+03</rscale>
<asrwt>0</asrwt>
<pdfrwt beam="1">  1       21 0.55261900E-01 0.45607635E+03</pdfrwt>
<pdfrwt beam="2">  1       21 0.20350331E-01 0.45607635E+03</pdfrwt>
<totfact> 0.63740505E+04</totfact>
</mgrwt>
</event>
<event>
 7    0  0.4705418E-002  0.4296251E+03  0.7546771E-02  0.1033978E+00
         21   -1    0    0  502  501  0.00000000000E+00  0.00000000000E+00  0.38500193134E+03  0.38500193134E+03  0.00000000000E+00 0. -1.
         21   -1    0    0  501  502 -0.00000000000E+00 -0.00000000000E+00 -0.11985505712E+03  0.11985505712E+03  0.00000000000E+00 0. -1.
      99926    2    1    2    0    0  0.00000000000E+00  0.00000000000E+00  0.26514687423E+03  0.50485698846E+03  0.42962508526E+03 0.  0.
      99925    2    3    3    0    0 -0.27475889293E+02 -0.58988200892E+02  0.23902022731E+03  0.36145321544E+03  0.26321706927E+03 0.  0.
         25    1    4    4    0    0  0.24452123635E+01 -0.20422372957E+02  0.16516280613E+03  0.20820497835E+03  0.12509000000E+03 0.  0.
         25    1    3    3    0    0  0.27475889293E+02  0.58988200892E+02  0.26126646916E+02  0.14340377302E+03  0.12509000000E+03 0.  0.
         25    1    4    4    0    0 -0.29921101656E+02 -0.38565827934E+02  0.73857421179E+02  0.15324823709E+03  0.12509000000E+03 0.  0.
<mgrwt>
<rscale>  2 0.42962509E+03</rscale>
<asrwt>0</asrwt>
<pdfrwt beam="1">  1       21 0.56617931E-01 0.42962509E+03</pdfrwt>
<pdfrwt beam="2">  1       21 0.17625744E-01 0.42962509E+03</pdfrwt>
<totfact> 0.79824957E+04</totfact>
</mgrwt>
</event>
<event>
 7    0  0.4705418E-002  0.4548184E+03  0.7546771E-02  0.1026295E+00
         21   -1    0    0  502  501  0.00000000000E+00  0.00000000000E+00  0.13268496779E+03  0.13268496779E+03  0.00000000000E+00 0. -1.
         21   -1    0    0  501  502 -0.00000000000E+00 -0.00000000000E+00 -0.38975733587E+03  0.38975733587E+03  0.00000000000E+00 0. -1.
      99926    2    1    2    0    0  0.71054273576E-14  0.00000000000E+00 -0.25707236808E+03  0.52244230365E+03  0.45481837937E+03 0.  0.
      99925    2    3    3    0    0 -0.41796473058E+02 -0.18064728314E+02 -0.42945356179E+02  0.27030907519E+03  0.26296275961E+03 0.  0.
         25    1    3    3    0    0  0.41796473058E+02  0.18064728314E+02 -0.21412701190E+03  0.25213322846E+03  0.12509000000E+03 0.  0.
         25    1    4    4    0    0 -0.38284307017E+02 -0.70957733706E+00  0.14317434650E+02  0.13160048898E+03  0.12509000000E+03 0.  0.
         25    1    4    4    0    0 -0.35121660411E+01 -0.17355150977E+02 -0.57262790829E+02  0.13870858621E+03  0.12509000000E+03 0.  0.
<mgrwt>
<rscale>  2 0.45481838E+03</rscale>
<asrwt>0</asrwt>
<pdfrwt beam="1">  1       21 0.19512495E-01 0.45481838E+03</pdfrwt>
<pdfrwt beam="2">  1       21 0.57317256E-01 0.45481838E+03</pdfrwt>
<totfact> 0.63812811E+04</totfact>
</mgrwt>
</event>
<event>
 7    0  0.4705418E-002  0.4577937E+03  0.7546771E-02  0.1025423E+00
         21   -1    0    0  502  501  0.00000000000E+00  0.00000000000E+00  0.25383374248E+03  0.25383374248E+03  0.00000000000E+00 0.  1.
         21   -1    0    0  501  502 -0.00000000000E+00 -0.00000000000E+00 -0.20640975596E+03  0.20640975596E+03  0.00000000000E+00 0.  1.
      99926    2    1    2    0    0 -0.14210854715E-13  0.00000000000E+00  0.47423986519E+02  0.46024349844E+03  0.45779366898E+03 0.  0.
      99925    2    3    3    0    0  0.89893060139E+02  0.70807151685E+02  0.10003952065E+02  0.28662845857E+03  0.26260498704E+03 0.  0.
         25    1    4    4    0    0  0.11738357440E+02  0.11876813151E+02 -0.97219694374E+01  0.12657358538E+03  0.12509000000E+03 0.  0.
         25    1    4    4    0    0  0.78154702699E+02  0.58930338534E+02  0.19725921502E+02  0.16005487319E+03  0.12509000000E+03 0.  0.
         25    1    3    3    0    0 -0.89893060139E+02 -0.70807151685E+02  0.37420034454E+02  0.17361503987E+03  0.12509000000E+03 0.  0.
<mgrwt>
<rscale>  2 0.45779367E+03</rscale>
<asrwt>0</asrwt>
<pdfrwt beam="1">  1       21 0.37328491E-01 0.45779367E+03</pdfrwt>
<pdfrwt beam="2">  1       21 0.30354376E-01 0.45779367E+03</pdfrwt>
<totfact> 0.66664970E+04</totfact>
</mgrwt>
</event>
<event>
 7    0  0.4705418E-002  0.4484524E+03  0.7546771E-02  0.1028185E+00
         21   -1    0    0  502  501  0.00000000000E+00  0.00000000000E+00  0.31007634316E+03  0.31007634316E+03  0.00000000000E+00 0. -1.
         21   -1    0    0  501  502 -0.00000000000E+00 -0.00000000000E+00 -0.16214518926E+03  0.16214518926E+03  0.00000000000E+00 0. -1.
      99926    2    1    2    0    0  0.00000000000E+00  0.00000000000E+00  0.14793115390E+03  0.47222153242E+03  0.44845239367E+03 0.  0.
      99925    2    3    3    0    0  0.10090592247E+03  0.25211785974E+02  0.67050022389E+02  0.29054350712E+03  0.26287294400E+03 0.  0.
         25    1    4    4    0    0  0.49969426627E+02  0.43809402153E+02  0.77217663403E+01  0.14185676258E+03  0.12509000000E+03 0.  0.
         25    1    3    3    0    0 -0.10090592247E+03 -0.25211785974E+02  0.80881131511E+02  0.18167802530E+03  0.12509000000E+03 0.  0.
         25    1    4    4    0    0  0.50936495843E+02 -0.18597616179E+02  0.59328256048E+02  0.14868674454E+03  0.12509000000E+03 0.  0.
<mgrwt>
<rscale>  2 0.44845239E+03</rscale>
<asrwt>0</asrwt>
<pdfrwt beam="1">  1       21 0.45599462E-01 0.44845239E+03</pdfrwt>
<pdfrwt beam="2">  1       21 0.23844881E-01 0.44845239E+03</pdfrwt>
<totfact> 0.70883142E+04</totfact>
</mgrwt>
</event>
<event>
 7    0  0.4705418E-002  0.4575299E+03  0.7546771E-02  0.1025500E+00
         21   -1    0    0  502  501  0.00000000000E+00  0.00000000000E+00  0.97766833238E+02  0.97766833238E+02  0.00000000000E+00 0. -1.
         21   -1    0    0  501  502 -0.00000000000E+00 -0.00000000000E+00 -0.53528792624E+03  0.53528792624E+03  0.00000000000E+00 0. -1.
      99926    2    1    2    0    0  0.35527136788E-14  0.00000000000E+00 -0.43752109300E+03  0.63305475947E+03  0.45752991342E+03 0.  0.
      99925    2    3    3    0    0  0.28376061668E+02  0.68259819659E+02 -0.39755884098E+03  0.48235939278E+03  0.26296948094E+03 0.  0.
         25    1    4    4    0    0 -0.16154834003E+02  0.37769721099E+02 -0.14840333164E+03  0.19838998824E+03  0.12509000000E+03 0.  0.
         25    1    3    3    0    0 -0.28376061668E+02 -0.68259819659E+02 -0.39962252018E+02  0.15069536669E+03  0.12509000000E+03 0.  0.
         25    1    4    4    0    0  0.44530895671E+02  0.30490098560E+02 -0.24915550934E+03  0.28396940454E+03  0.12509000000E+03 0.  0.
<mgrwt>
<rscale>  2 0.45752991E+03</rscale>
<asrwt>0</asrwt>
<pdfrwt beam="1">  1       21 0.14377476E-01 0.45752991E+03</pdfrwt>
<pdfrwt beam="2">  1       21 0.78718812E-01 0.45752991E+03</pdfrwt>
<totfact> 0.55570354E+04</totfact>
</mgrwt>
</event>
<event>
 7    0  0.4705418E-002  0.4518494E+03  0.7546771E-02  0.1027172E+00
         21   -1    0    0  502  501  0.00000000000E+00  0.00000000000E+00  0.73745518518E+03  0.73745518518E+03  0.00000000000E+00 0.  1.
         21   -1    0    0  501  502 -0.00000000000E+00 -0.00000000000E+00 -0.69213655752E+02  0.69213655752E+02  0.00000000000E+00 0.  1.
      99926    2    1    2    0    0  0.00000000000E+00 -0.14210854715E-13  0.66824152943E+03  0.80666884093E+03  0.45184939668E+03 0.  0.
      99925    2    3    3    0    0 -0.42441171981E+02 -0.70198080112E+02  0.55298666259E+03  0.61782971373E+03  0.26304045819E+03 0.  0.
         25    1    3    3    0    0  0.42441171981E+02  0.70198080112E+02  0.11525486684E+03  0.18883912720E+03  0.12509000000E+03 0.  0.
         25    1    4    4    0    0 -0.30915273932E+02 -0.16345158857E+02  0.19173683023E+03  0.23158894306E+03  0.12509000000E+03 0.  0.
         25    1    4    4    0    0 -0.11525898050E+02 -0.53852921254E+02  0.36124983236E+03  0.38624077068E+03  0.12509000000E+03 0.  0.
<mgrwt>
<rscale>  2 0.45184940E+03</rscale>
<asrwt>0</asrwt>
<pdfrwt beam="1">  1       21 0.10844929E+00 0.45184940E+03</pdfrwt>
<pdfrwt beam="2">  1       21 0.10178479E-01 0.45184940E+03</pdfrwt>
<totfact> 0.48635298E+04</totfact>
</mgrwt>
</event>
<event>
 7    0  0.4705418E-002  0.4233650E+03  0.7546771E-02  0.1035977E+00
         21   -1    0    0  502  501  0.00000000000E+00  0.00000000000E+00  0.94527622100E+03  0.94527622100E+03  0.00000000000E+00 0.  1.
         21   -1    0    0  501  502 -0.00000000000E+00 -0.00000000000E+00 -0.47403591420E+02  0.47403591420E+02  0.00000000000E+00 0.  1.
      99926    2    1    2    0    0  0.00000000000E+00  0.00000000000E+00  0.89787262958E+03  0.99267981242E+03  0.42336503285E+03 0.  0.
      99925    2    3    3    0    0 -0.16010437889E+02 -0.35512923237E+02  0.41837577769E+03  0.49560613487E+03  0.26281104948E+03 0.  0.
         25    1    4    4    0    0 -0.22441339838E+02 -0.50935433046E+02  0.18320592228E+03  0.22871368593E+03  0.12509000000E+03 0.  0.
         25    1    3    3    0    0  0.16010437889E+02  0.35512923237E+02  0.47949685189E+03  0.49707367755E+03  0.12509000000E+03 0.  0.
         25    1    4    4    0    0  0.64309019486E+01  0.15422509809E+02  0.23516985542E+03  0.26689244895E+03  0.12509000000E+03 0.  0.
<mgrwt>
<rscale>  2 0.42336503E+03</rscale>
<asrwt>0</asrwt>
<pdfrwt beam="1">  1       21 0.13901120E+00 0.42336503E+03</pdfrwt>
<pdfrwt beam="2">  1       21 0.69711170E-02 0.42336503E+03</pdfrwt>
<totfact> 0.50917527E+04</totfact>
</mgrwt>
</event>
<event>
 7    0  0.4705418E-002  0.4493214E+03  0.7546771E-02  0.1027925E+00
         21   -1    0    0  502  501  0.00000000000E+00  0.00000000000E+00  0.13268982842E+04  0.13268982842E+04  0.00000000000E+00 0. -1.
         21   -1    0    0  501  502 -0.00000000000E+00 -0.00000000000E+00 -0.38037903212E+02  0.38037903212E+02  0.00000000000E+00 0. -1.
      99926    2    1    2    0    0  0.00000000000E+00  0.00000000000E+00  0.12888603810E+04  0.13649361874E+04  0.44932139279E+03 0.  0.
      99925    2    3    3    0    0 -0.54411807063E+02 -0.92918914986E+02  0.83212090998E+03  0.87928917364E+03  0.26292522233E+03 0.  0.
         25    1    4    4    0    0 -0.53463257444E+02 -0.33228473714E+02  0.50404141124E+03  0.52313258712E+03  0.12509000000E+03 0.  0.
         25    1    3    3    0    0  0.54411807063E+02  0.92918914986E+02  0.45673947098E+03  0.48564701374E+03  0.12509000000E+03 0.  0.
         25    1    4    4    0    0 -0.94854961920E+00 -0.59690441272E+02  0.32807949874E+03  0.35615658652E+03  0.12509000000E+03 0.  0.
<mgrwt>
<rscale>  2 0.44932139E+03</rscale>
<asrwt>0</asrwt>
<pdfrwt beam="1">  1       21 0.19513207E+00 0.44932139E+03</pdfrwt>
<pdfrwt beam="2">  1       21 0.55938102E-02 0.44932139E+03</pdfrwt>
<totfact> 0.28519756E+04</totfact>
</mgrwt>
</event>
<event>
 7    0  0.4705418E-002  0.4544003E+03  0.7546771E-02  0.1026418E+00
         21   -1    0    0  502  501  0.00000000000E+00  0.00000000000E+00  0.49341958163E+03  0.49341958163E+03  0.00000000000E+00 0. -1.
         21   -1    0    0  501  502 -0.00000000000E+00 -0.00000000000E+00 -0.10461666614E+03  0.10461666614E+03  0.00000000000E+00 0. -1.
      99926    2    1    2    0    0  0.00000000000E+00  0.00000000000E+00  0.38880291549E+03  0.59803624777E+03  0.45440031531E+03 0.  0.
      99925    2    3    3    0    0  0.59335522249E+02 -0.95890705927E+02  0.25404270242E+03  0.38234305174E+03  0.26255053396E+03 0.  0.
         25    1    4    4    0    0  0.19439818778E+02 -0.28048073960E+02  0.73571850940E+02  0.14908026817E+03  0.12509000000E+03 0.  0.
         25    1    4    4    0    0  0.39895703471E+02 -0.67842631967E+02  0.18047085148E+03  0.23326278357E+03  0.12509000000E+03 0.  0.
         25    1    3    3    0    0 -0.59335522249E+02  0.95890705927E+02  0.13476021307E+03  0.21569319602E+03  0.12509000000E+03 0.  0.
<mgrwt>
<rscale>  2 0.45440032E+03</rscale>
<asrwt>0</asrwt>
<pdfrwt beam="1">  1       21 0.72561702E-01 0.45440032E+03</pdfrwt>
<pdfrwt beam="2">  1       21 0.15384804E-01 0.45440032E+03</pdfrwt>
<totfact> 0.59078753E+04</totfact>
</mgrwt>
</event>
<event>
 7    0  0.4705418E-002  0.4536875E+03  0.7546771E-02  0.1026628E+00
         21   -1    0    0  502  501  0.00000000000E+00  0.00000000000E+00  0.13170290107E+03  0.13170290107E+03  0.00000000000E+00 0. -1.
         21   -1    0    0  501  502 -0.00000000000E+00 -0.00000000000E+00 -0.39071335725E+03  0.39071335725E+03  0.00000000000E+00 0. -1.
      99926    2    1    2    0    0  0.00000000000E+00  0.00000000000E+00 -0.25901045618E+03  0.52241625832E+03  0.45368748115E+03 0.  0.
      99925    2    3    3    0    0 -0.83260688939E+02  0.67511021962E+02 -0.20038280028E+03  0.34755977276E+03  0.26297233425E+03 0.  0.
         25    1    3    3    0    0  0.83260688939E+02 -0.67511021962E+02 -0.58627655899E+02  0.17485648557E+03  0.12509000000E+03 0.  0.
         25    1    4    4    0    0 -0.81388762557E+02  0.42515261376E+02 -0.12595638816E+03  0.19986044616E+03  0.12509000000E+03 0.  0.
         25    1    4    4    0    0 -0.18719263825E+01  0.24995760586E+02 -0.74426412120E+02  0.14769932660E+03  0.12509000000E+03 0.  0.
<mgrwt>
<rscale>  2 0.45368748E+03</rscale>
<asrwt>0</asrwt>
<pdfrwt beam="1">  1       21 0.19368073E-01 0.45368748E+03</pdfrwt>
<pdfrwt beam="2">  1       21 0.57457847E-01 0.45368748E+03</pdfrwt>
<totfact> 0.64390168E+04</totfact>
</mgrwt>
</event>
<event>
 7    0  0.4705418E-002  0.4564256E+03  0.7546771E-02  0.1025823E+00
         21   -1    0    0  502  501  0.00000000000E+00  0.00000000000E+00  0.26497707310E+03  0.26497707310E+03  0.00000000000E+00 0.  1.
         21   -1    0    0  501  502 -0.00000000000E+00 -0.00000000000E+00 -0.19654937926E+03  0.19654937926E+03  0.00000000000E+00 0.  1.
      99926    2    1    2    0    0 -0.71054273576E-14  0.00000000000E+00  0.68427693837E+02  0.46152645236E+03  0.45642558752E+03 0.  0.
      99925    2    3    3    0    0 -0.46726855052E+02 -0.78536358459E+02  0.11245149470E+03  0.30047688941E+03  0.26322929895E+03 0.  0.
         25    1    4    4    0    0  0.12612547385E+02 -0.58428630313E+02  0.51947970439E+02  0.14805094030E+03  0.12509000000E+03 0.  0.
         25    1    3    3    0    0  0.46726855052E+02  0.78536358459E+02 -0.44023800868E+02  0.16104956295E+03  0.12509000000E+03 0.  0.
         25    1    4    4    0    0 -0.59339402437E+02 -0.20107728146E+02  0.60503524265E+02  0.15242594911E+03  0.12509000000E+03 0.  0.
<mgrwt>
<rscale>  2 0.45642559E+03</rscale>
<asrwt>0</asrwt>
<pdfrwt beam="1">  1       21 0.38967217E-01 0.45642559E+03</pdfrwt>
<pdfrwt beam="2">  1       21 0.28904320E-01 0.45642559E+03</pdfrwt>
<totfact> 0.67301090E+04</totfact>
</mgrwt>
</event>
<event>
 7    0  0.4705418E-002  0.4553109E+03  0.7546771E-02  0.1026150E+00
         21   -1    0    0  502  501  0.00000000000E+00  0.00000000000E+00  0.41561371922E+03  0.41561371922E+03  0.00000000000E+00 0. -1.
         21   -1    0    0  501  502 -0.00000000000E+00 -0.00000000000E+00 -0.12469991767E+03  0.12469991767E+03  0.00000000000E+00 0. -1.
      99926    2    1    2    0    0 -0.14210854715E-13 -0.14210854715E-13  0.29091380155E+03  0.54031363689E+03  0.45531086774E+03 0.  0.
      99925    2    3    3    0    0  0.89131300297E+02  0.70027328543E+02  0.18746312339E+03  0.34232937906E+03  0.26305658270E+03 0.  0.
         25    1    4    4    0    0  0.22675740067E+02  0.19400881383E+02  0.48192941514E+02  0.13733408571E+03  0.12509000000E+03 0.  0.
         25    1    3    3    0    0 -0.89131300297E+02 -0.70027328543E+02  0.10345067816E+03  0.19798425782E+03  0.12509000000E+03 0.  0.
         25    1    4    4    0    0  0.66455560230E+02  0.50626447160E+02  0.13927018188E+03  0.20499529335E+03  0.12509000000E+03 0.  0.
<mgrwt>
<rscale>  2 0.45531087E+03</rscale>
<asrwt>0</asrwt>
<pdfrwt beam="1">  1       21 0.61119664E-01 0.45531087E+03</pdfrwt>
<pdfrwt beam="2">  1       21 0.18338223E-01 0.45531087E+03</pdfrwt>
<totfact> 0.62357618E+04</totfact>
</mgrwt>
</event>
<event>
 7    0  0.4705418E-002  0.4600042E+03  0.7546771E-02  0.1024780E+00
         21   -1    0    0  502  501  0.00000000000E+00  0.00000000000E+00  0.10575196263E+03  0.10575196263E+03  0.00000000000E+00 0. -1.
         21   -1    0    0  501  502 -0.00000000000E+00 -0.00000000000E+00 -0.50023620864E+03  0.50023620864E+03  0.00000000000E+00 0. -1.
      99926    2    1    2    0    0  0.00000000000E+00  0.00000000000E+00 -0.39448424600E+03  0.60598817127E+03  0.46000417756E+03 0.  0.
      99925    2    3    3    0    0  0.16631702033E+02  0.47540726542E+02 -0.10746493269E+03  0.28886937885E+03  0.26336300440E+03 0.  0.
         25    1    4    4    0    0  0.31315660638E+02  0.36975852849E+02 -0.21117906822E+02  0.13579896312E+03  0.12509000000E+03 0.  0.
         25    1    4    4    0    0 -0.14683958605E+02  0.10564873692E+02 -0.86347025870E+02  0.15307041573E+03  0.12509000000E+03 0.  0.
         25    1    3    3    0    0 -0.16631702033E+02 -0.47540726542E+02 -0.28701931331E+03  0.31711879242E+03  0.12509000000E+03 0.  0.
<mgrwt>
<rscale>  2 0.46000418E+03</rscale>
<asrwt>0</asrwt>
<pdfrwt beam="1">  1       21 0.15551759E-01 0.46000418E+03</pdfrwt>
<pdfrwt beam="2">  1       21 0.73564148E-01 0.46000418E+03</pdfrwt>
<totfact> 0.56061783E+04</totfact>
</mgrwt>
</event>
<event>
 7    0  0.4705418E-002  0.4560097E+03  0.7546771E-02  0.1025945E+00
         21   -1    0    0  502  501  0.00000000000E+00  0.00000000000E+00  0.14215091228E+04  0.14215091228E+04  0.00000000000E+00 0. -1.
         21   -1    0    0  501  502 -0.00000000000E+00 -0.00000000000E+00 -0.36571140287E+02  0.36571140287E+02  0.00000000000E+00 0. -1.
      99926    2    1    2    0    0  0.00000000000E+00  0.00000000000E+00  0.13849379825E+04  0.14580802631E+04  0.45600969091E+03 0.  0.
      99925    2    3    3    0    0  0.74738427282E+02 -0.57348835180E+02  0.10766443171E+04  0.11122953391E+04  0.26298900070E+03 0.  0.
         25    1    4    4    0    0  0.65805319801E+02 -0.51225624502E+02  0.49862669121E+03  0.52079793587E+03  0.12509000000E+03 0.  0.
         25    1    4    4    0    0  0.89331074807E+01 -0.61232106778E+01  0.57801762587E+03  0.59149740323E+03  0.12509000000E+03 0.  0.
         25    1    3    3    0    0 -0.74738427282E+02  0.57348835180E+02  0.30829366546E+03  0.34578492401E+03  0.12509000000E+03 0.  0.
<mgrwt>
<rscale>  2 0.45600969E+03</rscale>
<asrwt>0</asrwt>
<pdfrwt beam="1">  1       21 0.20904542E+00 0.45600969E+03</pdfrwt>
<pdfrwt beam="2">  1       21 0.53781098E-02 0.45600969E+03</pdfrwt>
<totfact> 0.24630662E+04</totfact>
</mgrwt>
</event>
<event>
 7    0  0.4705418E-002  0.4573270E+03  0.7546771E-02  0.1025559E+00
         21   -1    0    0  502  501  0.00000000000E+00  0.00000000000E+00  0.11606405331E+03  0.11606405331E+03  0.00000000000E+00 0. -1.
         21   -1    0    0  501  502 -0.00000000000E+00 -0.00000000000E+00 -0.45050125010E+03  0.45050125010E+03  0.00000000000E+00 0. -1.
      99926    2    1    2    0    0  0.00000000000E+00 -0.14210854715E-13 -0.33443719679E+03  0.56656530341E+03  0.45732702132E+03 0.  0.
      99925    2    3    3    0    0 -0.56683092334E+02 -0.10043685540E+03 -0.20936964090E+03  0.35540200992E+03  0.26301027974E+03 0.  0.
         25    1    3    3    0    0  0.56683092334E+02  0.10043685540E+03 -0.12506755590E+03  0.21116329349E+03  0.12509000000E+03 0.  0.
         25    1    4    4    0    0 -0.19096352813E+02 -0.15415517037E+02 -0.12337882431E+03  0.17740392117E+03  0.12509000000E+03 0.  0.
         25    1    4    4    0    0 -0.37586739521E+02 -0.85021338360E+02 -0.85990816582E+02  0.17799808876E+03  0.12509000000E+03 0.  0.
<mgrwt>
<rscale>  2 0.45732702E+03</rscale>
<asrwt>0</asrwt>
<pdfrwt beam="1">  1       21 0.17068243E-01 0.45732702E+03</pdfrwt>
<pdfrwt beam="2">  1       21 0.66250184E-01 0.45732702E+03</pdfrwt>
<totfact> 0.59679047E+04</totfact>
</mgrwt>
</event>
<event>
 7    0  0.4705418E-002  0.4560123E+03  0.7546771E-02  0.1025944E+00
         21   -1    0    0  502  501  0.00000000000E+00  0.00000000000E+00  0.27962559714E+03  0.27962559714E+03  0.00000000000E+00 0. -1.
         21   -1    0    0  501  502 -0.00000000000E+00 -0.00000000000E+00 -0.18591577260E+03  0.18591577260E+03  0.00000000000E+00 0. -1.
      99926    2    1    2    0    0  0.00000000000E+00 -0.35527136788E-14  0.93709824540E+02  0.46554136974E+03  0.45601231970E+03 0.  0.
      99925    2    3    3    0    0  0.46456488311E+02 -0.30419722995E+02 -0.43163106696E+02  0.27198188984E+03  0.26273090752E+03 0.  0.
         25    1    4    4    0    0  0.61510279036E+02 -0.29258460737E+02 -0.26687521436E+02  0.14491136550E+03  0.12509000000E+03 0.  0.
         25    1    3    3    0    0 -0.46456488311E+02  0.30419722995E+02  0.13687293124E+03  0.19355947990E+03  0.12509000000E+03 0.  0.
         25    1    4    4    0    0 -0.15053790725E+02 -0.11612622580E+01 -0.16475585260E+02  0.12707052434E+03  0.12509000000E+03 0.  0.
<mgrwt>
<rscale>  2 0.45601232E+03</rscale>
<asrwt>0</asrwt>
<pdfrwt beam="1">  1       21 0.41121411E-01 0.45601232E+03</pdfrwt>
<pdfrwt beam="2">  1       21 0.27340555E-01 0.45601232E+03</pdfrwt>
<totfact> 0.67227490E+04</totfact>
</mgrwt>
</event>
<event>
 7    0  0.4705418E-002  0.4615912E+03  0.7546771E-02  0.1024321E+00
         21   -1    0    0  502  501  0.00000000000E+00  0.00000000000E+00  0.13733294901E+03  0.13733294901E+03  0.00000000000E+00 0.  1.
         21   -1    0    0  501  502 -0.00000000000E+00 -0.00000000000E+00 -0.38786470955E+03  0.38786470955E+03  0.00000000000E+00 0.  1.
      99926    2    1    2    0    0  0.00000000000E+00  0.00000000000E+00 -0.25053176054E+03  0.52519765857E+03  0.46159118008E+03 0.  0.
      99925    2    3    3    0    0  0.99384946468E+02  0.62798700843E+02 -0.13408204213E+03  0.31776311605E+03  0.26301018894E+03 0.  0.
         25    1    4    4    0    0  0.44331135826E+02  0.71315066099E+02 -0.60934727005E+02  0.16251657550E+03  0.12509000000E+03 0.  0.
         25    1    4    4    0    0  0.55053810641E+02 -0.85163652558E+01 -0.73147315123E+02  0.15524654055E+03  0.12509000000E+03 0.  0.
         25    1    3    3    0    0 -0.99384946468E+02 -0.62798700843E+02 -0.11644971841E+03  0.20743454252E+03  0.12509000000E+03 0.  0.
<mgrwt>
<rscale>  2 0.46159118E+03</rscale>
<asrwt>0</asrwt>
<pdfrwt beam="1">  1       21 0.20196022E-01 0.46159118E+03</pdfrwt>
<pdfrwt beam="2">  1       21 0.57038927E-01 0.46159118E+03</pdfrwt>
<totfact> 0.60318140E+04</totfact>
</mgrwt>
</event>
<event>
 7    0  0.4705418E-002  0.4573113E+03  0.7546771E-02  0.1025564E+00
         21   -1    0    0  502  501  0.00000000000E+00  0.00000000000E+00  0.30952298366E+02  0.30952298366E+02  0.00000000000E+00 0.  1.
         21   -1    0    0  501  502 -0.00000000000E+00 -0.00000000000E+00 -0.16891606881E+04  0.16891606881E+04  0.00000000000E+00 0.  1.
      99926    2    1    2    0    0  0.00000000000E+00  0.00000000000E+00 -0.16582083897E+04  0.17201129864E+04  0.45731129706E+03 0.  0.
      99925    2    3    3    0    0 -0.66982128065E+02 -0.75102858028E+02 -0.12533959381E+04  0.12846274255E+04  0.26294333947E+03 0.  0.
         25    1    4    4    0    0 -0.15565373265E+02 -0.74227315946E+02 -0.65646394421E+03  0.67256553096E+03  0.12509000000E+03 0.  0.
         25    1    4    4    0    0 -0.51416754801E+02 -0.87554208244E+00 -0.59693199392E+03  0.61206189452E+03  0.12509000000E+03 0.  0.
         25    1    3    3    0    0  0.66982128065E+02  0.75102858028E+02 -0.40481245155E+03  0.43548556095E+03  0.12509000000E+03 0.  0.
<mgrwt>
<rscale>  2 0.45731130E+03</rscale>
<asrwt>0</asrwt>
<pdfrwt beam="1">  1       21 0.45518084E-02 0.45731130E+03</pdfrwt>
<pdfrwt beam="2">  1       21 0.24840599E+00 0.45731130E+03</pdfrwt>
<totfact> 0.18511769E+04</totfact>
</mgrwt>
</event>
<event>
 7    0  0.4705418E-002  0.4532570E+03  0.7546771E-02  0.1026755E+00
         21   -1    0    0  502  501  0.00000000000E+00  0.00000000000E+00  0.14536471187E+04  0.14536471187E+04  0.00000000000E+00 0. -1.
         21   -1    0    0  501  502 -0.00000000000E+00 -0.00000000000E+00 -0.35332142707E+02  0.35332142707E+02  0.00000000000E+00 0. -1.
      99926    2    1    2    0    0  0.00000000000E+00  0.00000000000E+00  0.14183149760E+04  0.14889792614E+04  0.45325695778E+03 0.  0.
      99925    2    3    3    0    0  0.67803255036E+02  0.43043508376E+02  0.11481057725E+04  0.11805792828E+04  0.26300295303E+03 0.  0.
         25    1    3    3    0    0 -0.67803255036E+02 -0.43043508376E+02  0.27020920353E+03  0.30839997857E+03  0.12509000000E+03 0.  0.
         25    1    4    4    0    0  0.12457344348E+02  0.22908726482E+02  0.70216306947E+03  0.71369494842E+03  0.12509000000E+03 0.  0.
         25    1    4    4    0    0  0.55345910688E+02  0.20134781894E+02  0.44594270299E+03  0.46688433442E+03  0.12509000000E+03 0.  0.
<mgrwt>
<rscale>  2 0.45325696E+03</rscale>
<asrwt>0</asrwt>
<pdfrwt beam="1">  1       21 0.21377159E+00 0.45325696E+03</pdfrwt>
<pdfrwt beam="2">  1       21 0.51959043E-02 0.45325696E+03</pdfrwt>
<totfact> 0.24378935E+04</totfact>
</mgrwt>
</event>
<event>
 7    0  0.4705418E-002  0.4651670E+03  0.7546771E-02  0.1023293E+00
         21   -1    0    0  502  501  0.00000000000E+00  0.00000000000E+00  0.10348070588E+04  0.10348070588E+04  0.00000000000E+00 0.  1.
         21   -1    0    0  501  502 -0.00000000000E+00 -0.00000000000E+00 -0.52275517841E+02  0.52275517841E+02  0.00000000000E+00 0.  1.
      99926    2    1    2    0    0  0.00000000000E+00  0.00000000000E+00  0.98253154094E+03  0.10870825766E+04  0.46516695868E+03 0.  0.
      99925    2    3    3    0    0 -0.40185546754E+01  0.10505175120E+03  0.75792171845E+03  0.80932530908E+03  0.26364769184E+03 0.  0.
         25    1    4    4    0    0  0.18492036772E+02  0.73084148494E+02  0.48595558784E+03  0.50742840839E+03  0.12509000000E+03 0.  0.
         25    1    3    3    0    0  0.40185546754E+01 -0.10505175120E+03  0.22460982250E+03  0.27775726754E+03  0.12509000000E+03 0.  0.
         25    1    4    4    0    0 -0.22510591447E+02  0.31967602709E+02  0.27196613060E+03  0.30189690069E+03  0.12509000000E+03 0.  0.
<mgrwt>
<rscale>  2 0.46516696E+03</rscale>
<asrwt>0</asrwt>
<pdfrwt beam="1">  1       21 0.15217750E+00 0.46516696E+03</pdfrwt>
<pdfrwt beam="2">  1       21 0.76875768E-02 0.46516696E+03</pdfrwt>
<totfact> 0.33230098E+04</totfact>
</mgrwt>
</event>
<event>
 7    0  0.4705418E-002  0.4561106E+03  0.7546771E-02  0.1025915E+00
         21   -1    0    0  502  501  0.00000000000E+00  0.00000000000E+00  0.25070372063E+03  0.25070372063E+03  0.00000000000E+00 0.  1.
         21   -1    0    0  501  502 -0.00000000000E+00 -0.00000000000E+00 -0.20745293216E+03  0.20745293216E+03  0.00000000000E+00 0.  1.
      99926    2    1    2    0    0  0.00000000000E+00  0.35527136788E-14  0.43250788462E+02  0.45815665279E+03  0.45611060916E+03 0.  0.
      99925    2    3    3    0    0  0.10593698672E+03 -0.27301447850E+02 -0.59775628243E+01  0.28483916123E+03  0.26292508877E+03 0.  0.
         25    1    4    4    0    0  0.79445027034E+02  0.10676483172E+02 -0.23115396563E+02  0.15035733860E+03  0.12509000000E+03 0.  0.
         25    1    4    4    0    0  0.26491959681E+02 -0.37977931022E+02  0.17137833739E+02  0.13448182263E+03  0.12509000000E+03 0.  0.
         25    1    3    3    0    0 -0.10593698672E+03  0.27301447850E+02  0.49228351286E+02  0.17331749156E+03  0.12509000000E+03 0.  0.
<mgrwt>
<rscale>  2 0.45611061E+03</rscale>
<asrwt>0</asrwt>
<pdfrwt beam="1">  1       21 0.36868194E-01 0.45611061E+03</pdfrwt>
<pdfrwt beam="2">  1       21 0.30507784E-01 0.45611061E+03</pdfrwt>
<totfact> 0.67713156E+04</totfact>
</mgrwt>
</event>
<event>
 7    0  0.4705418E-002  0.4718090E+03  0.7546771E-02  0.1021411E+00
         21   -1    0    0  502  501  0.00000000000E+00  0.00000000000E+00  0.22817186963E+03  0.22817186963E+03  0.00000000000E+00 0.  1.
         21   -1    0    0  501  502 -0.00000000000E+00 -0.00000000000E+00 -0.24389920266E+03  0.24389920266E+03  0.00000000000E+00 0.  1.
      99926    2    1    2    0    0 -0.14210854715E-13 -0.14210854715E-13 -0.15727333031E+02  0.47207107230E+03  0.47180901676E+03 0.  0.
      99925    2    3    3    0    0  0.78571915705E+02 -0.10084889668E+03  0.23278657928E+01  0.29230026209E+03  0.26284972581E+03 0.  0.
         25    1    4    4    0    0  0.80037043814E+02 -0.64394509008E+02  0.55334022264E+01  0.16195896954E+03  0.12509000000E+03 0.  0.
         25    1    3    3    0    0 -0.78571915705E+02  0.10084889668E+03 -0.18055198824E+02  0.17977081021E+03  0.12509000000E+03 0.  0.
         25    1    4    4    0    0 -0.14651281093E+01 -0.36454387670E+02 -0.32055364335E+01  0.13034129255E+03  0.12509000000E+03 0.  0.
<mgrwt>
<rscale>  2 0.47180902E+03</rscale>
<asrwt>0</asrwt>
<pdfrwt beam="1">  1       21 0.33554687E-01 0.47180902E+03</pdfrwt>
<pdfrwt beam="2">  1       21 0.35867529E-01 0.47180902E+03</pdfrwt>
<totfact> 0.58994658E+04</totfact>
</mgrwt>
</event>
<event>
 7    0  0.4705418E-002  0.4520456E+03  0.7546771E-02  0.1027114E+00
         21   -1    0    0  502  501  0.00000000000E+00  0.00000000000E+00  0.34923197337E+03  0.34923197337E+03  0.00000000000E+00 0. -1.
         21   -1    0    0  501  502 -0.00000000000E+00 -0.00000000000E+00 -0.14628190128E+03  0.14628190128E+03  0.00000000000E+00 0. -1.
      99926    2    1    2    0    0  0.00000000000E+00 -0.35527136788E-14  0.20295007210E+03  0.49551387465E+03  0.45204564836E+03 0.  0.
      99925    2    3    3    0    0  0.40911856028E+02 -0.29923785644E+02  0.20645728496E+02  0.26868443497E+03  0.26305107218E+03 0.  0.
         25    1    4    4    0    0  0.37843410766E+02 -0.49253532299E+02 -0.38933364189E+01  0.13971649992E+03  0.12509000000E+03 0.  0.
         25    1    3    3    0    0 -0.40911856028E+02  0.29923785644E+02  0.18230434360E+03  0.22682943968E+03  0.12509000000E+03 0.  0.
         25    1    4    4    0    0  0.30684452619E+01  0.19329746655E+02  0.24539064915E+02  0.12896793504E+03  0.12509000000E+03 0.  0.
<mgrwt>
<rscale>  2 0.45204565E+03</rscale>
<asrwt>0</asrwt>
<pdfrwt beam="1">  1       21 0.51357643E-01 0.45204565E+03</pdfrwt>
<pdfrwt beam="2">  1       21 0.21512044E-01 0.45204565E+03</pdfrwt>
<totfact> 0.67148023E+04</totfact>
</mgrwt>
</event>
<event>
 7    0  0.4705418E-002  0.4556532E+03  0.7546771E-02  0.1026049E+00
         21   -1    0    0  502  501  0.00000000000E+00  0.00000000000E+00  0.32395270539E+03  0.32395270539E+03  0.00000000000E+00 0. -1.
         21   -1    0    0  501  502 -0.00000000000E+00 -0.00000000000E+00 -0.16022391393E+03  0.16022391393E+03  0.00000000000E+00 0. -1.
      99926    2    1    2    0    0  0.00000000000E+00 -0.14210854715E-13  0.16372879146E+03  0.48417661932E+03  0.45565324705E+03 0.  0.
      99925    2    3    3    0    0 -0.48863348649E+02  0.82419791918E+02  0.16807612148E+03  0.32654712868E+03  0.26306424253E+03 0.  0.
         25    1    4    4    0    0 -0.20300226276E+02  0.80080882663E+02  0.72400745312E+02  0.16647649377E+03  0.12509000000E+03 0.  0.
         25    1    3    3    0    0  0.48863348649E+02 -0.82419791918E+02 -0.43473300295E+01  0.15762949064E+03  0.12509000000E+03 0.  0.
         25    1    4    4    0    0 -0.28563122372E+02  0.23389092542E+01  0.95675376172E+02  0.16007063491E+03  0.12509000000E+03 0.  0.
<mgrwt>
<rscale>  2 0.45565325E+03</rscale>
<asrwt>0</asrwt>
<pdfrwt beam="1">  1       21 0.47640104E-01 0.45565325E+03</pdfrwt>
<pdfrwt beam="2">  1       21 0.23562340E-01 0.45565325E+03</pdfrwt>
<totfact> 0.66054115E+04</totfact>
</mgrwt>
</event>
<event>
 7    0  0.4705418E-002  0.4553546E+03  0.7546771E-02  0.1026137E+00
         21   -1    0    0  502  501  0.00000000000E+00  0.00000000000E+00  0.68638097610E+03  0.68638097610E+03  0.00000000000E+00 0. -1.
         21   -1    0    0  501  502 -0.00000000000E+00 -0.00000000000E+00 -0.75522145639E+02  0.75522145639E+02  0.00000000000E+00 0. -1.
      99926    2    1    2    0    0  0.00000000000E+00  0.00000000000E+00  0.61085883046E+03  0.76190312174E+03  0.45535464878E+03 0.  0.
      99925    2    3    3    0    0  0.75868111530E+02 -0.69099043944E+02  0.46572535462E+03  0.54455114422E+03  0.26287866881E+03 0.  0.
         25    1    3    3    0    0 -0.75868111530E+02  0.69099043944E+02  0.14513347584E+03  0.21735197752E+03  0.12509000000E+03 0.  0.
         25    1    4    4    0    0  0.81311997686E+01 -0.45802319959E+02  0.27306474624E+03  0.30393392812E+03  0.12509000000E+03 0.  0.
         25    1    4    4    0    0  0.67736911761E+02 -0.23296723985E+02  0.19266060837E+03  0.24061721610E+03  0.12509000000E+03 0.  0.
<mgrwt>
<rscale>  2 0.45535465E+03</rscale>
<asrwt>0</asrwt>
<pdfrwt beam="1">  1       21 0.10093838E+00 0.45535465E+03</pdfrwt>
<pdfrwt beam="2">  1       21 0.11106198E-01 0.45535465E+03</pdfrwt>
<totfact> 0.49524330E+04</totfact>
</mgrwt>
</event>
<event>
 7    0  0.4705418E-002  0.4485356E+03  0.7546771E-02  0.1028160E+00
         21   -1    0    0  502  501  0.00000000000E+00  0.00000000000E+00  0.14675319619E+03  0.14675319619E+03  0.00000000000E+00 0.  1.
         21   -1    0    0  501  502 -0.00000000000E+00 -0.00000000000E+00 -0.34272536718E+03  0.34272536718E+03  0.00000000000E+00 0.  1.
      99926    2    1    2    0    0  0.35527136788E-14  0.00000000000E+00 -0.19597217100E+03  0.48947856337E+03  0.44853558632E+03 0.  0.
      99925    2    3    3    0    0  0.24310573935E+02 -0.10065711252E+03 -0.15407387132E+03  0.32177097880E+03  0.26282113056E+03 0.  0.
         25    1    4    4    0    0 -0.50361429195E+01 -0.85444992867E+02 -0.66381666020E+02  0.16546976529E+03  0.12509000000E+03 0.  0.
         25    1    4    4    0    0  0.29346716855E+02 -0.15212119651E+02 -0.87692205302E+02  0.15630121351E+03  0.12509000000E+03 0.  0.
         25    1    3    3    0    0 -0.24310573935E+02  0.10065711252E+03 -0.41898299674E+02  0.16770758457E+03  0.12509000000E+03 0.  0.
<mgrwt>
<rscale>  2 0.44853559E+03</rscale>
<asrwt>0</asrwt>
<pdfrwt beam="1">  1       21 0.21581353E-01 0.44853559E+03</pdfrwt>
<pdfrwt beam="2">  1       21 0.50400788E-01 0.44853559E+03</pdfrwt>
<totfact> 0.69515876E+04</totfact>
</mgrwt>
</event>
<event>
 7    0  0.4705418E-002  0.4572274E+03  0.7546771E-02  0.1025588E+00
         21   -1    0    0  502  501  0.00000000000E+00  0.00000000000E+00  0.46078756248E+03  0.46078756248E+03  0.00000000000E+00 0.  1.
         21   -1    0    0  501  502 -0.00000000000E+00 -0.00000000000E+00 -0.11342367152E+03  0.11342367152E+03  0.00000000000E+00 0.  1.
      99926    2    1    2    0    0  0.00000000000E+00  0.00000000000E+00  0.34736389096E+03  0.57421123400E+03  0.45722737069E+03 0.  0.
      99925    2    3    3    0    0  0.11446794924E+02  0.10593470887E+03  0.27331084719E+03  0.39397651745E+03  0.26299331826E+03 0.  0.
         25    1    3    3    0    0 -0.11446794924E+02 -0.10593470887E+03  0.74053043772E+02  0.18023471655E+03  0.12509000000E+03 0.  0.
         25    1    4    4    0    0  0.36709755688E+02  0.58624086139E+02  0.17564400059E+03  0.22645686716E+03  0.12509000000E+03 0.  0.
         25    1    4    4    0    0 -0.25262960764E+02  0.47310622732E+02  0.97666846599E+02  0.16751965029E+03  0.12509000000E+03 0.  0.
<mgrwt>
<rscale>  2 0.45722737E+03</rscale>
<asrwt>0</asrwt>
<pdfrwt beam="1">  1       21 0.67762876E-01 0.45722737E+03</pdfrwt>
<pdfrwt beam="2">  1       21 0.16679952E-01 0.45722737E+03</pdfrwt>
<totfact> 0.59244083E+04</totfact>
</mgrwt>
</event>
<event>
 7    0  0.4705418E-002  0.4531186E+03  0.7546771E-02  0.1026796E+00
         21   -1    0    0  502  501  0.00000000000E+00  0.00000000000E+00  0.14525182046E+04  0.14525182046E+04  0.00000000000E+00 0. -1.
         21   -1    0    0  501  502 -0.00000000000E+00 -0.00000000000E+00 -0.35338025233E+02  0.35338025233E+02  0.00000000000E+00 0. -1.
      99926    2    1    2    0    0  0.00000000000E+00  0.00000000000E+00  0.14171801793E+04  0.14878562298E+04  0.45311863773E+03 0.  0.
      99925    2    3    3    0    0 -0.27574628391E+02  0.65484790532E+02  0.11746984439E+04  0.12059102810E+04  0.26316259955E+03 0.  0.
         25    1    3    3    0    0  0.27574628391E+02 -0.65484790532E+02  0.24248173540E+03  0.28194594876E+03  0.12509000000E+03 0.  0.
         25    1    4    4    0    0  0.36686016227E+01  0.20204924152E+02  0.41179081268E+03  0.43086062608E+03  0.12509000000E+03 0.  0.
         25    1    4    4    0    0 -0.31243230014E+02  0.45279866380E+02  0.76290763125E+03  0.77504965495E+03  0.12509000000E+03 0.  0.
<mgrwt>
<rscale>  2 0.45311864E+03</rscale>
<asrwt>0</asrwt>
<pdfrwt beam="1">  1       21 0.21360558E+00 0.45311864E+03</pdfrwt>
<pdfrwt beam="2">  1       21 0.51967694E-02 0.45311864E+03</pdfrwt>
<totfact> 0.24433449E+04</totfact>
</mgrwt>
</event>
<event>
 7    0  0.4705418E-002  0.4465398E+03  0.7546771E-02  0.1028759E+00
         21   -1    0    0  502  501  0.00000000000E+00  0.00000000000E+00  0.94069242181E+02  0.94069242181E+02  0.00000000000E+00 0. -1.
         21   -1    0    0  501  502 -0.00000000000E+00 -0.00000000000E+00 -0.52992284177E+03  0.52992284177E+03  0.00000000000E+00 0. -1.
      99926    2    1    2    0    0  0.00000000000E+00  0.17763568394E-14 -0.43585359958E+03  0.62399208395E+03  0.44653976369E+03 0.  0.
      99925    2    3    3    0    0  0.66334095542E+02  0.92885431627E+01 -0.16326588829E+03  0.31668432662E+03  0.26295764522E+03 0.  0.
         25    1    4    4    0    0  0.54188709929E+02  0.17228831318E+02 -0.12315768391E+03  0.18452255179E+03  0.12509000000E+03 0.  0.
         25    1    4    4    0    0  0.12145385614E+02 -0.79402881548E+01 -0.40108204378E+02  0.13216177483E+03  0.12509000000E+03 0.  0.
         25    1    3    3    0    0 -0.66334095542E+02 -0.92885431627E+01 -0.27258771129E+03  0.30730775733E+03  0.12509000000E+03 0.  0.
<mgrwt>
<rscale>  2 0.44653976E+03</rscale>
<asrwt>0</asrwt>
<pdfrwt beam="1">  1       21 0.13833712E-01 0.44653976E+03</pdfrwt>
<pdfrwt beam="2">  1       21 0.77929828E-01 0.44653976E+03</pdfrwt>
<totfact> 0.61212609E+04</totfact>
</mgrwt>
</event>
<event>
 7    0  0.4705418E-002  0.4406282E+03  0.7546771E-02  0.1030554E+00
         21   -1    0    0  502  501  0.00000000000E+00  0.00000000000E+00  0.98122800364E+02  0.98122800364E+02  0.00000000000E+00 0.  1.
         21   -1    0    0  501  502 -0.00000000000E+00 -0.00000000000E+00 -0.49466887009E+03  0.49466887009E+03  0.00000000000E+00 0.  1.
      99926    2    1    2    0    0  0.14210854715E-13 -0.71054273576E-14 -0.39654606973E+03  0.59279167046E+03  0.44062816427E+03 0.  0.
      99925    2    3    3    0    0 -0.90808219817E+02  0.36624419492E+02 -0.27328605483E+03  0.39172446711E+03  0.26301199493E+03 0.  0.
         25    1    3    3    0    0  0.90808219817E+02 -0.36624419492E+02 -0.12326001489E+03  0.20106720335E+03  0.12509000000E+03 0.  0.
         25    1    4    4    0    0 -0.70193093051E+02  0.11155558105E+02 -0.98730046055E+02  0.17448967558E+03  0.12509000000E+03 0.  0.
         25    1    4    4    0    0 -0.20615126767E+02  0.25468861388E+02 -0.17455600878E+03  0.21723479153E+03  0.12509000000E+03 0.  0.
<mgrwt>
<rscale>  2 0.44062816E+03</rscale>
<asrwt>0</asrwt>
<pdfrwt beam="1">  1       21 0.14429824E-01 0.44062816E+03</pdfrwt>
<pdfrwt beam="2">  1       21 0.72745422E-01 0.44062816E+03</pdfrwt>
<totfact> 0.66344011E+04</totfact>
</mgrwt>
</event>
<event>
 7    0  0.4705418E-002  0.4460326E+03  0.7546771E-02  0.1028912E+00
         21   -1    0    0  502  501  0.00000000000E+00  0.00000000000E+00  0.44688241759E+02  0.44688241759E+02  0.00000000000E+00 0. -1.
         21   -1    0    0  501  502 -0.00000000000E+00 -0.00000000000E+00 -0.11129608837E+04  0.11129608837E+04  0.00000000000E+00 0. -1.
      99926    2    1    2    0    0  0.71054273576E-14  0.00000000000E+00 -0.10682726419E+04  0.11576491255E+04  0.44603257746E+03 0.  0.
      99925    2    3    3    0    0 -0.32042905068E+02 -0.99173146692E+02 -0.64980233829E+03  0.70862021333E+03  0.26274981846E+03 0.  0.
         25    1    3    3    0    0  0.32042905068E+02  0.99173146692E+02 -0.41847030365E+03  0.44902891213E+03  0.12509000000E+03 0.  0.
         25    1    4    4    0    0 -0.11652091599E+02 -0.88878616652E+02 -0.39310210013E+03  0.42215157108E+03  0.12509000000E+03 0.  0.
         25    1    4    4    0    0 -0.20390813469E+02 -0.10294530040E+02 -0.25670023816E+03  0.28646864225E+03  0.12509000000E+03 0.  0.
<mgrwt>
<rscale>  2 0.44603258E+03</rscale>
<asrwt>0</asrwt>
<pdfrwt beam="1">  1       21 0.65717995E-02 0.44603258E+03</pdfrwt>
<pdfrwt beam="2">  1       21 0.16367074E+00 0.44603258E+03</pdfrwt>
<totfact> 0.35977225E+04</totfact>
</mgrwt>
</event>
<event>
 7    0  0.4705418E-002  0.4555374E+03  0.7546771E-02  0.1026083E+00
         21   -1    0    0  502  501  0.00000000000E+00  0.00000000000E+00  0.38527600415E+04  0.38527600415E+04  0.00000000000E+00 0.  1.
         21   -1    0    0  501  502 -0.00000000000E+00 -0.00000000000E+00 -0.13465302185E+02  0.13465302185E+02  0.00000000000E+00 0.  1.
      99926    2    1    2    0    0  0.14210854715E-13  0.00000000000E+00  0.38392947393E+04  0.38662253437E+04  0.45553738905E+03 0.  0.
      99925    2    3    3    0    0  0.64769480259E+02  0.44792034839E+02  0.17202430736E+04  0.17420245806E+04  0.26308172699E+03 0.  0.
         25    1    4    4    0    0  0.33820705765E+02 -0.14961094852E+02  0.71586328398E+03  0.72765061942E+03  0.12509000000E+03 0.  0.
         25    1    4    4    0    0  0.30948774494E+02  0.59753129691E+02  0.10043797897E+04  0.10143739612E+04  0.12509000000E+03 0.  0.
         25    1    3    3    0    0 -0.64769480259E+02 -0.44792034839E+02  0.21190516656E+04  0.21242007630E+04  0.12509000000E+03 0.  0.
<mgrwt>
<rscale>  2 0.45553739E+03</rscale>
<asrwt>0</asrwt>
<pdfrwt beam="1">  1       21 0.56658159E+00 0.45553739E+03</pdfrwt>
<pdfrwt beam="2">  1       21 0.19801942E-02 0.45553739E+03</pdfrwt>
<totfact> 0.60156936E+02</totfact>
</mgrwt>
</event>
<event>
 7    0  0.4705418E-002  0.4690667E+03  0.7546771E-02  0.1022184E+00
         21   -1    0    0  502  501  0.00000000000E+00  0.00000000000E+00  0.18555223280E+04  0.18555223280E+04  0.00000000000E+00 0. -1.
         21   -1    0    0  501  502 -0.00000000000E+00 -0.00000000000E+00 -0.29644420509E+02  0.29644420509E+02  0.00000000000E+00 0. -1.
      99926    2    1    2    0    0 -0.13877787808E-16  0.00000000000E+00  0.18258779075E+04  0.18851667486E+04  0.46906666544E+03 0.  0.
      99925    2    3    3    0    0  0.21996469836E-01  0.48495092752E+02  0.66784232826E+03  0.71938560037E+03  0.26296481151E+03 0.  0.
         25    1    4    4    0    0  0.15586345401E+00  0.39153747904E+02  0.23910873460E+03  0.27267844677E+03  0.12509000000E+03 0.  0.
         25    1    3    3    0    0 -0.21996469836E-01 -0.48495092752E+02  0.11580355793E+04  0.11657811482E+04  0.12509000000E+03 0.  0.
         25    1    4    4    0    0 -0.13386698418E+00  0.93413448482E+01  0.42873359366E+03  0.44670715360E+03  0.12509000000E+03 0.  0.
<mgrwt>
<rscale>  2 0.46906667E+03</rscale>
<asrwt>0</asrwt>
<pdfrwt beam="1">  1       21 0.27287085E+00 0.46906667E+03</pdfrwt>
<pdfrwt beam="2">  1       21 0.43594749E-02 0.46906667E+03</pdfrwt>
<totfact> 0.14075876E+04</totfact>
</mgrwt>
</event>
<event>
 7    0  0.4705418E-002  0.4536217E+03  0.7546771E-02  0.1026647E+00
         21   -1    0    0  502  501  0.00000000000E+00  0.00000000000E+00  0.16052620002E+02  0.16052620002E+02  0.00000000000E+00 0.  1.
         21   -1    0    0  501  502 -0.00000000000E+00 -0.00000000000E+00 -0.32046582081E+04  0.32046582081E+04  0.00000000000E+00 0.  1.
      99926    2    1    2    0    0  0.00000000000E+00  0.28421709430E-13 -0.31886055881E+04  0.32207108281E+04  0.45362169459E+03 0.  0.
      99925    2    3    3    0    0  0.58724570852E+02 -0.94852260877E+02 -0.20630852548E+04  0.20827789077E+04  0.26306212827E+03 0.  0.
         25    1    3    3    0    0 -0.58724570852E+02  0.94852260877E+02 -0.11255203333E+04  0.11379319204E+04  0.12509000000E+03 0.  0.
         25    1    4    4    0    0  0.32000047288E+02 -0.63600661468E+01 -0.85364268932E+03  0.86337581770E+03  0.12509000000E+03 0.  0.
         25    1    4    4    0    0  0.26724523564E+02 -0.88492194730E+02 -0.12094425654E+04  0.12194030900E+04  0.12509000000E+03 0.  0.
<mgrwt>
<rscale>  2 0.45362169E+03</rscale>
<asrwt>0</asrwt>
<pdfrwt beam="1">  1       21 0.23606810E-02 0.45362169E+03</pdfrwt>
<pdfrwt beam="2">  1       21 0.47127295E+00 0.45362169E+03</pdfrwt>
<totfact> 0.22185476E+03</totfact>
</mgrwt>
</event>
<event>
 7    0  0.4705418E-002  0.4636121E+03  0.7546771E-02  0.1023739E+00
         21   -1    0    0  502  501  0.00000000000E+00  0.00000000000E+00  0.89595955923E+02  0.89595955923E+02  0.00000000000E+00 0.  1.
         21   -1    0    0  501  502 -0.00000000000E+00 -0.00000000000E+00 -0.59973730277E+03  0.59973730277E+03  0.00000000000E+00 0.  1.
      99926    2    1    2    0    0 -0.35527136788E-14  0.00000000000E+00 -0.51014134685E+03  0.68933325869E+03  0.46361206604E+03 0.  0.
      99925    2    3    3    0    0 -0.31478901945E+02  0.11696527948E+03 -0.32060962775E+03  0.43195886503E+03  0.26291848508E+03 0.  0.
         25    1    3    3    0    0  0.31478901945E+02 -0.11696527948E+03 -0.18953171910E+03  0.25737439367E+03  0.12509000000E+03 0.  0.
         25    1    4    4    0    0 -0.62908285750E+01  0.48356324447E+02 -0.97454539441E+02  0.16589998190E+03  0.12509000000E+03 0.  0.
         25    1    4    4    0    0 -0.25188073370E+02  0.68608955030E+02 -0.22315508831E+03  0.26605888312E+03  0.12509000000E+03 0.  0.
<mgrwt>
<rscale>  2 0.46361207E+03</rscale>
<asrwt>0</asrwt>
<pdfrwt beam="1">  1       21 0.13175876E-01 0.46361207E+03</pdfrwt>
<pdfrwt beam="2">  1       21 0.88196663E-01 0.46361207E+03</pdfrwt>
<totfact> 0.50007107E+04</totfact>
</mgrwt>
</event>
<event>
 7    0  0.4705418E-002  0.4373009E+03  0.7546771E-02  0.1031578E+00
         21   -1    0    0  502  501  0.00000000000E+00  0.00000000000E+00  0.41794830315E+03  0.41794830315E+03  0.00000000000E+00 0. -1.
         21   -1    0    0  501  502 -0.00000000000E+00 -0.00000000000E+00 -0.11438739542E+03  0.11438739542E+03  0.00000000000E+00 0. -1.
      99926    2    1    2    0    0  0.00000000000E+00  0.00000000000E+00  0.30356090773E+03  0.53233569858E+03  0.43730089330E+03 0.  0.
      99925    2    3    3    0    0  0.49021850221E+02  0.42253820506E+02  0.28005865921E+03  0.38954777566E+03  0.26291840896E+03 0.  0.
         25    1    3    3    0    0 -0.49021850221E+02 -0.42253820506E+02  0.23502248514E+02  0.14278792292E+03  0.12509000000E+03 0.  0.
         25    1    4    4    0    0  0.18381938907E+02  0.61085962656E+02  0.13799535050E+03  0.19687461840E+03  0.12509000000E+03 0.  0.
         25    1    4    4    0    0  0.30639911315E+02 -0.18832142149E+02  0.14206330872E+03  0.19267315726E+03  0.12509000000E+03 0.  0.
<mgrwt>
<rscale>  2 0.43730089E+03</rscale>
<asrwt>0</asrwt>
<pdfrwt beam="1">  1       21 0.61462985E-01 0.43730089E+03</pdfrwt>
<pdfrwt beam="2">  1       21 0.16821676E-01 0.43730089E+03</pdfrwt>
<totfact> 0.72712793E+04</totfact>
</mgrwt>
</event>
<event>
 7    0  0.4705418E-002  0.4497153E+03  0.7546771E-02  0.1027807E+00
         21   -1    0    0  502  501  0.00000000000E+00  0.00000000000E+00  0.40323768948E+03  0.40323768948E+03  0.00000000000E+00 0.  1.
         21   -1    0    0  501  502 -0.00000000000E+00 -0.00000000000E+00 -0.12538748548E+03  0.12538748548E+03  0.00000000000E+00 0.  1.
      99926    2    1    2    0    0  0.71054273576E-14  0.00000000000E+00  0.27785020400E+03  0.52862517496E+03  0.44971528743E+03 0.  0.
      99925    2    3    3    0    0 -0.32710560135E+02 -0.10228516392E+03  0.16132006528E+03  0.32673655014E+03  0.26305964007E+03 0.  0.
         25    1    3    3    0    0  0.32710560135E+02  0.10228516392E+03  0.11653013872E+03  0.20188862482E+03  0.12509000000E+03 0.  0.
         25    1    4    4    0    0  0.23623716160E+02 -0.58373987057E+02  0.82334449397E+02  0.16245636949E+03  0.12509000000E+03 0.  0.
         25    1    4    4    0    0 -0.56334276295E+02 -0.43911176866E+02  0.78985615879E+02  0.16428018065E+03  0.12509000000E+03 0.  0.
<mgrwt>
<rscale>  2 0.44971529E+03</rscale>
<asrwt>0</asrwt>
<pdfrwt beam="1">  1       21 0.59299660E-01 0.44971529E+03</pdfrwt>
<pdfrwt beam="2">  1       21 0.18439336E-01 0.44971529E+03</pdfrwt>
<totfact> 0.66020342E+04</totfact>
</mgrwt>
</event>
<event>
 7    0  0.4705418E-002  0.4561536E+03  0.7546771E-02  0.1025903E+00
         21   -1    0    0  502  501  0.00000000000E+00  0.00000000000E+00  0.84729755083E+02  0.84729755083E+02  0.00000000000E+00 0.  1.
         21   -1    0    0  501  502 -0.00000000000E+00 -0.00000000000E+00 -0.61394048581E+03  0.61394048581E+03  0.00000000000E+00 0.  1.
      99926    2    1    2    0    0  0.00000000000E+00  0.00000000000E+00 -0.52921073072E+03  0.69867024089E+03  0.45615360131E+03 0.  0.
      99925    2    3    3    0    0  0.54215976889E+02 -0.86990562996E+02 -0.40997899385E+03  0.49774626179E+03  0.26298637897E+03 0.  0.
         25    1    3    3    0    0 -0.54215976889E+02  0.86990562996E+02 -0.11923173687E+03  0.20092397910E+03  0.12509000000E+03 0.  0.
         25    1    4    4    0    0  0.50089294208E+02 -0.64961985108E+02 -0.27012433423E+03  0.30877768855E+03  0.12509000000E+03 0.  0.
         25    1    4    4    0    0  0.41266826817E+01 -0.22028577888E+02 -0.13985465962E+03  0.18896857323E+03  0.12509000000E+03 0.  0.
<mgrwt>
<rscale>  2 0.45615360E+03</rscale>
<asrwt>0</asrwt>
<pdfrwt beam="1">  1       21 0.12460258E-01 0.45615360E+03</pdfrwt>
<pdfrwt beam="2">  1       21 0.90285366E-01 0.45615360E+03</pdfrwt>
<totfact> 0.52496974E+04</totfact>
</mgrwt>
</event>
<event>
 7    0  0.4705418E-002  0.4549026E+03  0.7546771E-02  0.1026270E+00
         21   -1    0    0  502  501  0.00000000000E+00  0.00000000000E+00  0.36968796143E+02  0.36968796143E+02  0.00000000000E+00 0. -1.
         21   -1    0    0  501  502 -0.00000000000E+00 -0.00000000000E+00 -0.13993991050E+04  0.13993991050E+04  0.00000000000E+00 0. -1.
      99926    2    1    2    0    0  0.14210854715E-13 -0.71054273576E-14 -0.13624303089E+04  0.14363679011E+04  0.45490262798E+03 0.  0.
      99925    2    3    3    0    0 -0.96448217884E+02  0.58763480988E+02 -0.88209977317E+03  0.92732926111E+03  0.26283862589E+03 0.  0.
         25    1    4    4    0    0 -0.31821784445E+02  0.42263164835E+01 -0.50179786980E+03  0.51814968682E+03  0.12509000000E+03 0.  0.
         25    1    4    4    0    0 -0.64626433440E+02  0.54537164505E+02 -0.38030190337E+03  0.40917957430E+03  0.12509000000E+03 0.  0.
         25    1    3    3    0    0  0.96448217884E+02 -0.58763480988E+02 -0.48033053569E+03  0.50903864004E+03  0.12509000000E+03 0.  0.
<mgrwt>
<rscale>  2 0.45490263E+03</rscale>
<asrwt>0</asrwt>
<pdfrwt beam="1">  1       21 0.54365878E-02 0.45490263E+03</pdfrwt>
<pdfrwt beam="2">  1       21 0.20579398E+00 0.45490263E+03</pdfrwt>
<totfact> 0.25398004E+04</totfact>
</mgrwt>
</event>
<event>
 7    0  0.4705418E-002  0.4565379E+03  0.7546771E-02  0.1025790E+00
         21   -1    0    0  502  501  0.00000000000E+00  0.00000000000E+00  0.50781680762E+03  0.50781680762E+03  0.00000000000E+00 0.  1.
         21   -1    0    0  501  502 -0.00000000000E+00 -0.00000000000E+00 -0.10260928135E+03  0.10260928135E+03  0.00000000000E+00 0.  1.
      99926    2    1    2    0    0  0.00000000000E+00  0.00000000000E+00  0.40520752627E+03  0.61042608898E+03  0.45653791821E+03 0.  0.
      99925    2    3    3    0    0 -0.88613409725E+02  0.59950983659E+02  0.30964674050E+03  0.42009524886E+03  0.26296854828E+03 0.  0.
         25    1    3    3    0    0  0.88613409725E+02 -0.59950983659E+02  0.95560785766E+02  0.19033084012E+03  0.12509000000E+03 0.  0.
         25    1    4    4    0    0 -0.28358632289E+02  0.37740441504E+02  0.97073751549E+02  0.16522522292E+03  0.12509000000E+03 0.  0.
         25    1    4    4    0    0 -0.60254777436E+02  0.22210542155E+02  0.21257298895E+03  0.25487002593E+03  0.12509000000E+03 0.  0.
<mgrwt>
<rscale>  2 0.45653792E+03</rscale>
<asrwt>0</asrwt>
<pdfrwt beam="1">  1       21 0.74678941E-01 0.45653792E+03</pdfrwt>
<pdfrwt beam="2">  1       21 0.15089600E-01 0.45653792E+03</pdfrwt>
<totfact> 0.57341308E+04</totfact>
</mgrwt>
</event>
<event>
 7    0  0.4705418E-002  0.4491640E+03  0.7546771E-02  0.1027972E+00
         21   -1    0    0  502  501  0.00000000000E+00  0.00000000000E+00  0.10273184500E+04  0.10273184500E+04  0.00000000000E+00 0.  1.
         21   -1    0    0  501  502 -0.00000000000E+00 -0.00000000000E+00 -0.49095855566E+02  0.49095855566E+02  0.00000000000E+00 0.  1.
      99926    2    1    2    0    0  0.00000000000E+00  0.00000000000E+00  0.97822259447E+03  0.10764143056E+04  0.44916401567E+03 0.  0.
      99925    2    3    3    0    0 -0.28475454775E+02  0.58669993872E+02  0.41299489071E+03  0.49384852828E+03  0.26280899800E+03 0.  0.
         25    1    4    4    0    0 -0.38350904804E+02  0.10953646333E+02  0.15595435006E+03  0.20386280110E+03  0.12509000000E+03 0.  0.
         25    1    3    3    0    0  0.28475454775E+02 -0.58669993872E+02  0.56522770376E+03  0.58256577732E+03  0.12509000000E+03 0.  0.
         25    1    4    4    0    0  0.98754500288E+01  0.47716347539E+02  0.25704054065E+03  0.28998572719E+03  0.12509000000E+03 0.  0.
<mgrwt>
<rscale>  2 0.44916402E+03</rscale>
<asrwt>0</asrwt>
<pdfrwt beam="1">  1       21 0.15107623E+00 0.44916402E+03</pdfrwt>
<pdfrwt beam="2">  1       21 0.72199794E-02 0.44916402E+03</pdfrwt>
<totfact> 0.38025164E+04</totfact>
</mgrwt>
</event>
<event>
 7    0  0.4705418E-002  0.4507495E+03  0.7546771E-02  0.1027499E+00
         21   -1    0    0  502  501  0.00000000000E+00  0.00000000000E+00  0.27623108025E+03  0.27623108025E+03  0.00000000000E+00 0. -1.
         21   -1    0    0  501  502 -0.00000000000E+00 -0.00000000000E+00 -0.18388149134E+03  0.18388149134E+03  0.00000000000E+00 0. -1.
      99926    2    1    2    0    0  0.00000000000E+00  0.00000000000E+00  0.92349588917E+02  0.46011257159E+03  0.45074952242E+03 0.  0.
      99925    2    3    3    0    0 -0.75882818683E+02  0.18691642678E+02  0.13597610964E+03  0.30629982476E+03  0.26310169246E+03 0.  0.
         25    1    3    3    0    0  0.75882818683E+02 -0.18691642678E+02 -0.43626520725E+02  0.15381274683E+03  0.12509000000E+03 0.  0.
         25    1    4    4    0    0 -0.42552914378E+02  0.36665052501E+02  0.36055222624E+02  0.14178351024E+03  0.12509000000E+03 0.  0.
         25    1    4    4    0    0 -0.33329904305E+02 -0.17973409823E+02  0.99920887019E+02  0.16451631452E+03  0.12509000000E+03 0.  0.
<mgrwt>
<rscale>  2 0.45074952E+03</rscale>
<asrwt>0</asrwt>
<pdfrwt beam="1">  1       21 0.40622218E-01 0.45074952E+03</pdfrwt>
<pdfrwt beam="2">  1       21 0.27041396E-01 0.45074952E+03</pdfrwt>
<totfact> 0.70526986E+04</totfact>
</mgrwt>
</event>
<event>
 7    0  0.4705418E-002  0.4558446E+03  0.7546771E-02  0.1025993E+00
         21   -1    0    0  502  501  0.00000000000E+00  0.00000000000E+00  0.42325755704E+03  0.42325755704E+03  0.00000000000E+00 0.  1.
         21   -1    0    0  501  502 -0.00000000000E+00 -0.00000000000E+00 -0.12273515559E+03  0.12273515559E+03  0.00000000000E+00 0.  1.
      99926    2    1    2    0    0  0.00000000000E+00  0.00000000000E+00  0.30052240145E+03  0.54599271263E+03  0.45584463194E+03 0.  0.
      99925    2    3    3    0    0  0.83022357342E+02  0.58374715681E+02  0.25111968305E+03  0.37750397136E+03  0.26295975724E+03 0.  0.
         25    1    3    3    0    0 -0.83022357342E+02 -0.58374715681E+02  0.49402718404E+02  0.16848874127E+03  0.12509000000E+03 0.  0.
         25    1    4    4    0    0  0.73012160210E+02  0.27108356167E+02  0.97477808844E+02  0.17667787023E+03  0.12509000000E+03 0.  0.
         25    1    4    4    0    0  0.10010197132E+02  0.31266359514E+02  0.15364187420E+03  0.20082610112E+03  0.12509000000E+03 0.  0.
<mgrwt>
<rscale>  2 0.45584463E+03</rscale>
<asrwt>0</asrwt>
<pdfrwt beam="1">  1       21 0.62243758E-01 0.45584463E+03</pdfrwt>
<pdfrwt beam="2">  1       21 0.18049288E-01 0.45584463E+03</pdfrwt>
<totfact> 0.61718575E+04</totfact>
</mgrwt>
</event>
<event>
 7    0  0.4705418E-002  0.4716667E+03  0.7546771E-02  0.1021451E+00
         21   -1    0    0  502  501  0.00000000000E+00  0.00000000000E+00  0.41678862009E+03  0.41678862009E+03  0.00000000000E+00 0.  1.
         21   -1    0    0  501  502 -0.00000000000E+00 -0.00000000000E+00 -0.13344262483E+03  0.13344262483E+03  0.00000000000E+00 0.  1.
      99926    2    1    2    0    0  0.00000000000E+00 -0.71054273576E-14  0.28334599526E+03  0.55023124491E+03  0.47166669360E+03 0.  0.
      99925    2    3    3    0    0 -0.76426419323E+02 -0.50940124947E+02  0.71331542594E+02  0.28748891840E+03  0.26291784903E+03 0.  0.
         25    1    4    4    0    0 -0.10133384019E+02 -0.23057548813E+02  0.25073318817E+01  0.12762496167E+03  0.12509000000E+03 0.  0.
         25    1    3    3    0    0  0.76426419323E+02  0.50940124947E+02  0.21201445266E+03  0.26274232651E+03  0.12509000000E+03 0.  0.
         25    1    4    4    0    0 -0.66293035304E+02 -0.27882576134E+02  0.68824210712E+02  0.15986395673E+03  0.12509000000E+03 0.  0.
<mgrwt>
<rscale>  2 0.47166669E+03</rscale>
<asrwt>0</asrwt>
<pdfrwt beam="1">  1       21 0.61292444E-01 0.47166669E+03</pdfrwt>
<pdfrwt beam="2">  1       21 0.19623915E-01 0.47166669E+03</pdfrwt>
<totfact> 0.54321013E+04</totfact>
</mgrwt>
</event>
<event>
 7    0  0.4705418E-002  0.4525132E+03  0.7546771E-02  0.1026975E+00
         21   -1    0    0  502  501  0.00000000000E+00  0.00000000000E+00  0.63218952005E+03  0.63218952005E+03  0.00000000000E+00 0. -1.
         21   -1    0    0  501  502 -0.00000000000E+00 -0.00000000000E+00 -0.80975793694E+02  0.80975793694E+02  0.00000000000E+00 0. -1.
      99926    2    1    2    0    0  0.00000000000E+00  0.00000000000E+00  0.55121372636E+03  0.71316531374E+03  0.45251319606E+03 0.  0.
      99925    2    3    3    0    0  0.76004698582E+02  0.43028316091E+02  0.24053657671E+03  0.36704979892E+03  0.26313411021E+03 0.  0.
         25    1    4    4    0    0  0.46036163794E+02  0.35372320273E+02  0.17401628826E+03  0.22203537127E+03  0.12509000000E+03 0.  0.
         25    1    3    3    0    0 -0.76004698582E+02 -0.43028316091E+02  0.31067714964E+03  0.34611551482E+03  0.12509000000E+03 0.  0.
         25    1    4    4    0    0  0.29968534787E+02  0.76559958184E+01  0.66520288458E+02  0.14501442765E+03  0.12509000000E+03 0.  0.
<mgrwt>
<rscale>  2 0.45251320E+03</rscale>
<asrwt>0</asrwt>
<pdfrwt beam="1">  1       21 0.92969044E-01 0.45251320E+03</pdfrwt>
<pdfrwt beam="2">  1       21 0.11908205E-01 0.45251320E+03</pdfrwt>
<totfact> 0.53227718E+04</totfact>
</mgrwt>
</event>
<event>
 7    0  0.4705418E-002  0.4354320E+03  0.7546771E-02  0.1032158E+00
         21   -1    0    0  502  501  0.00000000000E+00  0.00000000000E+00  0.12865258696E+04  0.12865258696E+04  0.00000000000E+00 0. -1.
         21   -1    0    0  501  502 -0.00000000000E+00 -0.00000000000E+00 -0.36843601901E+02  0.36843601901E+02  0.00000000000E+00 0. -1.
      99926    2    1    2    0    0  0.00000000000E+00 -0.14210854715E-13  0.12496822677E+04  0.13233694715E+04  0.43543195553E+03 0.  0.
      99925    2    3    3    0    0  0.11172415681E+02  0.88585758370E+02  0.71582753756E+03  0.76783311765E+03  0.26303302753E+03 0.  0.
         25    1    4    4    0    0  0.80440480771E+01  0.85500430800E+02  0.36171712411E+03  0.39225223563E+03  0.12509000000E+03 0.  0.
         25    1    3    3    0    0 -0.11172415681E+02 -0.88585758370E+02  0.53385473009E+03  0.55553635381E+03  0.12509000000E+03 0.  0.
         25    1    4    4    0    0  0.31283676042E+01  0.30853275703E+01  0.35411041345E+03  0.37558088203E+03  0.12509000000E+03 0.  0.
<mgrwt>
<rscale>  2 0.43543196E+03</rscale>
<asrwt>0</asrwt>
<pdfrwt beam="1">  1       21 0.18919495E+00 0.43543196E+03</pdfrwt>
<pdfrwt beam="2">  1       21 0.54181776E-02 0.43543196E+03</pdfrwt>
<totfact> 0.33217618E+04</totfact>
</mgrwt>
</event>
<event>
 7    0  0.4705418E-002  0.4528665E+03  0.7546771E-02  0.1026871E+00
         21   -1    0    0  502  501  0.00000000000E+00  0.00000000000E+00  0.32114454220E+03  0.32114454220E+03  0.00000000000E+00 0. -1.
         21   -1    0    0  501  502 -0.00000000000E+00 -0.00000000000E+00 -0.15965402795E+03  0.15965402795E+03  0.00000000000E+00 0. -1.
      99926    2    1    2    0    0 -0.71054273576E-14  0.35527136788E-14  0.16149051425E+03  0.48079857014E+03  0.45286651329E+03 0.  0.
      99925    2    3    3    0    0  0.61917297242E+02  0.28343951577E+02  0.19510845752E+03  0.33446058636E+03  0.26298182892E+03 0.  0.
         25    1    3    3    0    0 -0.61917297242E+02 -0.28343951577E+02 -0.33617943275E+02  0.14633798379E+03  0.12509000000E+03 0.  0.
         25    1    4    4    0    0  0.48794659739E+02  0.41470508452E+02  0.71695117884E+02  0.15776064122E+03  0.12509000000E+03 0.  0.
         25    1    4    4    0    0  0.13122637503E+02 -0.13126556875E+02  0.12341333964E+03  0.17669994514E+03  0.12509000000E+03 0.  0.
<mgrwt>
<rscale>  2 0.45286651E+03</rscale>
<asrwt>0</asrwt>
<pdfrwt beam="1">  1       21 0.47227139E-01 0.45286651E+03</pdfrwt>
<pdfrwt beam="2">  1       21 0.23478534E-01 0.45286651E+03</pdfrwt>
<totfact> 0.67782689E+04</totfact>
</mgrwt>
</event>
<event>
 7    0  0.4705418E-002  0.4574104E+03  0.7546771E-02  0.1025535E+00
         21   -1    0    0  502  501  0.00000000000E+00  0.00000000000E+00  0.79064405399E+03  0.79064405399E+03  0.00000000000E+00 0. -1.
         21   -1    0    0  501  502 -0.00000000000E+00 -0.00000000000E+00 -0.66156272003E+02  0.66156272003E+02  0.00000000000E+00 0. -1.
      99926    2    1    2    0    0  0.00000000000E+00  0.00000000000E+00  0.72448778199E+03  0.85680032600E+03  0.45741037633E+03 0.  0.
      99925    2    3    3    0    0 -0.85943638647E+02 -0.36069589558E+02  0.32731574857E+03  0.43009145974E+03  0.26297478997E+03 0.  0.
         25    1    4    4    0    0 -0.75973963757E+02 -0.26984845136E+02  0.13916967462E+03  0.20375458638E+03  0.12509000000E+03 0.  0.
         25    1    4    4    0    0 -0.99696748900E+01 -0.90847444222E+01  0.18814607396E+03  0.22633687336E+03  0.12509000000E+03 0.  0.
         25    1    3    3    0    0  0.85943638647E+02  0.36069589558E+02  0.39717203342E+03  0.42670886626E+03  0.12509000000E+03 0.  0.
<mgrwt>
<rscale>  2 0.45741038E+03</rscale>
<asrwt>0</asrwt>
<pdfrwt beam="1">  1       21 0.11627118E+00 0.45741038E+03</pdfrwt>
<pdfrwt beam="2">  1       21 0.97288640E-02 0.45741038E+03</pdfrwt>
<totfact> 0.44293275E+04</totfact>
</mgrwt>
</event>
<event>
 7    0  0.4705418E-002  0.4560475E+03  0.7546771E-02  0.1025934E+00
         21   -1    0    0  502  501  0.00000000000E+00  0.00000000000E+00  0.17920306435E+04  0.17920306435E+04  0.00000000000E+00 0. -1.
         21   -1    0    0  501  502 -0.00000000000E+00 -0.00000000000E+00 -0.29014474630E+02  0.29014474630E+02  0.00000000000E+00 0. -1.
      99926    2    1    2    0    0 -0.77715611724E-15  0.00000000000E+00  0.17630161689E+04  0.18210451181E+04  0.45604748718E+03 0.  0.
      99925    2    3    3    0    0 -0.80393608009E+00  0.94830558408E+02  0.85275372425E+03  0.89734673266E+03  0.26277131366E+03 0.  0.
         25    1    4    4    0    0 -0.24939337800E+02  0.63991320657E+02  0.53291903935E+03  0.55169472563E+03  0.12509000000E+03 0.  0.
         25    1    3    3    0    0  0.80393608009E+00 -0.94830558408E+02  0.91026244462E+03  0.92369838546E+03  0.12509000000E+03 0.  0.
         25    1    4    4    0    0  0.24135401720E+02  0.30839237751E+02  0.31983468490E+03  0.34565200703E+03  0.12509000000E+03 0.  0.
<mgrwt>
<rscale>  2 0.45604749E+03</rscale>
<asrwt>0</asrwt>
<pdfrwt beam="1">  1       21 0.26353384E+00 0.45604749E+03</pdfrwt>
<pdfrwt beam="2">  1       21 0.42668357E-02 0.45604749E+03</pdfrwt>
<totfact> 0.16722201E+04</totfact>
</mgrwt>
</event>
<event>
 7    0  0.4705418E-002  0.4772000E+03  0.7546771E-02  0.1019908E+00
         21   -1    0    0  502  501  0.00000000000E+00  0.00000000000E+00  0.39166989978E+03  0.39166989978E+03  0.00000000000E+00 0. -1.
         21   -1    0    0  501  502 -0.00000000000E+00 -0.00000000000E+00 -0.14535188845E+03  0.14535188845E+03  0.00000000000E+00 0. -1.
      99926    2    1    2    0    0  0.00000000000E+00  0.00000000000E+00  0.24631801134E+03  0.53702178823E+03  0.47719999825E+03 0.  0.
      99925    2    3    3    0    0 -0.11316575075E+03  0.64585911899E+02  0.12257224759E+03  0.31807350826E+03  0.26299994985E+03 0.  0.
         25    1    4    4    0    0 -0.92015357689E+02  0.10961992035E+02  0.60878612318E+02  0.16715473328E+03  0.12509000000E+03 0.  0.
         25    1    3    3    0    0  0.11316575075E+03 -0.64585911899E+02  0.12374576375E+03  0.21894827997E+03  0.12509000000E+03 0.  0.
         25    1    4    4    0    0 -0.21150393057E+02  0.53623919864E+02  0.61693635268E+02  0.15091877498E+03  0.12509000000E+03 0.  0.
<mgrwt>
<rscale>  2 0.47720000E+03</rscale>
<asrwt>0</asrwt>
<pdfrwt beam="1">  1       21 0.57598514E-01 0.47720000E+03</pdfrwt>
<pdfrwt beam="2">  1       21 0.21375278E-01 0.47720000E+03</pdfrwt>
<totfact> 0.52809632E+04</totfact>
</mgrwt>
</event>
<event>
 7    0  0.4705418E-002  0.4327680E+03  0.7546771E-02  0.1032989E+00
         21   -1    0    0  502  501  0.00000000000E+00  0.00000000000E+00  0.28451783516E+02  0.28451783516E+02  0.00000000000E+00 0.  1.
         21   -1    0    0  501  502 -0.00000000000E+00 -0.00000000000E+00 -0.16456628094E+04  0.16456628094E+04  0.00000000000E+00 0.  1.
      99926    2    1    2    0    0 -0.35527136788E-14 -0.71054273576E-14 -0.16172110259E+04  0.16741145929E+04  0.43276803021E+03 0.  0.
      99925    2    3    3    0    0 -0.23941043979E+02 -0.52789535942E+02 -0.76912411951E+03  0.81489470397E+03  0.26294782497E+03 0.  0.
         25    1    4    4    0    0  0.22338661226E+02 -0.34255855148E+02 -0.31962843369E+03  0.34566215171E+03  0.12509000000E+03 0.  0.
         25    1    3    3    0    0  0.23941043979E+02  0.52789535942E+02 -0.84808690636E+03  0.85921988893E+03  0.12509000000E+03 0.  0.
         25    1    4    4    0    0 -0.46279705206E+02 -0.18533680793E+02 -0.44949568581E+03  0.46923255226E+03  0.12509000000E+03 0.  0.
<mgrwt>
<rscale>  2 0.43276803E+03</rscale>
<asrwt>0</asrwt>
<pdfrwt beam="1">  1       21 0.41840860E-02 0.43276803E+03</pdfrwt>
<pdfrwt beam="2">  1       21 0.24200922E+00 0.43276803E+03</pdfrwt>
<totfact> 0.23628679E+04</totfact>
</mgrwt>
</event>
<event>
 7    0  0.4705418E-002  0.4575789E+03  0.7546771E-02  0.1025486E+00
         21   -1    0    0  502  501  0.00000000000E+00  0.00000000000E+00  0.61701298764E+02  0.61701298764E+02  0.00000000000E+00 0. -1.
         21   -1    0    0  501  502 -0.00000000000E+00 -0.00000000000E+00 -0.84835494686E+03  0.84835494686E+03  0.00000000000E+00 0. -1.
      99926    2    1    2    0    0  0.14210854715E-13  0.71054273576E-14 -0.78665364810E+03  0.91005624562E+03  0.45757885456E+03 0.  0.
      99925    2    3    3    0    0 -0.10311053522E+03 -0.48191318978E+02 -0.45474068121E+03  0.53754059309E+03  0.26307150429E+03 0.  0.
         25    1    4    4    0    0 -0.80990446119E+02 -0.55846446788E+02 -0.26345362503E+03  0.30778823666E+03  0.12509000000E+03 0.  0.
         25    1    3    3    0    0  0.10311053522E+03  0.48191318978E+02 -0.33191296689E+03  0.37251565254E+03  0.12509000000E+03 0.  0.
         25    1    4    4    0    0 -0.22120089103E+02  0.76551278100E+01 -0.19128705618E+03  0.22975235643E+03  0.12509000000E+03 0.  0.
<mgrwt>
<rscale>  2 0.45757885E+03</rscale>
<asrwt>0</asrwt>
<pdfrwt beam="1">  1       21 0.90737214E-02 0.45757885E+03</pdfrwt>
<pdfrwt beam="2">  1       21 0.12475807E+00 0.45757885E+03</pdfrwt>
<totfact> 0.41948498E+04</totfact>
</mgrwt>
</event>
<event>
 7    0  0.4705418E-002  0.4469571E+03  0.7546771E-02  0.1028633E+00
         21   -1    0    0  502  501  0.00000000000E+00  0.00000000000E+00  0.27405420976E+03  0.27405420976E+03  0.00000000000E+00 0. -1.
         21   -1    0    0  501  502 -0.00000000000E+00 -0.00000000000E+00 -0.18223641604E+03  0.18223641604E+03  0.00000000000E+00 0. -1.
      99926    2    1    2    0    0  0.14210854715E-13  0.00000000000E+00  0.91817793722E+02  0.45629062580E+03  0.44695707618E+03 0.  0.
      99925    2    3    3    0    0 -0.96791471289E+02 -0.35502089793E+02  0.80650692897E+02  0.29380616643E+03  0.26303714923E+03 0.  0.
         25    1    4    4    0    0 -0.68046311554E+02 -0.51610683465E+02  0.27427570354E+02  0.15392771966E+03  0.12509000000E+03 0.  0.
         25    1    3    3    0    0  0.96791471289E+02  0.35502089793E+02  0.11167100825E+02  0.16248445936E+03  0.12509000000E+03 0.  0.
         25    1    4    4    0    0 -0.28745159735E+02  0.16108593672E+02  0.53223122543E+02  0.13987844677E+03  0.12509000000E+03 0.  0.
<mgrwt>
<rscale>  2 0.44695708E+03</rscale>
<asrwt>0</asrwt>
<pdfrwt beam="1">  1       21 0.40302090E-01 0.44695708E+03</pdfrwt>
<pdfrwt beam="2">  1       21 0.26799473E-01 0.44695708E+03</pdfrwt>
<totfact> 0.73017946E+04</totfact>
</mgrwt>
</event>
<event>
 7    0  0.4705418E-002  0.4516662E+03  0.7546771E-02  0.1027226E+00
         21   -1    0    0  502  501  0.00000000000E+00  0.00000000000E+00  0.12705081302E+03  0.12705081302E+03  0.00000000000E+00 0.  1.
         21   -1    0    0  501  502 -0.00000000000E+00 -0.00000000000E+00 -0.40141883906E+03  0.40141883906E+03  0.00000000000E+00 0.  1.
      99926    2    1    2    0    0 -0.17763568394E-14  0.00000000000E+00 -0.27436802603E+03  0.52846965208E+03  0.45166620359E+03 0.  0.
      99925    2    3    3    0    0 -0.97657770887E+01  0.17752680297E+02 -0.46643505905E+02  0.26786172199E+03  0.26299003290E+03 0.  0.
         25    1    4    4    0    0  0.27504807382E+02 -0.12695698358E+02 -0.11003888382E+02  0.12917541889E+03  0.12509000000E+03 0.  0.
         25    1    3    3    0    0  0.97657770887E+01 -0.17752680297E+02 -0.22772452013E+03  0.26060793009E+03  0.12509000000E+03 0.  0.
         25    1    4    4    0    0 -0.37270584470E+02  0.30448378655E+02 -0.35639617523E+02  0.13868630310E+03  0.12509000000E+03 0.  0.
<mgrwt>
<rscale>  2 0.45166620E+03</rscale>
<asrwt>0</asrwt>
<pdfrwt beam="1">  1       21 0.18683943E-01 0.45166620E+03</pdfrwt>
<pdfrwt beam="2">  1       21 0.59032182E-01 0.45166620E+03</pdfrwt>
<totfact> 0.65010853E+04</totfact>
</mgrwt>
</event>
<event>
 7    0  0.4705418E-002  0.4533327E+03  0.7546771E-02  0.1026733E+00
         21   -1    0    0  502  501  0.00000000000E+00  0.00000000000E+00  0.27377932437E+03  0.27377932437E+03  0.00000000000E+00 0. -1.
         21   -1    0    0  501  502 -0.00000000000E+00 -0.00000000000E+00 -0.18766072479E+03  0.18766072479E+03  0.00000000000E+00 0. -1.
      99926    2    1    2    0    0  0.00000000000E+00  0.77715611724E-15  0.86118599580E+02  0.46144004916E+03  0.45333266568E+03 0.  0.
      99925    2    3    3    0    0 -0.18204848499E+01  0.44285824728E+00 -0.59421802144E+02  0.26952072516E+03  0.26288202760E+03 0.  0.
         25    1    4    4    0    0  0.54442386751E+01 -0.30558055488E+02 -0.37227280117E+01  0.12893719903E+03  0.12509000000E+03 0.  0.
         25    1    3    3    0    0  0.18204848499E+01 -0.44285824728E+00  0.14554040172E+03  0.19191932399E+03  0.12509000000E+03 0.  0.
         25    1    4    4    0    0 -0.72647235250E+01  0.31000913735E+02 -0.55699074132E+02  0.14058352613E+03  0.12509000000E+03 0.  0.
<mgrwt>
<rscale>  2 0.45333267E+03</rscale>
<asrwt>0</asrwt>
<pdfrwt beam="1">  1       21 0.40261665E-01 0.45333267E+03</pdfrwt>
<pdfrwt beam="2">  1       21 0.27597165E-01 0.45333267E+03</pdfrwt>
<totfact> 0.68985064E+04</totfact>
</mgrwt>
</event>
<event>
 7    0  0.4705418E-002  0.4489887E+03  0.7546771E-02  0.1028024E+00
         21   -1    0    0  502  501  0.00000000000E+00  0.00000000000E+00  0.53418783730E+02  0.53418783730E+02  0.00000000000E+00 0. -1.
         21   -1    0    0  501  502 -0.00000000000E+00 -0.00000000000E+00 -0.94344556542E+03  0.94344556542E+03  0.00000000000E+00 0. -1.
      99926    2    1    2    0    0  0.14210854715E-13  0.71054273576E-14 -0.89002678169E+03  0.99686434915E+03  0.44898870641E+03 0.  0.
      99925    2    3    3    0    0 -0.67950758301E+02 -0.32280056821E+02 -0.73349282850E+03  0.78283235569E+03  0.26297425736E+03 0.  0.
         25    1    4    4    0    0 -0.38824727598E+01 -0.23313487942E+02 -0.27173291092E+03  0.30007478284E+03  0.12509000000E+03 0.  0.
         25    1    4    4    0    0 -0.64068285541E+02 -0.89665688788E+01 -0.46175991758E+03  0.48275757286E+03  0.12509000000E+03 0.  0.
         25    1    3    3    0    0  0.67950758301E+02  0.32280056821E+02 -0.15653395318E+03  0.21403199345E+03  0.12509000000E+03 0.  0.
<mgrwt>
<rscale>  2 0.44898871E+03</rscale>
<asrwt>0</asrwt>
<pdfrwt beam="1">  1       21 0.78557032E-02 0.44898871E+03</pdfrwt>
<pdfrwt beam="2">  1       21 0.13874200E+00 0.44898871E+03</pdfrwt>
<totfact> 0.41189024E+04</totfact>
</mgrwt>
</event>
<event>
 7    0  0.4705418E-002  0.4520782E+03  0.7546771E-02  0.1027104E+00
         21   -1    0    0  502  501  0.00000000000E+00  0.00000000000E+00  0.60814711286E+02  0.60814711286E+02  0.00000000000E+00 0.  1.
         21   -1    0    0  501  502 -0.00000000000E+00 -0.00000000000E+00 -0.84015318204E+03  0.84015318204E+03  0.00000000000E+00 0.  1.
      99926    2    1    2    0    0  0.14210854715E-13 -0.12212453271E-14 -0.77933847075E+03  0.90096789333E+03  0.45207819325E+03 0.  0.
      99925    2    3    3    0    0  0.68877867000E+02 -0.72176996542E+00 -0.66355472398E+03  0.71712539108E+03  0.26309555927E+03 0.  0.
         25    1    4    4    0    0  0.65600981863E+02  0.26737157747E+02 -0.36039757551E+03  0.38801067634E+03  0.12509000000E+03 0.  0.
         25    1    4    4    0    0  0.32768851361E+01 -0.27458927712E+02 -0.30315714847E+03  0.32911471474E+03  0.12509000000E+03 0.  0.
         25    1    3    3    0    0 -0.68877867000E+02  0.72176996542E+00 -0.11578374677E+03  0.18384250224E+03  0.12509000000E+03 0.  0.
<mgrwt>
<rscale>  2 0.45207819E+03</rscale>
<asrwt>0</asrwt>
<pdfrwt beam="1">  1       21 0.89433406E-02 0.45207819E+03</pdfrwt>
<pdfrwt beam="2">  1       21 0.12355193E+00 0.45207819E+03</pdfrwt>
<totfact> 0.44194208E+04</totfact>
</mgrwt>
</event>
<event>
 7    0  0.4705418E-002  0.4631914E+03  0.7546771E-02  0.1023860E+00
         21   -1    0    0  502  501  0.00000000000E+00  0.00000000000E+00  0.11366406024E+04  0.11366406024E+04  0.00000000000E+00 0.  1.
         21   -1    0    0  501  502 -0.00000000000E+00 -0.00000000000E+00 -0.47188670503E+02  0.47188670503E+02  0.00000000000E+00 0.  1.
      99926    2    1    2    0    0  0.00000000000E+00  0.35527136788E-14  0.10894519319E+04  0.11838292729E+04  0.46319135945E+03 0.  0.
      99925    2    3    3    0    0  0.60653062624E+02  0.29080628961E+02  0.42502236014E+03  0.50438932640E+03  0.26313515344E+03 0.  0.
         25    1    4    4    0    0  0.15025331726E+02 -0.23768145979E+02  0.19300089145E+03  0.23170571326E+03  0.12509000000E+03 0.  0.
         25    1    4    4    0    0  0.45627730898E+02  0.52848774941E+02  0.23202146870E+03  0.27268361314E+03  0.12509000000E+03 0.  0.
         25    1    3    3    0    0 -0.60653062624E+02 -0.29080628961E+02  0.66442957178E+03  0.67943994653E+03  0.12509000000E+03 0.  0.
<mgrwt>
<rscale>  2 0.46319136E+03</rscale>
<asrwt>0</asrwt>
<pdfrwt beam="1">  1       21 0.16715301E+00 0.46319136E+03</pdfrwt>
<pdfrwt beam="2">  1       21 0.69395111E-02 0.46319136E+03</pdfrwt>
<totfact> 0.30668213E+04</totfact>
</mgrwt>
</event>
<event>
 7    0  0.4705418E-002  0.4560676E+03  0.7546771E-02  0.1025928E+00
         21   -1    0    0  502  501  0.00000000000E+00  0.00000000000E+00  0.26010060797E+03  0.26010060797E+03  0.00000000000E+00 0. -1.
         21   -1    0    0  501  502 -0.00000000000E+00 -0.00000000000E+00 -0.19992036371E+03  0.19992036371E+03  0.00000000000E+00 0. -1.
      99926    2    1    2    0    0  0.17763568394E-14 -0.14210854715E-13  0.60180244260E+02  0.46002097168E+03  0.45606757458E+03 0.  0.
      99925    2    3    3    0    0 -0.11706871608E+02 -0.10646999286E+03  0.77400953129E+02  0.29444026285E+03  0.26311832057E+03 0.  0.
         25    1    4    4    0    0 -0.33937928938E+02 -0.21876324271E+02  0.36517267193E+02  0.13642351516E+03  0.12509000000E+03 0.  0.
         25    1    3    3    0    0  0.11706871608E+02  0.10646999286E+03 -0.17220708869E+02  0.16558070883E+03  0.12509000000E+03 0.  0.
         25    1    4    4    0    0  0.22231057330E+02 -0.84593668591E+02  0.40883685936E+02  0.15801674769E+03  0.12509000000E+03 0.  0.
<mgrwt>
<rscale>  2 0.45606757E+03</rscale>
<asrwt>0</asrwt>
<pdfrwt beam="1">  1       21 0.38250089E-01 0.45606757E+03</pdfrwt>
<pdfrwt beam="2">  1       21 0.29400053E-01 0.45606757E+03</pdfrwt>
<totfact> 0.67601654E+04</totfact>
</mgrwt>
</event>
<event>
 7    0  0.4705418E-002  0.4407886E+03  0.7546771E-02  0.1030505E+00
         21   -1    0    0  502  501  0.00000000000E+00  0.00000000000E+00  0.20897401488E+03  0.20897401488E+03  0.00000000000E+00 0.  1.
         21   -1    0    0  501  502 -0.00000000000E+00 -0.00000000000E+00 -0.23243873559E+03  0.23243873559E+03  0.00000000000E+00 0.  1.
      99926    2    1    2    0    0 -0.71054273576E-14  0.00000000000E+00 -0.23464720714E+02  0.44141275047E+03  0.44078863773E+03 0.  0.
      99925    2    3    3    0    0  0.61834857885E+02 -0.32596107869E+02 -0.85682088499E+02  0.28519314590E+03  0.26288334728E+03 0.  0.
         25    1    4    4    0    0 -0.78339717700E+01 -0.18975795638E+01 -0.33653657117E+02  0.12978847660E+03  0.12509000000E+03 0.  0.
         25    1    4    4    0    0  0.69668829655E+02 -0.30698528305E+02 -0.52028431383E+02  0.15540466929E+03  0.12509000000E+03 0.  0.
         25    1    3    3    0    0 -0.61834857885E+02  0.32596107869E+02  0.62217367785E+02  0.15621960457E+03  0.12509000000E+03 0.  0.
<mgrwt>
<rscale>  2 0.44078864E+03</rscale>
<asrwt>0</asrwt>
<pdfrwt beam="1">  1       21 0.30731473E-01 0.44078864E+03</pdfrwt>
<pdfrwt beam="2">  1       21 0.34182167E-01 0.44078864E+03</pdfrwt>
<totfact> 0.78032732E+04</totfact>
</mgrwt>
</event>
<event>
 7    0  0.4705418E-002  0.4460592E+03  0.7546771E-02  0.1028904E+00
         21   -1    0    0  502  501  0.00000000000E+00  0.00000000000E+00  0.21911794377E+03  0.21911794377E+03  0.00000000000E+00 0. -1.
         21   -1    0    0  501  502 -0.00000000000E+00 -0.00000000000E+00 -0.22701109634E+03  0.22701109634E+03  0.00000000000E+00 0. -1.
      99926    2    1    2    0    0  0.00000000000E+00  0.71054273576E-14 -0.78931525692E+01  0.44612904011E+03  0.44605920971E+03 0.  0.
      99925    2    3    3    0    0 -0.68269909807E+02 -0.49312268980E+02 -0.67033372693E+02  0.28414893579E+03  0.26297274422E+03 0.  0.
         25    1    3    3    0    0  0.68269909807E+02  0.49312268980E+02  0.59140220123E+02  0.16198010431E+03  0.12509000000E+03 0.  0.
         25    1    4    4    0    0 -0.59713822772E+02 -0.58327687041E+02 -0.38884155761E+02  0.15532979552E+03  0.12509000000E+03 0.  0.
         25    1    4    4    0    0 -0.85560870354E+01  0.90154180615E+01 -0.28149216932E+02  0.12881914028E+03  0.12509000000E+03 0.  0.
<mgrwt>
<rscale>  2 0.44605921E+03</rscale>
<asrwt>0</asrwt>
<pdfrwt beam="1">  1       21 0.32223227E-01 0.44605921E+03</pdfrwt>
<pdfrwt beam="2">  1       21 0.33383985E-01 0.44605921E+03</pdfrwt>
<totfact> 0.74365824E+04</totfact>
</mgrwt>
</event>
<event>
 7    0  0.4705418E-002  0.4450894E+03  0.7546771E-02  0.1029197E+00
         21   -1    0    0  502  501  0.00000000000E+00  0.00000000000E+00  0.27214003669E+03  0.27214003669E+03  0.00000000000E+00 0. -1.
         21   -1    0    0  501  502 -0.00000000000E+00 -0.00000000000E+00 -0.18198772023E+03  0.18198772023E+03  0.00000000000E+00 0. -1.
      99926    2    1    2    0    0  0.00000000000E+00  0.00000000000E+00  0.90152316454E+02  0.45412775692E+03  0.44508940612E+03 0.  0.
      99925    2    3    3    0    0 -0.67385901729E+02  0.13316761470E+02  0.13654464464E+03  0.30406792851E+03  0.26285864886E+03 0.  0.
         25    1    4    4    0    0  0.74444355961E+01  0.16729759094E+01  0.58250339048E+02  0.13819851146E+03  0.12509000000E+03 0.  0.
         25    1    4    4    0    0 -0.74830337325E+02  0.11643785560E+02  0.78294305589E+02  0.16586941705E+03  0.12509000000E+03 0.  0.
         25    1    3    3    0    0  0.67385901729E+02 -0.13316761470E+02 -0.46392328183E+02  0.15005982841E+03  0.12509000000E+03 0.  0.
<mgrwt>
<rscale>  2 0.44508941E+03</rscale>
<asrwt>0</asrwt>
<pdfrwt beam="1">  1       21 0.40020594E-01 0.44508941E+03</pdfrwt>
<pdfrwt beam="2">  1       21 0.26762900E-01 0.44508941E+03</pdfrwt>
<totfact> 0.74306928E+04</totfact>
</mgrwt>
</event>
<event>
 7    0  0.4705418E-002  0.4549672E+03  0.7546771E-02  0.1026251E+00
         21   -1    0    0  502  501  0.00000000000E+00  0.00000000000E+00  0.16933529322E+03  0.16933529322E+03  0.00000000000E+00 0. -1.
         21   -1    0    0  501  502 -0.00000000000E+00 -0.00000000000E+00 -0.30559953060E+03  0.30559953060E+03  0.00000000000E+00 0. -1.
      99926    2    1    2    0    0  0.14210854715E-13  0.00000000000E+00 -0.13626423738E+03  0.47493482381E+03  0.45496719055E+03 0.  0.
      99925    2    3    3    0    0  0.97264063510E+02 -0.55923974824E+02 -0.73004903460E+02  0.29538805988E+03  0.26331844026E+03 0.  0.
         25    1    4    4    0    0  0.73770236800E+01 -0.11805040754E+02 -0.27666525925E+02  0.12886707967E+03  0.12509000000E+03 0.  0.
         25    1    3    3    0    0 -0.97264063510E+02  0.55923974824E+02 -0.63259333922E+02  0.17954676393E+03  0.12509000000E+03 0.  0.
         25    1    4    4    0    0  0.89887039830E+02 -0.44118934070E+02 -0.45338377535E+02  0.16652098021E+03  0.12509000000E+03 0.  0.
<mgrwt>
<rscale>  2 0.45496719E+03</rscale>
<asrwt>0</asrwt>
<pdfrwt beam="1">  1       21 0.24902250E-01 0.45496719E+03</pdfrwt>
<pdfrwt beam="2">  1       21 0.44941107E-01 0.45496719E+03</pdfrwt>
<totfact> 0.67088169E+04</totfact>
</mgrwt>
</event>
<event>
 7    0  0.4705418E-002  0.4536991E+03  0.7546771E-02  0.1026625E+00
         21   -1    0    0  502  501  0.00000000000E+00  0.00000000000E+00  0.10200810781E+03  0.10200810781E+03  0.00000000000E+00 0. -1.
         21   -1    0    0  501  502 -0.00000000000E+00 -0.00000000000E+00 -0.50447672640E+03  0.50447672640E+03  0.00000000000E+00 0. -1.
      99926    2    1    2    0    0  0.00000000000E+00  0.00000000000E+00 -0.40246861858E+03  0.60648483421E+03  0.45369909101E+03 0.  0.
      99925    2    3    3    0    0 -0.10754083365E+03 -0.29028503449E+02 -0.27357834654E+03  0.39513702788E+03  0.26245089863E+03 0.  0.
         25    1    4    4    0    0 -0.68628390081E+02  0.13964894986E+02 -0.10693810099E+03  0.17885228475E+03  0.12509000000E+03 0.  0.
         25    1    4    4    0    0 -0.38912443571E+02 -0.42993398435E+02 -0.16664024554E+03  0.21628474313E+03  0.12509000000E+03 0.  0.
         25    1    3    3    0    0  0.10754083365E+03  0.29028503449E+02 -0.12889027205E+03  0.21134780634E+03  0.12509000000E+03 0.  0.
<mgrwt>
<rscale>  2 0.45369909E+03</rscale>
<asrwt>0</asrwt>
<pdfrwt beam="1">  1       21 0.15001193E-01 0.45369909E+03</pdfrwt>
<pdfrwt beam="2">  1       21 0.74187752E-01 0.45369909E+03</pdfrwt>
<totfact> 0.58883682E+04</totfact>
</mgrwt>
</event>
<event>
 7    0  0.4705418E-002  0.4536515E+03  0.7546771E-02  0.1026639E+00
         21   -1    0    0  502  501  0.00000000000E+00  0.00000000000E+00  0.59624210709E+03  0.59624210709E+03  0.00000000000E+00 0.  1.
         21   -1    0    0  501  502 -0.00000000000E+00 -0.00000000000E+00 -0.86290305927E+02  0.86290305927E+02  0.00000000000E+00 0.  1.
      99926    2    1    2    0    0 -0.35527136788E-14  0.00000000000E+00  0.50995180116E+03  0.68253241302E+03  0.45365146898E+03 0.  0.
      99925    2    3    3    0    0 -0.24281709713E+02  0.69038834270E+02  0.19379595529E+03  0.33474226215E+03  0.26294400110E+03 0.  0.
         25    1    4    4    0    0  0.95618875424E+01  0.15403266136E+01  0.10625276568E+03  0.16441095041E+03  0.12509000000E+03 0.  0.
         25    1    4    4    0    0 -0.33843597256E+02  0.67498507656E+02  0.87543189613E+02  0.17033131174E+03  0.12509000000E+03 0.  0.
         25    1    3    3    0    0  0.24281709713E+02 -0.69038834270E+02  0.31615584587E+03  0.34779015087E+03  0.12509000000E+03 0.  0.
<mgrwt>
<rscale>  2 0.45365147E+03</rscale>
<asrwt>0</asrwt>
<pdfrwt beam="1">  1       21 0.87682661E-01 0.45365147E+03</pdfrwt>
<pdfrwt beam="2">  1       21 0.12689751E-01 0.45365147E+03</pdfrwt>
<totfact> 0.54437659E+04</totfact>
</mgrwt>
</event>
<event>
 7    0  0.4705418E-002  0.4515391E+03  0.7546771E-02  0.1027264E+00
         21   -1    0    0  502  501  0.00000000000E+00  0.00000000000E+00  0.31636791700E+03  0.31636791700E+03  0.00000000000E+00 0.  1.
         21   -1    0    0  501  502 -0.00000000000E+00 -0.00000000000E+00 -0.16111583103E+03  0.16111583103E+03  0.00000000000E+00 0.  1.
      99926    2    1    2    0    0  0.71054273576E-14  0.00000000000E+00  0.15525208597E+03  0.47748374803E+03  0.45153905638E+03 0.  0.
      99925    2    3    3    0    0 -0.55166859751E+02 -0.88336711281E+02  0.13498560384E+03  0.31345632540E+03  0.26303421397E+03 0.  0.
         25    1    3    3    0    0  0.55166859751E+02  0.88336711281E+02  0.20266482130E+02  0.16402742262E+03  0.12509000000E+03 0.  0.
         25    1    4    4    0    0 -0.24828440468E+02 -0.79952773198E+01  0.85948676805E+02  0.15399694497E+03  0.12509000000E+03 0.  0.
         25    1    4    4    0    0 -0.30338419282E+02 -0.80341433961E+02  0.49036927032E+02  0.15945938043E+03  0.12509000000E+03 0.  0.
<mgrwt>
<rscale>  2 0.45153906E+03</rscale>
<asrwt>0</asrwt>
<pdfrwt beam="1">  1       21 0.46524694E-01 0.45153906E+03</pdfrwt>
<pdfrwt beam="2">  1       21 0.23693505E-01 0.45153906E+03</pdfrwt>
<totfact> 0.68753083E+04</totfact>
</mgrwt>
</event>
<event>
 7    0  0.4705418E-002  0.4566527E+03  0.7546771E-02  0.1025757E+00
         21   -1    0    0  502  501  0.00000000000E+00  0.00000000000E+00  0.71547624894E+03  0.71547624894E+03  0.00000000000E+00 0. -1.
         21   -1    0    0  501  502 -0.00000000000E+00 -0.00000000000E+00 -0.72864642847E+02  0.72864642847E+02  0.00000000000E+00 0. -1.
      99926    2    1    2    0    0  0.00000000000E+00  0.00000000000E+00  0.64261160610E+03  0.78834089179E+03  0.45665269667E+03 0.  0.
      99925    2    3    3    0    0  0.59073394212E+02  0.97914490687E+02  0.41921955398E+03  0.50793327699E+03  0.26301001130E+03 0.  0.
         25    1    4    4    0    0  0.45526081967E+02  0.44829617949E+02  0.27808269858E+03  0.31154424106E+03  0.12509000000E+03 0.  0.
         25    1    3    3    0    0 -0.59073394212E+02 -0.97914490687E+02  0.22339205211E+03  0.28040761480E+03  0.12509000000E+03 0.  0.
         25    1    4    4    0    0  0.13547312246E+02  0.53084872738E+02  0.14113685540E+03  0.19638903593E+03  0.12509000000E+03 0.  0.
<mgrwt>
<rscale>  2 0.45665270E+03</rscale>
<asrwt>0</asrwt>
<pdfrwt beam="1">  1       21 0.10521709E+00 0.45665270E+03</pdfrwt>
<pdfrwt beam="2">  1       21 0.10715389E-01 0.45665270E+03</pdfrwt>
<totfact> 0.47712041E+04</totfact>
</mgrwt>
</event>
<event>
 7    0  0.4705418E-002  0.4597191E+03  0.7546771E-02  0.1024863E+00
         21   -1    0    0  502  501  0.00000000000E+00  0.00000000000E+00  0.55311868341E+02  0.55311868341E+02  0.00000000000E+00 0. -1.
         21   -1    0    0  501  502 -0.00000000000E+00 -0.00000000000E+00 -0.95522759862E+03  0.95522759862E+03  0.00000000000E+00 0. -1.
      99926    2    1    2    0    0  0.00000000000E+00  0.71054273576E-14 -0.89991573028E+03  0.10105394670E+04  0.45971914544E+03 0.  0.
      99925    2    3    3    0    0  0.17771583257E+02 -0.34311179467E+02 -0.32019880986E+03  0.41622279874E+03  0.26309894364E+03 0.  0.
         25    1    3    3    0    0 -0.17771583257E+02  0.34311179467E+02 -0.57971692042E+03  0.59431666822E+03  0.12509000000E+03 0.  0.
         25    1    4    4    0    0 -0.69389737765E+01 -0.54414713978E+02 -0.15560261281E+03  0.20704780044E+03  0.12509000000E+03 0.  0.
         25    1    4    4    0    0  0.24710557034E+02  0.20103534511E+02 -0.16459619705E+03  0.20917499830E+03  0.12509000000E+03 0.  0.
<mgrwt>
<rscale>  2 0.45971915E+03</rscale>
<asrwt>0</asrwt>
<pdfrwt beam="1">  1       21 0.81340990E-02 0.45971915E+03</pdfrwt>
<pdfrwt beam="2">  1       21 0.14047463E+00 0.45971915E+03</pdfrwt>
<totfact> 0.37363359E+04</totfact>
</mgrwt>
</event>
<event>
 7    0  0.4705418E-002  0.4468710E+03  0.7546771E-02  0.1028659E+00
         21   -1    0    0  502  501  0.00000000000E+00  0.00000000000E+00  0.23585719914E+03  0.23585719914E+03  0.00000000000E+00 0. -1.
         21   -1    0    0  501  502 -0.00000000000E+00 -0.00000000000E+00 -0.21166803115E+03  0.21166803115E+03  0.00000000000E+00 0. -1.
      99926    2    1    2    0    0  0.00000000000E+00  0.71054273576E-14  0.24189167995E+02  0.44752523029E+03  0.44687102826E+03 0.  0.
      99925    2    3    3    0    0 -0.15527047644E+02  0.61171572178E+02 -0.69140216908E+02  0.27917757620E+03  0.26301463648E+03 0.  0.
         25    1    3    3    0    0  0.15527047644E+02 -0.61171572178E+02  0.93329384903E+02  0.16834765409E+03  0.12509000000E+03 0.  0.
         25    1    4    4    0    0 -0.13039458677E+02 -0.28154451599E+01 -0.83838377155E+01  0.12607835282E+03  0.12509000000E+03 0.  0.
         25    1    4    4    0    0 -0.24875889669E+01  0.63987017338E+02 -0.60756379193E+02  0.15309922338E+03  0.12509000000E+03 0.  0.
<mgrwt>
<rscale>  2 0.44687103E+03</rscale>
<asrwt>0</asrwt>
<pdfrwt beam="1">  1       21 0.34684882E-01 0.44687103E+03</pdfrwt>
<pdfrwt beam="2">  1       21 0.31127652E-01 0.44687103E+03</pdfrwt>
<totfact> 0.73766555E+04</totfact>
</mgrwt>
</event>
<event>
 7    0  0.4705418E-002  0.4561330E+03  0.7546771E-02  0.1025909E+00
         21   -1    0    0  502  501  0.00000000000E+00  0.00000000000E+00  0.22886393482E+03  0.22886393482E+03  0.00000000000E+00 0. -1.
         21   -1    0    0  501  502 -0.00000000000E+00 -0.00000000000E+00 -0.22727180065E+03  0.22727180065E+03  0.00000000000E+00 0. -1.
      99926    2    1    2    0    0  0.00000000000E+00 -0.14210854715E-13  0.15921341663E+01  0.45613573547E+03  0.45613295680E+03 0.  0.
      99925    2    3    3    0    0 -0.40040695491E+02 -0.85982715395E+02  0.64653948315E+02  0.28695953990E+03  0.26300068416E+03 0.  0.
         25    1    4    4    0    0 -0.24237627001E+02 -0.42900207028E+02 -0.89451262775E+01  0.13474202652E+03  0.12509000000E+03 0.  0.
         25    1    3    3    0    0  0.40040695491E+02  0.85982715395E+02 -0.63061814149E+02  0.16917619557E+03  0.12509000000E+03 0.  0.
         25    1    4    4    0    0 -0.15803068490E+02 -0.43082508368E+02  0.73599074593E+02  0.15221751339E+03  0.12509000000E+03 0.  0.
<mgrwt>
<rscale>  2 0.45613296E+03</rscale>
<asrwt>0</asrwt>
<pdfrwt beam="1">  1       21 0.33656461E-01 0.45613296E+03</pdfrwt>
<pdfrwt beam="2">  1       21 0.33422324E-01 0.45613296E+03</pdfrwt>
<totfact> 0.67847262E+04</totfact>
</mgrwt>
</event>
<event>
 7    0  0.4705418E-002  0.4570025E+03  0.7546771E-02  0.1025654E+00
         21   -1    0    0  502  501  0.00000000000E+00  0.00000000000E+00  0.24361056356E+02  0.24361056356E+02  0.00000000000E+00 0. -1.
         21   -1    0    0  501  502 -0.00000000000E+00 -0.00000000000E+00 -0.21432908279E+04  0.21432908279E+04  0.00000000000E+00 0. -1.
      99926    2    1    2    0    0  0.00000000000E+00  0.00000000000E+00 -0.21189297716E+04  0.21676518843E+04  0.45700253236E+03 0.  0.
      99925    2    3    3    0    0  0.66872497661E+02 -0.92652300168E+02 -0.13117714986E+04  0.13429044287E+04  0.26380193435E+03 0.  0.
         25    1    3    3    0    0 -0.66872497661E+02  0.92652300168E+02 -0.80715827300E+03  0.82474745555E+03  0.12509000000E+03 0.  0.
         25    1    4    4    0    0  0.72538055294E+02 -0.31428129977E+02 -0.69523950598E+03  0.71081289774E+03  0.12509000000E+03 0.  0.
         25    1    4    4    0    0 -0.56655576335E+01 -0.61224170191E+02 -0.61653199259E+03  0.63209153099E+03  0.12509000000E+03 0.  0.
<mgrwt>
<rscale>  2 0.45700253E+03</rscale>
<asrwt>0</asrwt>
<pdfrwt beam="1">  1       21 0.35825091E-02 0.45700253E+03</pdfrwt>
<pdfrwt beam="2">  1       21 0.31518975E+00 0.45700253E+03</pdfrwt>
<totfact> 0.10988800E+04</totfact>
</mgrwt>
</event>
<event>
 7    0  0.4705418E-002  0.4422798E+03  0.7546771E-02  0.1030050E+00
         21   -1    0    0  502  501  0.00000000000E+00  0.00000000000E+00  0.17216683727E+03  0.17216683727E+03  0.00000000000E+00 0.  1.
         21   -1    0    0  501  502 -0.00000000000E+00 -0.00000000000E+00 -0.28404337501E+03  0.28404337501E+03  0.00000000000E+00 0.  1.
      99926    2    1    2    0    0  0.00000000000E+00 -0.35527136788E-14 -0.11187653773E+03  0.45621021228E+03  0.44227977355E+03 0.  0.
      99925    2    3    3    0    0  0.33689148618E+02 -0.25471776783E+02 -0.16558927026E+03  0.31367482761E+03  0.26303672919E+03 0.  0.
         25    1    4    4    0    0 -0.15759559437E+02  0.81244358963E+01 -0.95171205444E+02  0.15817533505E+03  0.12509000000E+03 0.  0.
         25    1    4    4    0    0  0.49448708055E+02 -0.33596212679E+02 -0.70418064817E+02  0.15549949256E+03  0.12509000000E+03 0.  0.
         25    1    3    3    0    0 -0.33689148618E+02  0.25471776783E+02  0.53712732525E+02  0.14253538467E+03  0.12509000000E+03 0.  0.
<mgrwt>
<rscale>  2 0.44227977E+03</rscale>
<asrwt>0</asrwt>
<pdfrwt beam="1">  1       21 0.25318653E-01 0.44227977E+03</pdfrwt>
<pdfrwt beam="2">  1       21 0.41771084E-01 0.44227977E+03</pdfrwt>
<totfact> 0.75843757E+04</totfact>
</mgrwt>
</event>
<event>
 7    0  0.4705418E-002  0.4409349E+03  0.7546771E-02  0.1030460E+00
         21   -1    0    0  502  501  0.00000000000E+00  0.00000000000E+00  0.25554600891E+03  0.25554600891E+03  0.00000000000E+00 0.  1.
         21   -1    0    0  501  502 -0.00000000000E+00 -0.00000000000E+00 -0.19020405643E+03  0.19020405643E+03  0.00000000000E+00 0.  1.
      99926    2    1    2    0    0  0.14210854715E-13 -0.88817841970E-15  0.65341952481E+02  0.44575006535E+03  0.44093485914E+03 0.  0.
      99925    2    3    3    0    0 -0.95845200275E+02  0.79090386560E+01  0.67485842240E+02  0.28794968616E+03  0.26289128466E+03 0.  0.
         25    1    4    4    0    0 -0.70841474856E+02 -0.21947429190E+02  0.12807177553E+02  0.14598539689E+03  0.12509000000E+03 0.  0.
         25    1    3    3    0    0  0.95845200275E+02 -0.79090386560E+01 -0.21438897589E+01  0.15780037919E+03  0.12509000000E+03 0.  0.
         25    1    4    4    0    0 -0.25003725419E+02  0.29856467846E+02  0.54678664687E+02  0.14196428927E+03  0.12509000000E+03 0.  0.
<mgrwt>
<rscale>  2 0.44093486E+03</rscale>
<asrwt>0</asrwt>
<pdfrwt beam="1">  1       21 0.37580296E-01 0.44093486E+03</pdfrwt>
<pdfrwt beam="2">  1       21 0.27971185E-01 0.44093486E+03</pdfrwt>
<totfact> 0.77574531E+04</totfact>
</mgrwt>
</event>
<event>
 7    0  0.4705418E-002  0.4520644E+03  0.7546771E-02  0.1027108E+00
         21   -1    0    0  502  501  0.00000000000E+00  0.00000000000E+00  0.14514997081E+04  0.14514997081E+04  0.00000000000E+00 0.  1.
         21   -1    0    0  501  502 -0.00000000000E+00 -0.00000000000E+00 -0.35198461662E+02  0.35198461662E+02  0.00000000000E+00 0.  1.
      99926    2    1    2    0    0  0.71054273576E-14  0.14210854715E-13  0.14163012464E+04  0.14866981697E+04  0.45206440615E+03 0.  0.
      99925    2    3    3    0    0  0.51724107947E+02 -0.84330119311E+02  0.73321104619E+03  0.78523777733E+03  0.26308359191E+03 0.  0.
         25    1    3    3    0    0 -0.51724107947E+02  0.84330119311E+02  0.68309020021E+03  0.70146039239E+03  0.12509000000E+03 0.  0.
         25    1    4    4    0    0  0.60383676199E+02 -0.64296434063E+02  0.36708964944E+03  0.39772168487E+03  0.12509000000E+03 0.  0.
         25    1    4    4    0    0 -0.86595682521E+01 -0.20033685248E+02  0.36612139674E+03  0.38751609247E+03  0.12509000000E+03 0.  0.
<mgrwt>
<rscale>  2 0.45206441E+03</rscale>
<asrwt>0</asrwt>
<pdfrwt beam="1">  1       21 0.21345580E+00 0.45206441E+03</pdfrwt>
<pdfrwt beam="2">  1       21 0.51762453E-02 0.45206441E+03</pdfrwt>
<totfact> 0.24664676E+04</totfact>
</mgrwt>
</event>
<event>
 7    0  0.4705418E-002  0.4411832E+03  0.7546771E-02  0.1030384E+00
         21   -1    0    0  502  501  0.00000000000E+00  0.00000000000E+00  0.20691384246E+03  0.20691384246E+03  0.00000000000E+00 0.  1.
         21   -1    0    0  501  502 -0.00000000000E+00 -0.00000000000E+00 -0.23517347372E+03  0.23517347372E+03  0.00000000000E+00 0.  1.
      99926    2    1    2    0    0  0.00000000000E+00  0.14210854715E-13 -0.28259631258E+02  0.44208731619E+03  0.44118316873E+03 0.  0.
      99925    2    3    3    0    0  0.23174924348E+02  0.96902107103E+02 -0.16375101990E+02  0.28172570727E+03  0.26300976159E+03 0.  0.
         25    1    4    4    0    0  0.27436333824E+02  0.21344528346E+02  0.19244347492E+02  0.13124859738E+03  0.12509000000E+03 0.  0.
         25    1    4    4    0    0 -0.42614094767E+01  0.75557578757E+02 -0.35619449481E+02  0.15047710989E+03  0.12509000000E+03 0.  0.
         25    1    3    3    0    0 -0.23174924348E+02 -0.96902107103E+02 -0.11884529269E+02  0.16036160892E+03  0.12509000000E+03 0.  0.
<mgrwt>
<rscale>  2 0.44118317E+03</rscale>
<asrwt>0</asrwt>
<pdfrwt beam="1">  1       21 0.30428506E-01 0.44118317E+03</pdfrwt>
<pdfrwt beam="2">  1       21 0.34584334E-01 0.44118317E+03</pdfrwt>
<totfact> 0.77723787E+04</totfact>
</mgrwt>
</event>
<event>
 7    0  0.4705418E-002  0.4577926E+03  0.7546771E-02  0.1025423E+00
         21   -1    0    0  502  501  0.00000000000E+00  0.00000000000E+00  0.48402792696E+03  0.48402792696E+03  0.00000000000E+00 0. -1.
         21   -1    0    0  501  502 -0.00000000000E+00 -0.00000000000E+00 -0.10824481061E+03  0.10824481061E+03  0.00000000000E+00 0. -1.
      99926    2    1    2    0    0  0.00000000000E+00  0.00000000000E+00  0.37578311635E+03  0.59227273757E+03  0.45779257872E+03 0.  0.
      99925    2    3    3    0    0 -0.72811118182E+01  0.93732576663E+02  0.32330298301E+03  0.42722582602E+03  0.26297961342E+03 0.  0.
         25    1    4    4    0    0 -0.33117820377E+02  0.48989549063E+02  0.12089437264E+03  0.18373819249E+03  0.12509000000E+03 0.  0.
         25    1    3    3    0    0  0.72811118182E+01 -0.93732576663E+02  0.52480133337E+02  0.16504691155E+03  0.12509000000E+03 0.  0.
         25    1    4    4    0    0  0.25836708559E+02  0.44743027600E+02  0.20240861037E+03  0.24348763352E+03  0.12509000000E+03 0.  0.
<mgrwt>
<rscale>  2 0.45779258E+03</rscale>
<asrwt>0</asrwt>
<pdfrwt beam="1">  1       21 0.71180577E-01 0.45779258E+03</pdfrwt>
<pdfrwt beam="2">  1       21 0.15918355E-01 0.45779258E+03</pdfrwt>
<totfact> 0.57868660E+04</totfact>
</mgrwt>
</event>
<event>
 7    0  0.4705418E-002  0.4037969E+03  0.7546771E-02  0.1042473E+00
         21   -1    0    0  502  501  0.00000000000E+00  0.00000000000E+00  0.66043465514E+02  0.66043465514E+02  0.00000000000E+00 0.  1.
         21   -1    0    0  501  502 -0.00000000000E+00 -0.00000000000E+00 -0.61721455536E+03  0.61721455536E+03  0.00000000000E+00 0.  1.
      99926    2    1    2    0    0  0.35527136788E-14  0.00000000000E+00 -0.55117108985E+03  0.68325802088E+03  0.40379692025E+03 0.  0.
      99925    2    3    3    0    0  0.12374597347E+02  0.17886162704E+02 -0.44692207217E+03  0.51897652082E+03  0.26291490085E+03 0.  0.
         25    1    4    4    0    0 -0.31996877999E+02  0.10147706429E-01 -0.23921684803E+03  0.27183820333E+03  0.12509000000E+03 0.  0.
         25    1    3    3    0    0 -0.12374597347E+02 -0.17886162704E+02 -0.10424901767E+03  0.16428150006E+03  0.12509000000E+03 0.  0.
         25    1    4    4    0    0  0.44371475346E+02  0.17876014997E+02 -0.20770522414E+03  0.24713831749E+03  0.12509000000E+03 0.  0.
<mgrwt>
<rscale>  2 0.40379692E+03</rscale>
<asrwt>0</asrwt>
<pdfrwt beam="1">  1       21 0.97122739E-02 0.40379692E+03</pdfrwt>
<pdfrwt beam="2">  1       21 0.90766851E-01 0.40379692E+03</pdfrwt>
<totfact> 0.82321514E+04</totfact>
</mgrwt>
</event>
<event>
 7    0  0.4705418E-002  0.4302396E+03  0.7546771E-02  0.1033784E+00
         21   -1    0    0  502  501  0.00000000000E+00  0.00000000000E+00  0.42832884664E+02  0.42832884664E+02  0.00000000000E+00 0.  1.
         21   -1    0    0  501  502 -0.00000000000E+00 -0.00000000000E+00 -0.10803969952E+04  0.10803969952E+04  0.00000000000E+00 0.  1.
      99926    2    1    2    0    0  0.00000000000E+00  0.00000000000E+00 -0.10375641105E+04  0.11232298799E+04  0.43023956065E+03 0.  0.
      99925    2    3    3    0    0  0.77578113603E+02  0.27302667728E+02 -0.75081405541E+03  0.79975360316E+03  0.26290736124E+03 0.  0.
         25    1    4    4    0    0  0.60855717565E+02 -0.12743013750E+02 -0.44761121394E+03  0.46890202570E+03  0.12509000000E+03 0.  0.
         25    1    4    4    0    0  0.16722396038E+02  0.40045681478E+02 -0.30320284146E+03  0.33085157746E+03  0.12509000000E+03 0.  0.
         25    1    3    3    0    0 -0.77578113603E+02 -0.27302667728E+02 -0.28675005514E+03  0.32347627671E+03  0.12509000000E+03 0.  0.
<mgrwt>
<rscale>  2 0.43023956E+03</rscale>
<asrwt>0</asrwt>
<pdfrwt beam="1">  1       21 0.62989524E-02 0.43023956E+03</pdfrwt>
<pdfrwt beam="2">  1       21 0.15888194E+00 0.43023956E+03</pdfrwt>
<totfact> 0.42279209E+04</totfact>
</mgrwt>
</event>
<event>
 7    0  0.4705418E-002  0.4393870E+03  0.7546771E-02  0.1030935E+00
         21   -1    0    0  502  501  0.00000000000E+00  0.00000000000E+00  0.35673274063E+03  0.35673274063E+03  0.00000000000E+00 0. -1.
         21   -1    0    0  501  502 -0.00000000000E+00 -0.00000000000E+00 -0.13529801516E+03  0.13529801516E+03  0.00000000000E+00 0. -1.
      99926    2    1    2    0    0 -0.35527136788E-14 -0.71054273576E-14  0.22143472547E+03  0.49203075579E+03  0.43938699002E+03 0.  0.
      99925    2    3    3    0    0  0.21472222090E+02  0.52399606958E+02  0.23077618285E+03  0.35440246634E+03  0.26293856020E+03 0.  0.
         25    1    3    3    0    0 -0.21472222090E+02 -0.52399606958E+02 -0.93414573805E+01  0.13762828945E+03  0.12509000000E+03 0.  0.
         25    1    4    4    0    0  0.69659735294E+01  0.63029130849E+02  0.14460877042E+03  0.20144577609E+03  0.12509000000E+03 0.  0.
         25    1    4    4    0    0  0.14506248560E+02 -0.10629523891E+02  0.86167412435E+02  0.15295669025E+03  0.12509000000E+03 0.  0.
<mgrwt>
<rscale>  2 0.43938699E+03</rscale>
<asrwt>0</asrwt>
<pdfrwt beam="1">  1       21 0.52460697E-01 0.43938699E+03</pdfrwt>
<pdfrwt beam="2">  1       21 0.19896767E-01 0.43938699E+03</pdfrwt>
<totfact> 0.74667765E+04</totfact>
</mgrwt>
</event>
<event>
 7    0  0.4705418E-002  0.4770466E+03  0.7546771E-02  0.1019950E+00
         21   -1    0    0  502  501  0.00000000000E+00  0.00000000000E+00  0.42626009406E+03  0.42626009406E+03  0.00000000000E+00 0.  1.
         21   -1    0    0  501  502 -0.00000000000E+00 -0.00000000000E+00 -0.13347101032E+03  0.13347101032E+03  0.00000000000E+00 0.  1.
      99926    2    1    2    0    0  0.00000000000E+00  0.14210854715E-13  0.29278908374E+03  0.55973110437E+03  0.47704660322E+03 0.  0.
      99925    2    3    3    0    0 -0.54652686632E+02  0.12028399938E+03  0.19535725481E+03  0.35334402616E+03  0.26312048030E+03 0.  0.
         25    1    3    3    0    0  0.54652686632E+02 -0.12028399938E+03  0.97431828935E+02  0.20638707821E+03  0.12509000000E+03 0.  0.
         25    1    4    4    0    0 -0.57378215145E+02  0.93361041913E+02  0.11584102880E+03  0.20267016498E+03  0.12509000000E+03 0.  0.
         25    1    4    4    0    0  0.27255285139E+01  0.26922957471E+02  0.79516226010E+02  0.15067386118E+03  0.12509000000E+03 0.  0.
<mgrwt>
<rscale>  2 0.47704660E+03</rscale>
<asrwt>0</asrwt>
<pdfrwt beam="1">  1       21 0.62685307E-01 0.47704660E+03</pdfrwt>
<pdfrwt beam="2">  1       21 0.19628090E-01 0.47704660E+03</pdfrwt>
<totfact> 0.51615322E+04</totfact>
</mgrwt>
</event>
<event>
 7    0  0.4705418E-002  0.4480625E+03  0.7546771E-02  0.1028301E+00
         21   -1    0    0  502  501  0.00000000000E+00  0.00000000000E+00  0.46074175103E+03  0.46074175103E+03  0.00000000000E+00 0. -1.
         21   -1    0    0  501  502 -0.00000000000E+00 -0.00000000000E+00 -0.10893306184E+03  0.10893306184E+03  0.00000000000E+00 0. -1.
      99926    2    1    2    0    0 -0.17763568394E-14  0.00000000000E+00  0.35180868919E+03  0.56967481287E+03  0.44806253875E+03 0.  0.
      99925    2    3    3    0    0  0.93478200747E+01 -0.55108381772E+02  0.33808613328E+03  0.43197901728E+03  0.26301962355E+03 0.  0.
         25    1    3    3    0    0 -0.93478200747E+01  0.55108381772E+02  0.13722555905E+02  0.13769579559E+03  0.12509000000E+03 0.  0.
         25    1    4    4    0    0 -0.17791647068E+02 -0.58774499564E+02  0.19879530962E+03  0.24277163700E+03  0.12509000000E+03 0.  0.
         25    1    4    4    0    0  0.27139467143E+02  0.36661177920E+01  0.13929082366E+03  0.18920738028E+03  0.12509000000E+03 0.  0.
<mgrwt>
<rscale>  2 0.44806254E+03</rscale>
<asrwt>0</asrwt>
<pdfrwt beam="1">  1       21 0.67756139E-01 0.44806254E+03</pdfrwt>
<pdfrwt beam="2">  1       21 0.16019568E-01 0.44806254E+03</pdfrwt>
<totfact> 0.64025599E+04</totfact>
</mgrwt>
</event>
<event>
 7    0  0.4705418E-002  0.4662415E+03  0.7546771E-02  0.1022986E+00
         21   -1    0    0  502  501  0.00000000000E+00  0.00000000000E+00  0.25882093110E+02  0.25882093110E+02  0.00000000000E+00 0. -1.
         21   -1    0    0  501  502 -0.00000000000E+00 -0.00000000000E+00 -0.20997249070E+04  0.20997249070E+04  0.00000000000E+00 0. -1.
      99926    2    1    2    0    0  0.14210854715E-13  0.00000000000E+00 -0.20738428139E+04  0.21256070001E+04  0.46624146340E+03 0.  0.
      99925    2    3    3    0    0 -0.65903837796E+02 -0.78604114681E+02 -0.98039907401E+03  0.10202615143E+04  0.26311459576E+03 0.  0.
         25    1    4    4    0    0 -0.19459887778E+02 -0.78400321342E+02 -0.50625886850E+03  0.52770337089E+03  0.12509000000E+03 0.  0.
         25    1    4    4    0    0 -0.46443950019E+02 -0.20379333962E+00 -0.47414020551E+03  0.49255814337E+03  0.12509000000E+03 0.  0.
         25    1    3    3    0    0  0.65903837796E+02  0.78604114681E+02 -0.10934437399E+04  0.11053454858E+04  0.12509000000E+03 0.  0.
<mgrwt>
<rscale>  2 0.46624146E+03</rscale>
<asrwt>0</asrwt>
<pdfrwt beam="1">  1       21 0.38061887E-02 0.46624146E+03</pdfrwt>
<pdfrwt beam="2">  1       21 0.30878319E+00 0.46624146E+03</pdfrwt>
<totfact> 0.10792181E+04</totfact>
</mgrwt>
</event>
<event>
 7    0  0.4705418E-002  0.4510321E+03  0.7546771E-02  0.1027415E+00
         21   -1    0    0  502  501  0.00000000000E+00  0.00000000000E+00  0.38091683581E+03  0.38091683581E+03  0.00000000000E+00 0. -1.
         21   -1    0    0  501  502 -0.00000000000E+00 -0.00000000000E+00 -0.13351333779E+03  0.13351333779E+03  0.00000000000E+00 0. -1.
      99926    2    1    2    0    0  0.00000000000E+00  0.00000000000E+00  0.24740349801E+03  0.51443017360E+03  0.45103205283E+03 0.  0.
      99925    2    3    3    0    0  0.89890516326E+02 -0.45460859110E+02  0.20505717268E+03  0.34833467696E+03  0.26294791968E+03 0.  0.
         25    1    4    4    0    0  0.52119566592E+02  0.96212317447E+01  0.71423510011E+02  0.15348564495E+03  0.12509000000E+03 0.  0.
         25    1    4    4    0    0  0.37770949734E+02 -0.55082090855E+02  0.13363366267E+03  0.19484903201E+03  0.12509000000E+03 0.  0.
         25    1    3    3    0    0 -0.89890516326E+02  0.45460859110E+02  0.42346325329E+02  0.16609549664E+03  0.12509000000E+03 0.  0.
<mgrwt>
<rscale>  2 0.45103205E+03</rscale>
<asrwt>0</asrwt>
<pdfrwt beam="1">  1       21 0.56017182E-01 0.45103205E+03</pdfrwt>
<pdfrwt beam="2">  1       21 0.19634314E-01 0.45103205E+03</pdfrwt>
<totfact> 0.66332277E+04</totfact>
</mgrwt>
</event>
<event>
 7    0  0.4705418E-002  0.4606674E+03  0.7546771E-02  0.1024588E+00
         21   -1    0    0  502  501  0.00000000000E+00  0.00000000000E+00  0.81304182839E+02  0.81304182839E+02  0.00000000000E+00 0.  1.
         21   -1    0    0  501  502 -0.00000000000E+00 -0.00000000000E+00 -0.65253242307E+03  0.65253242307E+03  0.00000000000E+00 0.  1.
      99926    2    1    2    0    0 -0.71054273576E-14  0.00000000000E+00 -0.57122824023E+03  0.73383660591E+03  0.46066740902E+03 0.  0.
      99925    2    3    3    0    0 -0.55491037130E+02 -0.94328882163E+02 -0.42953983636E+03  0.51543261074E+03  0.26303823294E+03 0.  0.
         25    1    3    3    0    0  0.55491037130E+02  0.94328882163E+02 -0.14168840387E+03  0.21840399516E+03  0.12509000000E+03 0.  0.
         25    1    4    4    0    0 -0.51021570696E+02 -0.13523007208E+02 -0.19674585184E+03  0.23904499726E+03  0.12509000000E+03 0.  0.
         25    1    4    4    0    0 -0.44694664339E+01 -0.80805874955E+02 -0.23279398452E+03  0.27638761348E+03  0.12509000000E+03 0.  0.
<mgrwt>
<rscale>  2 0.46066741E+03</rscale>
<asrwt>0</asrwt>
<pdfrwt beam="1">  1       21 0.11956497E-01 0.46066741E+03</pdfrwt>
<pdfrwt beam="2">  1       21 0.95960652E-01 0.46066741E+03</pdfrwt>
<totfact> 0.48888804E+04</totfact>
</mgrwt>
</event>
<event>
 7    0  0.4705418E-002  0.4529405E+03  0.7546771E-02  0.1026849E+00
         21   -1    0    0  502  501  0.00000000000E+00  0.00000000000E+00  0.60916532257E+02  0.60916532257E+02  0.00000000000E+00 0.  1.
         21   -1    0    0  501  502 -0.00000000000E+00 -0.00000000000E+00 -0.84195161233E+03  0.84195161233E+03  0.00000000000E+00 0.  1.
      99926    2    1    2    0    0  0.71054273576E-14  0.00000000000E+00 -0.78103508007E+03  0.90286814459E+03  0.45294049301E+03 0.  0.
      99925    2    3    3    0    0 -0.57654047211E+02  0.66631465206E+02 -0.62798632030E+03  0.68645379136E+03  0.26284643401E+03 0.  0.
         25    1    4    4    0    0 -0.63562724250E+02  0.56967383700E+02 -0.33079965321E+03  0.36381509230E+03  0.12509000000E+03 0.  0.
         25    1    4    4    0    0  0.59086770385E+01  0.96640815062E+01 -0.29718666709E+03  0.32263869906E+03  0.12509000000E+03 0.  0.
         25    1    3    3    0    0  0.57654047211E+02 -0.66631465206E+02 -0.15304875977E+03  0.21641435323E+03  0.12509000000E+03 0.  0.
<mgrwt>
<rscale>  2 0.45294049E+03</rscale>
<asrwt>0</asrwt>
<pdfrwt beam="1">  1       21 0.89583141E-02 0.45294049E+03</pdfrwt>
<pdfrwt beam="2">  1       21 0.12381641E+00 0.45294049E+03</pdfrwt>
<totfact> 0.43812094E+04</totfact>
</mgrwt>
</event>
<event>
 7    0  0.4705418E-002  0.4468727E+03  0.7546771E-02  0.1028659E+00
         21   -1    0    0  502  501  0.00000000000E+00  0.00000000000E+00  0.15531600426E+03  0.15531600426E+03  0.00000000000E+00 0.  1.
         21   -1    0    0  501  502 -0.00000000000E+00 -0.00000000000E+00 -0.32143374950E+03  0.32143374950E+03  0.00000000000E+00 0.  1.
      99926    2    1    2    0    0  0.00000000000E+00  0.00000000000E+00 -0.16611774524E+03  0.47674975376E+03  0.44687271390E+03 0.  0.
      99925    2    3    3    0    0 -0.93579718002E+02  0.46394115774E+02 -0.11929940716E+03  0.30719432778E+03  0.26310915770E+03 0.  0.
         25    1    4    4    0    0 -0.40352491657E+02  0.63534069288E+01 -0.17601978364E+02  0.13276304872E+03  0.12509000000E+03 0.  0.
         25    1    3    3    0    0  0.93579718002E+02 -0.46394115774E+02 -0.46818338078E+02  0.16955542598E+03  0.12509000000E+03 0.  0.
         25    1    4    4    0    0 -0.53227226345E+02  0.40040708845E+02 -0.10169742880E+03  0.17443127906E+03  0.12509000000E+03 0.  0.
<mgrwt>
<rscale>  2 0.44687271E+03</rscale>
<asrwt>0</asrwt>
<pdfrwt beam="1">  1       21 0.22840589E-01 0.44687271E+03</pdfrwt>
<pdfrwt beam="2">  1       21 0.47269668E-01 0.44687271E+03</pdfrwt>
<totfact> 0.71435906E+04</totfact>
</mgrwt>
</event>
<event>
 7    0  0.4705418E-002  0.4524683E+03  0.7546771E-02  0.1026989E+00
         21   -1    0    0  502  501  0.00000000000E+00  0.00000000000E+00  0.59179263253E+02  0.59179263253E+02  0.00000000000E+00 0.  1.
         21   -1    0    0  501  502 -0.00000000000E+00 -0.00000000000E+00 -0.86486209667E+03  0.86486209667E+03  0.00000000000E+00 0.  1.
      99926    2    1    2    0    0  0.00000000000E+00  0.88817841970E-15 -0.80568283341E+03  0.92404135992E+03  0.45246834893E+03 0.  0.
      99925    2    3    3    0    0 -0.41139967947E+02 -0.47518011967E+01 -0.71785782766E+03  0.76568790618E+03  0.26314070827E+03 0.  0.
         25    1    4    4    0    0 -0.14818497777E+02 -0.12792676211E+02 -0.24489085092E+03  0.27568510552E+03  0.12509000000E+03 0.  0.
         25    1    4    4    0    0 -0.26321470170E+02  0.80408750138E+01 -0.47296697674E+03  0.49000280065E+03  0.12509000000E+03 0.  0.
         25    1    3    3    0    0  0.41139967947E+02  0.47518011967E+01 -0.87825005750E+02  0.15835345374E+03  0.12509000000E+03 0.  0.
<mgrwt>
<rscale>  2 0.45246835E+03</rscale>
<asrwt>0</asrwt>
<pdfrwt beam="1">  1       21 0.87028328E-02 0.45246835E+03</pdfrwt>
<pdfrwt beam="2">  1       21 0.12718560E+00 0.45246835E+03</pdfrwt>
<totfact> 0.43056602E+04</totfact>
</mgrwt>
</event>
<event>
 7    0  0.4705418E-002  0.4498259E+03  0.7546771E-02  0.1027774E+00
         21   -1    0    0  502  501  0.00000000000E+00  0.00000000000E+00  0.14826139531E+03  0.14826139531E+03  0.00000000000E+00 0. -1.
         21   -1    0    0  501  502 -0.00000000000E+00 -0.00000000000E+00 -0.34119354918E+03  0.34119354918E+03  0.00000000000E+00 0. -1.
      99926    2    1    2    0    0  0.00000000000E+00  0.00000000000E+00 -0.19293215387E+03  0.48945494449E+03  0.44982588486E+03 0.  0.
      99925    2    3    3    0    0  0.10106234595E+03 -0.38564758589E+02 -0.11998060082E+03  0.30870573822E+03  0.26306472562E+03 0.  0.
         25    1    3    3    0    0 -0.10106234595E+03  0.38564758589E+02 -0.72951553046E+02  0.18074920627E+03  0.12509000000E+03 0.  0.
         25    1    4    4    0    0  0.25023690560E+02 -0.28290894481E+02 -0.22655225974E+02  0.13261722046E+03  0.12509000000E+03 0.  0.
         25    1    4    4    0    0  0.76038655395E+02 -0.10273864108E+02 -0.97325374846E+02  0.17608851776E+03  0.12509000000E+03 0.  0.
<mgrwt>
<rscale>  2 0.44982588E+03</rscale>
<asrwt>0</asrwt>
<pdfrwt beam="1">  1       21 0.21803147E-01 0.44982588E+03</pdfrwt>
<pdfrwt beam="2">  1       21 0.50175521E-01 0.44982588E+03</pdfrwt>
<totfact> 0.68800922E+04</totfact>
</mgrwt>
</event>
<event>
 7    0  0.4705418E-002  0.3959634E+03  0.7546771E-02  0.1045186E+00
         21   -1    0    0  502  501  0.00000000000E+00  0.00000000000E+00  0.90791109077E+03  0.90791109077E+03  0.00000000000E+00 0.  1.
         21   -1    0    0  501  502 -0.00000000000E+00 -0.00000000000E+00 -0.43172447366E+02  0.43172447366E+02  0.00000000000E+00 0.  1.
      99926    2    1    2    0    0  0.66613381478E-15 -0.71054273576E-14  0.86473864340E+03  0.95108353813E+03  0.39596335072E+03 0.  0.
      99925    2    3    3    0    0 -0.14984140148E+01  0.30807839520E+02  0.53249571134E+03  0.59473505388E+03  0.26307172692E+03 0.  0.
         25    1    4    4    0    0 -0.18370620962E+02 -0.21358150273E+02  0.25087656245E+03  0.28174493426E+03  0.12509000000E+03 0.  0.
         25    1    4    4    0    0  0.16872206947E+02  0.52165989793E+02  0.28161914889E+03  0.31299011962E+03  0.12509000000E+03 0.  0.
         25    1    3    3    0    0  0.14984140148E+01 -0.30807839520E+02  0.33224293206E+03  0.35634848425E+03  0.12509000000E+03 0.  0.
<mgrwt>
<rscale>  2 0.39596335E+03</rscale>
<asrwt>0</asrwt>
<pdfrwt beam="1">  1       21 0.13351632E+00 0.39596335E+03</pdfrwt>
<pdfrwt beam="2">  1       21 0.63488899E-02 0.39596335E+03</pdfrwt>
<totfact> 0.67140497E+04</totfact>
</mgrwt>
</event>
<event>
 7    0  0.4705418E-002  0.4480215E+03  0.7546771E-02  0.1028314E+00
         21   -1    0    0  502  501  0.00000000000E+00  0.00000000000E+00  0.44734709567E+03  0.44734709567E+03  0.00000000000E+00 0.  1.
         21   -1    0    0  501  502 -0.00000000000E+00 -0.00000000000E+00 -0.11217421249E+03  0.11217421249E+03  0.00000000000E+00 0.  1.
      99926    2    1    2    0    0  0.00000000000E+00  0.00000000000E+00  0.33517288318E+03  0.55952130816E+03  0.44802146452E+03 0.  0.
      99925    2    3    3    0    0 -0.24323538328E+02  0.10346367602E+03  0.21800642667E+03  0.35784866896E+03  0.26312069670E+03 0.  0.
         25    1    4    4    0    0 -0.48329766146E+02  0.72922535439E+02  0.12305101279E+03  0.19606764731E+03  0.12509000000E+03 0.  0.
         25    1    3    3    0    0  0.24323538328E+02 -0.10346367602E+03  0.11716645651E+03  0.20167263920E+03  0.12509000000E+03 0.  0.
         25    1    4    4    0    0  0.24006227818E+02  0.30541140583E+02  0.94955413875E+02  0.16178102165E+03  0.12509000000E+03 0.  0.
<mgrwt>
<rscale>  2 0.44802146E+03</rscale>
<asrwt>0</asrwt>
<pdfrwt beam="1">  1       21 0.65786337E-01 0.44802146E+03</pdfrwt>
<pdfrwt beam="2">  1       21 0.16496208E-01 0.44802146E+03</pdfrwt>
<totfact> 0.64742080E+04</totfact>
</mgrwt>
</event>
<event>
 7    0  0.4705418E-002  0.4542881E+03  0.7546771E-02  0.1026451E+00
         21   -1    0    0  502  501  0.00000000000E+00  0.00000000000E+00  0.18650538460E+04  0.18650538460E+04  0.00000000000E+00 0.  1.
         21   -1    0    0  501  502 -0.00000000000E+00 -0.00000000000E+00 -0.27663773492E+02  0.27663773492E+02  0.00000000000E+00 0.  1.
      99926    2    1    2    0    0  0.35527136788E-14  0.00000000000E+00  0.18373900725E+04  0.18927176195E+04  0.45428813389E+03 0.  0.
      99925    2    3    3    0    0  0.23543338888E+02 -0.10337951334E+03  0.10027715617E+04  0.10421430024E+04  0.26319122304E+03 0.  0.
         25    1    3    3    0    0 -0.23543338888E+02  0.10337951334E+03  0.83461851082E+03  0.85057461711E+03  0.12509000000E+03 0.  0.
         25    1    4    4    0    0  0.44244243562E+02 -0.60906106872E+02  0.43530952152E+03  0.45913940646E+03  0.12509000000E+03 0.  0.
         25    1    4    4    0    0 -0.20700904674E+02 -0.42473406468E+02  0.56746204021E+03  0.58300359595E+03  0.12509000000E+03 0.  0.
<mgrwt>
<rscale>  2 0.45428813E+03</rscale>
<asrwt>0</asrwt>
<pdfrwt beam="1">  1       21 0.27427254E+00 0.45428813E+03</pdfrwt>
<pdfrwt beam="2">  1       21 0.40682033E-02 0.45428813E+03</pdfrwt>
<totfact> 0.15627582E+04</totfact>
</mgrwt>
</event>
<event>
 7    0  0.4705418E-002  0.4292173E+03  0.7546771E-02  0.1034108E+00
         21   -1    0    0  502  501  0.00000000000E+00  0.00000000000E+00  0.12687411765E+04  0.12687411765E+04  0.00000000000E+00 0.  1.
         21   -1    0    0  501  502 -0.00000000000E+00 -0.00000000000E+00 -0.36301234148E+02  0.36301234148E+02  0.00000000000E+00 0.  1.
      99926    2    1    2    0    0  0.00000000000E+00 -0.35527136788E-14  0.12324399423E+04  0.13050424106E+04  0.42921729005E+03 0.  0.
      99925    2    3    3    0    0 -0.80110714797E+02 -0.26068669242E+02  0.85860407930E+03  0.90193192611E+03  0.26302648573E+03 0.  0.
         25    1    3    3    0    0  0.80110714797E+02  0.26068669242E+02  0.37383586300E+03  0.40311048449E+03  0.12509000000E+03 0.  0.
         25    1    4    4    0    0 -0.43576753532E+02  0.25373808242E+02  0.46346162051E+03  0.48268721277E+03  0.12509000000E+03 0.  0.
         25    1    4    4    0    0 -0.36533961266E+02 -0.51442477484E+02  0.39514245880E+03  0.41924471334E+03  0.12509000000E+03 0.  0.
<mgrwt>
<rscale>  2 0.42921729E+03</rscale>
<asrwt>0</asrwt>
<pdfrwt beam="1">  1       21 0.18657956E+00 0.42921729E+03</pdfrwt>
<pdfrwt beam="2">  1       21 0.53384176E-02 0.42921729E+03</pdfrwt>
<totfact> 0.35586953E+04</totfact>
</mgrwt>
</event>
<event>
 7    0  0.4705418E-002  0.4233550E+03  0.7546771E-02  0.1035980E+00
         21   -1    0    0  502  501  0.00000000000E+00  0.00000000000E+00  0.22231275703E+04  0.22231275703E+04  0.00000000000E+00 0. -1.
         21   -1    0    0  501  502 -0.00000000000E+00 -0.00000000000E+00 -0.20155101855E+02  0.20155101855E+02  0.00000000000E+00 0. -1.
      99926    2    1    2    0    0  0.00000000000E+00  0.00000000000E+00  0.22029724685E+04  0.22432826722E+04  0.42335499344E+03 0.  0.
      99925    2    3    3    0    0 -0.70241777151E+02 -0.30852315692E+02  0.15423539657E+04  0.15665625772E+04  0.26339472308E+03 0.  0.
         25    1    3    3    0    0  0.70241777151E+02  0.30852315692E+02  0.66061850272E+03  0.67672009492E+03  0.12509000000E+03 0.  0.
         25    1    4    4    0    0 -0.22434648519E+02 -0.49828434387E+02  0.88189474602E+03  0.89239679375E+03  0.12509000000E+03 0.  0.
         25    1    4    4    0    0 -0.47807128632E+02  0.18976118695E+02  0.66045921971E+03  0.67416578349E+03  0.12509000000E+03 0.  0.
<mgrwt>
<rscale>  2 0.42335499E+03</rscale>
<asrwt>0</asrwt>
<pdfrwt beam="1">  1       21 0.32693036E+00 0.42335499E+03</pdfrwt>
<pdfrwt beam="2">  1       21 0.29639871E-02 0.42335499E+03</pdfrwt>
<totfact> 0.13055529E+04</totfact>
</mgrwt>
</event>
<event>
 7    0  0.4705418E-002  0.4091424E+03  0.7546771E-02  0.1040659E+00
         21   -1    0    0  502  501  0.00000000000E+00  0.00000000000E+00  0.58569191492E+02  0.58569191492E+02  0.00000000000E+00 0.  1.
         21   -1    0    0  501  502 -0.00000000000E+00 -0.00000000000E+00 -0.71452867556E+03  0.71452867556E+03  0.00000000000E+00 0.  1.
      99926    2    1    2    0    0  0.35527136788E-14  0.00000000000E+00 -0.65595948407E+03  0.77309786706E+03  0.40914235579E+03 0.  0.
      99925    2    3    3    0    0  0.21060475253E+02 -0.34157571479E+02 -0.51957774940E+03  0.58373639009E+03  0.26301492759E+03 0.  0.
         25    1    3    3    0    0 -0.21060475253E+02  0.34157571479E+02 -0.13638173467E+03  0.18936147697E+03  0.12509000000E+03 0.  0.
         25    1    4    4    0    0 -0.12214425878E+02 -0.49935504017E+02 -0.28088030631E+03  0.31174348643E+03  0.12509000000E+03 0.  0.
         25    1    4    4    0    0  0.33274901131E+02  0.15777932538E+02 -0.23869744309E+03  0.27199290366E+03  0.12509000000E+03 0.  0.
<mgrwt>
<rscale>  2 0.40914236E+03</rscale>
<asrwt>0</asrwt>
<pdfrwt beam="1">  1       21 0.86131166E-02 0.40914236E+03</pdfrwt>
<pdfrwt beam="2">  1       21 0.10507774E+00 0.40914236E+03</pdfrwt>
<totfact> 0.71591797E+04</totfact>
</mgrwt>
</event>
<event>
 7    0  0.4705418E-002  0.4534164E+03  0.7546771E-02  0.1026708E+00
         21   -1    0    0  502  501  0.00000000000E+00  0.00000000000E+00  0.12424324439E+04  0.12424324439E+04  0.00000000000E+00 0.  1.
         21   -1    0    0  501  502 -0.00000000000E+00 -0.00000000000E+00 -0.41367719812E+02  0.41367719812E+02  0.00000000000E+00 0.  1.
      99926    2    1    2    0    0  0.14210854715E-13  0.71054273576E-14  0.12010647241E+04  0.12838001637E+04  0.45341635271E+03 0.  0.
      99925    2    3    3    0    0  0.95586921977E+02  0.39342132154E+02  0.63723014914E+03  0.69707910646E+03  0.26300637763E+03 0.  0.
         25    1    4    4    0    0  0.76450743413E+02  0.44401148864E+02  0.39665878462E+03  0.42520804050E+03  0.12509000000E+03 0.  0.
         25    1    4    4    0    0  0.19136178563E+02 -0.50590167095E+01  0.24057136452E+03  0.27187106596E+03  0.12509000000E+03 0.  0.
         25    1    3    3    0    0 -0.95586921977E+02 -0.39342132154E+02  0.56383457498E+03  0.58672105728E+03  0.12509000000E+03 0.  0.
<mgrwt>
<rscale>  2 0.45341635E+03</rscale>
<asrwt>0</asrwt>
<pdfrwt beam="1">  1       21 0.18271063E+00 0.45341635E+03</pdfrwt>
<pdfrwt beam="2">  1       21 0.60834890E-02 0.45341635E+03</pdfrwt>
<totfact> 0.29956217E+04</totfact>
</mgrwt>
</event>
<event>
 7    0  0.4705418E-002  0.4568559E+03  0.7546771E-02  0.1025697E+00
         21   -1    0    0  502  501  0.00000000000E+00  0.00000000000E+00  0.98689543247E+03  0.98689543247E+03  0.00000000000E+00 0. -1.
         21   -1    0    0  501  502 -0.00000000000E+00 -0.00000000000E+00 -0.52872206015E+02  0.52872206015E+02  0.00000000000E+00 0. -1.
      99926    2    1    2    0    0 -0.71054273576E-14  0.00000000000E+00  0.93402322645E+03  0.10397676385E+04  0.45685594500E+03 0.  0.
      99925    2    3    3    0    0  0.52516257912E+02 -0.68748029292E+02  0.75888343971E+03  0.80780707744E+03  0.26299039988E+03 0.  0.
         25    1    4    4    0    0  0.52447108331E+02 -0.63750469351E+01  0.33511469840E+03  0.36158084792E+03  0.12509000000E+03 0.  0.
         25    1    4    4    0    0  0.69149580867E-01 -0.62372982357E+02  0.42376874131E+03  0.44622622953E+03  0.12509000000E+03 0.  0.
         25    1    3    3    0    0 -0.52516257912E+02  0.68748029292E+02  0.17513978675E+03  0.23196056104E+03  0.12509000000E+03 0.  0.
<mgrwt>
<rscale>  2 0.45685595E+03</rscale>
<asrwt>0</asrwt>
<pdfrwt beam="1">  1       21 0.14513167E+00 0.45685595E+03</pdfrwt>
<pdfrwt beam="2">  1       21 0.77753250E-02 0.45685595E+03</pdfrwt>
<totfact> 0.37114479E+04</totfact>
</mgrwt>
</event>
<event>
 7    0  0.4705418E-002  0.4541236E+03  0.7546771E-02  0.1026499E+00
         21   -1    0    0  502  501  0.00000000000E+00  0.00000000000E+00  0.28783847730E+03  0.28783847730E+03  0.00000000000E+00 0. -1.
         21   -1    0    0  501  502 -0.00000000000E+00 -0.00000000000E+00 -0.17911799378E+03  0.17911799378E+03  0.00000000000E+00 0. -1.
      99926    2    1    2    0    0  0.00000000000E+00 -0.72164496601E-15  0.10872048352E+03  0.46695647108E+03  0.45412355406E+03 0.  0.
      99925    2    3    3    0    0  0.11213643467E+03 -0.41114340390E+00  0.60792107265E+02  0.29225848492E+03  0.26295359416E+03 0.  0.
         25    1    4    4    0    0  0.81052584087E+02 -0.29203484195E+02  0.49301095443E+02  0.15968866894E+03  0.12509000000E+03 0.  0.
         25    1    4    4    0    0  0.31083850585E+02  0.28792340791E+02  0.11491011823E+02  0.13256981598E+03  0.12509000000E+03 0.  0.
         25    1    3    3    0    0 -0.11213643467E+03  0.41114340390E+00  0.47928376251E+02  0.17469798616E+03  0.12509000000E+03 0.  0.
<mgrwt>
<rscale>  2 0.45412355E+03</rscale>
<asrwt>0</asrwt>
<pdfrwt beam="1">  1       21 0.42329188E-01 0.45412355E+03</pdfrwt>
<pdfrwt beam="2">  1       21 0.26340881E-01 0.45412355E+03</pdfrwt>
<totfact> 0.68135365E+04</totfact>
</mgrwt>
</event>
<event>
 7    0  0.4705418E-002  0.4492656E+03  0.7546771E-02  0.1027941E+00
         21   -1    0    0  502  501  0.00000000000E+00  0.00000000000E+00  0.22616155874E+03  0.22616155874E+03  0.00000000000E+00 0. -1.
         21   -1    0    0  501  502 -0.00000000000E+00 -0.00000000000E+00 -0.22311442179E+03  0.22311442179E+03  0.00000000000E+00 0. -1.
      99926    2    1    2    0    0  0.00000000000E+00  0.00000000000E+00  0.30471369445E+01  0.44927598053E+03  0.44926564707E+03 0.  0.
      99925    2    3    3    0    0 -0.25327055962E+02  0.53921002524E+02  0.91644185216E+02  0.28481966615E+03  0.26301074363E+03 0.  0.
         25    1    3    3    0    0  0.25327055962E+02 -0.53921002524E+02 -0.88597048271E+02  0.16445631438E+03  0.12509000000E+03 0.  0.
         25    1    4    4    0    0  0.11632271659E+02  0.10367413671E+01  0.65428332875E+02  0.14165013032E+03  0.12509000000E+03 0.  0.
         25    1    4    4    0    0 -0.36959327621E+02  0.52884261157E+02  0.26215852340E+02  0.14316953583E+03  0.12509000000E+03 0.  0.
<mgrwt>
<rscale>  2 0.44926565E+03</rscale>
<asrwt>0</asrwt>
<pdfrwt beam="1">  1       21 0.33259053E-01 0.44926565E+03</pdfrwt>
<pdfrwt beam="2">  1       21 0.32810944E-01 0.44926565E+03</pdfrwt>
<totfact> 0.72215194E+04</totfact>
</mgrwt>
</event>
<event>
 7    0  0.4705418E-002  0.4574750E+03  0.7546771E-02  0.1025516E+00
         21   -1    0    0  502  501  0.00000000000E+00  0.00000000000E+00  0.38463564913E+03  0.38463564913E+03  0.00000000000E+00 0. -1.
         21   -1    0    0  501  502 -0.00000000000E+00 -0.00000000000E+00 -0.13602704797E+03  0.13602704797E+03  0.00000000000E+00 0. -1.
      99926    2    1    2    0    0  0.00000000000E+00  0.00000000000E+00  0.24860860116E+03  0.52066269711E+03  0.45747503493E+03 0.  0.
      99925    2    3    3    0    0 -0.11095267873E+03  0.26124863551E+02  0.13406073277E+03  0.31630583359E+03  0.26283853386E+03 0.  0.
         25    1    4    4    0    0 -0.92293326042E+02  0.50293938259E+01  0.95063845320E+02  0.18228547836E+03  0.12509000000E+03 0.  0.
         25    1    4    4    0    0 -0.18659352684E+02  0.21095469725E+02  0.38996887452E+02  0.13402035523E+03  0.12509000000E+03 0.  0.
         25    1    3    3    0    0  0.11095267873E+03 -0.26124863551E+02  0.11454786839E+03  0.20435686351E+03  0.12509000000E+03 0.  0.
<mgrwt>
<rscale>  2 0.45747503E+03</rscale>
<asrwt>0</asrwt>
<pdfrwt beam="1">  1       21 0.56564066E-01 0.45747503E+03</pdfrwt>
<pdfrwt beam="2">  1       21 0.20003978E-01 0.45747503E+03</pdfrwt>
<totfact> 0.62603733E+04</totfact>
</mgrwt>
</event>
<event>
 7    0  0.4705418E-002  0.4509251E+03  0.7546771E-02  0.1027447E+00
         21   -1    0    0  502  501  0.00000000000E+00  0.00000000000E+00  0.11739346849E+04  0.11739346849E+04  0.00000000000E+00 0.  1.
         21   -1    0    0  501  502 -0.00000000000E+00 -0.00000000000E+00 -0.43301688551E+02  0.43301688551E+02  0.00000000000E+00 0.  1.
      99926    2    1    2    0    0  0.71054273576E-14  0.00000000000E+00  0.11306329964E+04  0.12172363735E+04  0.45092506741E+03 0.  0.
      99925    2    3    3    0    0 -0.46940779047E+02  0.85945980773E+02  0.84519402695E+03  0.89056672120E+03  0.26299428392E+03 0.  0.
         25    1    4    4    0    0 -0.64005537499E+02  0.43010606633E+02  0.42129187266E+03  0.44618490694E+03  0.12509000000E+03 0.  0.
         25    1    4    4    0    0  0.17064758452E+02  0.42935374140E+02  0.42390215429E+03  0.44438181426E+03  0.12509000000E+03 0.  0.
         25    1    3    3    0    0  0.46940779047E+02 -0.85945980773E+02  0.28543896940E+03  0.32666965225E+03  0.12509000000E+03 0.  0.
<mgrwt>
<rscale>  2 0.45092507E+03</rscale>
<asrwt>0</asrwt>
<pdfrwt beam="1">  1       21 0.17263743E+00 0.45092507E+03</pdfrwt>
<pdfrwt beam="2">  1       21 0.63678962E-02 0.45092507E+03</pdfrwt>
<totfact> 0.32637997E+04</totfact>
</mgrwt>
</event>
<event>
 7    0  0.4705418E-002  0.4609605E+03  0.7546771E-02  0.1024503E+00
         21   -1    0    0  502  501  0.00000000000E+00  0.00000000000E+00  0.71635331587E+02  0.71635331587E+02  0.00000000000E+00 0. -1.
         21   -1    0    0  501  502 -0.00000000000E+00 -0.00000000000E+00 -0.74154955777E+03  0.74154955777E+03  0.00000000000E+00 0. -1.
      99926    2    1    2    0    0  0.88817841970E-15  0.00000000000E+00 -0.66991422619E+03  0.81318488936E+03  0.46096051223E+03 0.  0.
      99925    2    3    3    0    0  0.75460719071E+01 -0.66222806285E+02 -0.24593440221E+03  0.36614036975E+03  0.26293085954E+03 0.  0.
         25    1    3    3    0    0 -0.75460719071E+01  0.66222806285E+02 -0.42397982398E+03  0.44704451961E+03  0.12509000000E+03 0.  0.
         25    1    4    4    0    0  0.20665719006E+02  0.45485997948E+01 -0.11890534526E+03  0.17387855225E+03  0.12509000000E+03 0.  0.
         25    1    4    4    0    0 -0.13119647099E+02 -0.70771406080E+02 -0.12702905695E+03  0.19226181750E+03  0.12509000000E+03 0.  0.
<mgrwt>
<rscale>  2 0.46096051E+03</rscale>
<asrwt>0</asrwt>
<pdfrwt beam="1">  1       21 0.10534607E-01 0.46096051E+03</pdfrwt>
<pdfrwt beam="2">  1       21 0.10905141E+00 0.46096051E+03</pdfrwt>
<totfact> 0.44992084E+04</totfact>
</mgrwt>
</event>
<event>
 7    0  0.4705418E-002  0.4571617E+03  0.7546771E-02  0.1025608E+00
         21   -1    0    0  502  501  0.00000000000E+00  0.00000000000E+00  0.88755322296E+02  0.88755322296E+02  0.00000000000E+00 0. -1.
         21   -1    0    0  501  502 -0.00000000000E+00 -0.00000000000E+00 -0.58868814378E+03  0.58868814378E+03  0.00000000000E+00 0. -1.
      99926    2    1    2    0    0  0.14210854715E-13  0.00000000000E+00 -0.49993282149E+03  0.67744346608E+03  0.45716170414E+03 0.  0.
      99925    2    3    3    0    0 -0.10220017674E+03 -0.37210021813E+02 -0.37005144064E+03  0.46685822671E+03  0.26303815935E+03 0.  0.
         25    1    4    4    0    0 -0.83034517924E+02 -0.13604963552E+02 -0.24315054705E+03  0.28609355608E+03  0.12509000000E+03 0.  0.
         25    1    4    4    0    0 -0.19165658820E+02 -0.23605058261E+02 -0.12690089359E+03  0.18076467063E+03  0.12509000000E+03 0.  0.
         25    1    3    3    0    0  0.10220017674E+03  0.37210021813E+02 -0.12988138084E+03  0.21058523937E+03  0.12509000000E+03 0.  0.
<mgrwt>
<rscale>  2 0.45716170E+03</rscale>
<asrwt>0</asrwt>
<pdfrwt beam="1">  1       21 0.13052253E-01 0.45716170E+03</pdfrwt>
<pdfrwt beam="2">  1       21 0.86571785E-01 0.45716170E+03</pdfrwt>
<totfact> 0.53232677E+04</totfact>
</mgrwt>
</event>
<event>
 7    0  0.4705418E-002  0.4569123E+03  0.7546771E-02  0.1025681E+00
         21   -1    0    0  502  501  0.00000000000E+00  0.00000000000E+00  0.10773461681E+03  0.10773461681E+03  0.00000000000E+00 0.  1.
         21   -1    0    0  501  502 -0.00000000000E+00 -0.00000000000E+00 -0.48445156519E+03  0.48445156519E+03  0.00000000000E+00 0.  1.
      99926    2    1    2    0    0  0.00000000000E+00  0.00000000000E+00 -0.37671694838E+03  0.59218618199E+03  0.45691226176E+03 0.  0.
      99925    2    3    3    0    0  0.89853832462E+02 -0.32949288061E+02 -0.31914051215E+03  0.42449026403E+03  0.26302462046E+03 0.  0.
         25    1    4    4    0    0  0.68996213647E+02  0.36163357925E+01 -0.20562986728E+03  0.25040907691E+03  0.12509000000E+03 0.  0.
         25    1    4    4    0    0  0.20857618815E+02 -0.36565623853E+02 -0.11351064488E+03  0.17408118712E+03  0.12509000000E+03 0.  0.
         25    1    3    3    0    0 -0.89853832462E+02  0.32949288061E+02 -0.57576436224E+02  0.16769591796E+03  0.12509000000E+03 0.  0.
<mgrwt>
<rscale>  2 0.45691226E+03</rscale>
<asrwt>0</asrwt>
<pdfrwt beam="1">  1       21 0.15843326E-01 0.45691226E+03</pdfrwt>
<pdfrwt beam="2">  1       21 0.71242877E-01 0.45691226E+03</pdfrwt>
<totfact> 0.58276102E+04</totfact>
</mgrwt>
</event>
<event>
 7    0  0.4705418E-002  0.4531336E+03  0.7546771E-02  0.1026792E+00
         21   -1    0    0  502  501  0.00000000000E+00  0.00000000000E+00  0.13434125833E+03  0.13434125833E+03  0.00000000000E+00 0. -1.
         21   -1    0    0  501  502 -0.00000000000E+00 -0.00000000000E+00 -0.38210534453E+03  0.38210534453E+03  0.00000000000E+00 0. -1.
      99926    2    1    2    0    0 -0.26645352591E-14  0.00000000000E+00 -0.24776408620E+03  0.51644660286E+03  0.45313359089E+03 0.  0.
      99925    2    3    3    0    0  0.26062712851E+01  0.95551810416E+02 -0.22133518373E+03  0.35681284669E+03  0.26303840571E+03 0.  0.
         25    1    3    3    0    0 -0.26062712851E+01 -0.95551810416E+02 -0.26428902468E+02  0.15963375617E+03  0.12509000000E+03 0.  0.
         25    1    4    4    0    0  0.38926157670E+02  0.31765940164E+02 -0.10402381808E+03  0.17027267406E+03  0.12509000000E+03 0.  0.
         25    1    4    4    0    0 -0.36319886385E+02  0.63785870252E+02 -0.11731136565E+03  0.18654017262E+03  0.12509000000E+03 0.  0.
<mgrwt>
<rscale>  2 0.45313359E+03</rscale>
<asrwt>0</asrwt>
<pdfrwt beam="1">  1       21 0.19756067E-01 0.45313359E+03</pdfrwt>
<pdfrwt beam="2">  1       21 0.56191963E-01 0.45313359E+03</pdfrwt>
<totfact> 0.65088576E+04</totfact>
</mgrwt>
</event>
<event>
 7    0  0.4705418E-002  0.4486958E+03  0.7546771E-02  0.1028112E+00
         21   -1    0    0  502  501  0.00000000000E+00  0.00000000000E+00  0.26171467290E+03  0.26171467290E+03  0.00000000000E+00 0. -1.
         21   -1    0    0  501  502 -0.00000000000E+00 -0.00000000000E+00 -0.19231623419E+03  0.19231623419E+03  0.00000000000E+00 0. -1.
      99926    2    1    2    0    0  0.00000000000E+00  0.00000000000E+00  0.69398438712E+02  0.45403090709E+03  0.44869580040E+03 0.  0.
      99925    2    3    3    0    0  0.65626299597E+02  0.70255070009E+02 -0.39159553952E+01  0.28006224743E+03  0.26301509779E+03 0.  0.
         25    1    4    4    0    0  0.55065256445E+02  0.71519481229E+02 -0.79011192177E+01  0.15445761376E+03  0.12509000000E+03 0.  0.
         25    1    4    4    0    0  0.10561043151E+02 -0.12644112199E+01  0.39851638224E+01  0.12560463367E+03  0.12509000000E+03 0.  0.
         25    1    3    3    0    0 -0.65626299597E+02 -0.70255070009E+02  0.73314394107E+02  0.17396865966E+03  0.12509000000E+03 0.  0.
<mgrwt>
<rscale>  2 0.44869580E+03</rscale>
<asrwt>0</asrwt>
<pdfrwt beam="1">  1       21 0.38487452E-01 0.44869580E+03</pdfrwt>
<pdfrwt beam="2">  1       21 0.28281799E-01 0.44869580E+03</pdfrwt>
<totfact> 0.72178760E+04</totfact>
</mgrwt>
</event>
<event>
 7    0  0.4705418E-002  0.4465406E+03  0.7546771E-02  0.1028759E+00
         21   -1    0    0  502  501  0.00000000000E+00  0.00000000000E+00  0.41931326282E+03  0.41931326282E+03  0.00000000000E+00 0.  1.
         21   -1    0    0  501  502 -0.00000000000E+00 -0.00000000000E+00 -0.11888396163E+03  0.11888396163E+03  0.00000000000E+00 0.  1.
      99926    2    1    2    0    0  0.00000000000E+00 -0.71054273576E-14  0.30042930119E+03  0.53819722446E+03  0.44654057755E+03 0.  0.
      99925    2    3    3    0    0  0.85478116114E+02 -0.45466768614E+02  0.14154340817E+03  0.31399648743E+03  0.26303140942E+03 0.  0.
         25    1    4    4    0    0  0.50863405041E+02  0.11377956904E+02  0.46035223796E+02  0.14311985818E+03  0.12509000000E+03 0.  0.
         25    1    4    4    0    0  0.34614711073E+02 -0.56844725518E+02  0.95508184378E+02  0.17087662925E+03  0.12509000000E+03 0.  0.
         25    1    3    3    0    0 -0.85478116114E+02  0.45466768614E+02  0.15888589301E+03  0.22420073702E+03  0.12509000000E+03 0.  0.
<mgrwt>
<rscale>  2 0.44654058E+03</rscale>
<asrwt>0</asrwt>
<pdfrwt beam="1">  1       21 0.61663715E-01 0.44654058E+03</pdfrwt>
<pdfrwt beam="2">  1       21 0.17482936E-01 0.44654058E+03</pdfrwt>
<totfact> 0.67029365E+04</totfact>
</mgrwt>
</event>
<event>
 7    0  0.4705418E-002  0.4488744E+03  0.7546771E-02  0.1028058E+00
         21   -1    0    0  502  501  0.00000000000E+00  0.00000000000E+00  0.68494625208E+02  0.68494625208E+02  0.00000000000E+00 0. -1.
         21   -1    0    0  501  502 -0.00000000000E+00 -0.00000000000E+00 -0.73541609435E+03  0.73541609435E+03  0.00000000000E+00 0. -1.
      99926    2    1    2    0    0  0.00000000000E+00  0.17763568394E-14 -0.66692146914E+03  0.80391071956E+03  0.44887436886E+03 0.  0.
      99925    2    3    3    0    0 -0.89416971691E+02  0.85305938079E+01 -0.52763087494E+03  0.59626307669E+03  0.26280629858E+03 0.  0.
         25    1    4    4    0    0 -0.85347864106E+02  0.15699392132E+02 -0.28036173821E+03  0.31903125422E+03  0.12509000000E+03 0.  0.
         25    1    3    3    0    0  0.89416971691E+02 -0.85305938079E+01 -0.13929059420E+03  0.20764764287E+03  0.12509000000E+03 0.  0.
         25    1    4    4    0    0 -0.40691075856E+01 -0.71687983238E+01 -0.24726913673E+03  0.27723182246E+03  0.12509000000E+03 0.  0.
<mgrwt>
<rscale>  2 0.44887437E+03</rscale>
<asrwt>0</asrwt>
<pdfrwt beam="1">  1       21 0.10072739E-01 0.44887437E+03</pdfrwt>
<pdfrwt beam="2">  1       21 0.10814943E+00 0.44887437E+03</pdfrwt>
<totfact> 0.49933696E+04</totfact>
</mgrwt>
</event>
<event>
 7    0  0.4705418E-002  0.4568194E+03  0.7546771E-02  0.1025708E+00
         21   -1    0    0  502  501  0.00000000000E+00  0.00000000000E+00  0.58817844301E+03  0.58817844301E+03  0.00000000000E+00 0. -1.
         21   -1    0    0  501  502 -0.00000000000E+00 -0.00000000000E+00 -0.88699270029E+02  0.88699270029E+02  0.00000000000E+00 0. -1.
      99926    2    1    2    0    0  0.00000000000E+00 -0.14210854715E-13  0.49947917298E+03  0.67687771304E+03  0.45681943278E+03 0.  0.
      99925    2    3    3    0    0 -0.27502545302E+02 -0.96010954232E+02  0.22980379039E+03  0.36327475800E+03  0.26302903717E+03 0.  0.
         25    1    4    4    0    0 -0.19161918831E+02 -0.68565387411E+01  0.11732350528E+03  0.17270351545E+03  0.12509000000E+03 0.  0.
         25    1    4    4    0    0 -0.83406264702E+01 -0.89154415491E+02  0.11248028511E+03  0.19057124256E+03  0.12509000000E+03 0.  0.
         25    1    3    3    0    0  0.27502545302E+02  0.96010954232E+02  0.26967538259E+03  0.31360295503E+03  0.12509000000E+03 0.  0.
<mgrwt>
<rscale>  2 0.45681943E+03</rscale>
<asrwt>0</asrwt>
<pdfrwt beam="1">  1       21 0.86496828E-01 0.45681943E+03</pdfrwt>
<pdfrwt beam="2">  1       21 0.13044011E-01 0.45681943E+03</pdfrwt>
<totfact> 0.53406995E+04</totfact>
</mgrwt>
</event>
<event>
 7    0  0.4705418E-002  0.4496331E+03  0.7546771E-02  0.1027832E+00
         21   -1    0    0  502  501  0.00000000000E+00  0.00000000000E+00  0.63169833719E+03  0.63169833719E+03  0.00000000000E+00 0.  1.
         21   -1    0    0  501  502 -0.00000000000E+00 -0.00000000000E+00 -0.80010471179E+02  0.80010471179E+02  0.00000000000E+00 0.  1.
      99926    2    1    2    0    0  0.00000000000E+00  0.00000000000E+00  0.55168786602E+03  0.71170880837E+03  0.44963310199E+03 0.  0.
      99925    2    3    3    0    0  0.67506943971E+02  0.83876388275E+02  0.36288302145E+03  0.46093557730E+03  0.26303057458E+03 0.  0.
         25    1    4    4    0    0  0.49580973200E+02  0.79107627337E+02  0.17545852337E+03  0.23483928788E+03  0.12509000000E+03 0.  0.
         25    1    3    3    0    0 -0.67506943971E+02 -0.83876388275E+02  0.18880484456E+03  0.25077323108E+03  0.12509000000E+03 0.  0.
         25    1    4    4    0    0  0.17925970770E+02  0.47687609381E+01  0.18742449808E+03  0.22609628942E+03  0.12509000000E+03 0.  0.
<mgrwt>
<rscale>  2 0.44963310E+03</rscale>
<asrwt>0</asrwt>
<pdfrwt beam="1">  1       21 0.92896812E-01 0.44963310E+03</pdfrwt>
<pdfrwt beam="2">  1       21 0.11766246E-01 0.44963310E+03</pdfrwt>
<totfact> 0.54538400E+04</totfact>
</mgrwt>
</event>
<event>
 7    0  0.4705418E-002  0.4577777E+03  0.7546771E-02  0.1025428E+00
         21   -1    0    0  502  501  0.00000000000E+00  0.00000000000E+00  0.79767748696E+02  0.79767748696E+02  0.00000000000E+00 0. -1.
         21   -1    0    0  501  502 -0.00000000000E+00 -0.00000000000E+00 -0.65678305793E+03  0.65678305793E+03  0.00000000000E+00 0. -1.
      99926    2    1    2    0    0  0.14210854715E-13  0.00000000000E+00 -0.57701530923E+03  0.73655080662E+03  0.45777770113E+03 0.  0.
      99925    2    3    3    0    0 -0.11221796257E+03  0.18726472430E+02 -0.39651941046E+03  0.48922545518E+03  0.26300256887E+03 0.  0.
         25    1    4    4    0    0 -0.25224220777E+02  0.18441716670E+02 -0.13586815969E+03  0.18730729603E+03  0.12509000000E+03 0.  0.
         25    1    3    3    0    0  0.11221796257E+03 -0.18726472430E+02 -0.18049589877E+03  0.24732535144E+03  0.12509000000E+03 0.  0.
         25    1    4    4    0    0 -0.86993741796E+02  0.28475576057E+00 -0.26065125077E+03  0.30191815915E+03  0.12509000000E+03 0.  0.
<mgrwt>
<rscale>  2 0.45777770E+03</rscale>
<asrwt>0</asrwt>
<pdfrwt beam="1">  1       21 0.11730551E-01 0.45777770E+03</pdfrwt>
<pdfrwt beam="2">  1       21 0.96585747E-01 0.45777770E+03</pdfrwt>
<totfact> 0.49865066E+04</totfact>
</mgrwt>
</event>
<event>
 7    0  0.4705418E-002  0.4496761E+03  0.7546771E-02  0.1027819E+00
         21   -1    0    0  502  501  0.00000000000E+00  0.00000000000E+00  0.68250710209E+02  0.68250710209E+02  0.00000000000E+00 0.  1.
         21   -1    0    0  501  502 -0.00000000000E+00 -0.00000000000E+00 -0.74068311334E+03  0.74068311334E+03  0.00000000000E+00 0.  1.
      99926    2    1    2    0    0 -0.35527136788E-14  0.00000000000E+00 -0.67243240313E+03  0.80893382355E+03  0.44967609910E+03 0.  0.
      99925    2    3    3    0    0  0.99706707245E+01 -0.84260374836E+02 -0.54498505197E+03  0.61122302349E+03  0.26341156491E+03 0.  0.
         25    1    4    4    0    0 -0.32439064535E+02 -0.36771283419E+02 -0.22976638448E+03  0.26616633846E+03  0.12509000000E+03 0.  0.
         25    1    3    3    0    0 -0.99706707245E+01  0.84260374836E+02 -0.12744735116E+03  0.19771080006E+03  0.12509000000E+03 0.  0.
         25    1    4    4    0    0  0.42409735260E+02 -0.47489091416E+02 -0.31521866750E+03  0.34505668503E+03  0.12509000000E+03 0.  0.
<mgrwt>
<rscale>  2 0.44967610E+03</rscale>
<asrwt>0</asrwt>
<pdfrwt beam="1">  1       21 0.10036870E-01 0.44967610E+03</pdfrwt>
<pdfrwt beam="2">  1       21 0.10892398E+00 0.44967610E+03</pdfrwt>
<totfact> 0.49366068E+04</totfact>
</mgrwt>
</event>
<event>
 7    0  0.4705418E-002  0.4556277E+03  0.7546771E-02  0.1026057E+00
         21   -1    0    0  502  501  0.00000000000E+00  0.00000000000E+00  0.65443714905E+02  0.65443714905E+02  0.00000000000E+00 0. -1.
         21   -1    0    0  501  502 -0.00000000000E+00 -0.00000000000E+00 -0.79303482602E+03  0.79303482602E+03  0.00000000000E+00 0. -1.
      99926    2    1    2    0    0  0.00000000000E+00 -0.71054273576E-14 -0.72759111112E+03  0.85847854093E+03  0.45562767723E+03 0.  0.
      99925    2    3    3    0    0 -0.47366313653E+02  0.40244277249E+02 -0.27782442982E+03  0.38752127617E+03  0.26291282997E+03 0.  0.
         25    1    4    4    0    0 -0.38524039802E+02 -0.16794397516E+02 -0.14691260612E+03  0.19747651852E+03  0.12509000000E+03 0.  0.
         25    1    4    4    0    0 -0.88422738507E+01  0.57038674765E+02 -0.13091182370E+03  0.19004475765E+03  0.12509000000E+03 0.  0.
         25    1    3    3    0    0  0.47366313653E+02 -0.40244277249E+02 -0.44976668129E+03  0.47095726475E+03  0.12509000000E+03 0.  0.
<mgrwt>
<rscale>  2 0.45562768E+03</rscale>
<asrwt>0</asrwt>
<pdfrwt beam="1">  1       21 0.96240766E-02 0.45562768E+03</pdfrwt>
<pdfrwt beam="2">  1       21 0.11662276E+00 0.45562768E+03</pdfrwt>
<totfact> 0.44841258E+04</totfact>
</mgrwt>
</event>
<event>
 7    0  0.4705418E-002  0.4590625E+03  0.7546771E-02  0.1025053E+00
         21   -1    0    0  502  501  0.00000000000E+00  0.00000000000E+00  0.49781513588E+03  0.49781513588E+03  0.00000000000E+00 0. -1.
         21   -1    0    0  501  502 -0.00000000000E+00 -0.00000000000E+00 -0.10583164570E+03  0.10583164570E+03  0.00000000000E+00 0. -1.
      99926    2    1    2    0    0  0.00000000000E+00  0.35527136788E-14  0.39198349018E+03  0.60364678158E+03  0.45906250157E+03 0.  0.
      99925    2    3    3    0    0 -0.94079360097E+02 -0.16297765776E+02  0.33467212452E+03  0.43616948790E+03  0.26291034228E+03 0.  0.
         25    1    4    4    0    0 -0.70978690187E+02  0.22519885723E+02  0.19446685290E+03  0.24291970832E+03  0.12509000000E+03 0.  0.
         25    1    3    3    0    0  0.94079360097E+02  0.16297765776E+02  0.57311365658E+02  0.16747729368E+03  0.12509000000E+03 0.  0.
         25    1    4    4    0    0 -0.23100669910E+02 -0.38817651499E+02  0.14020527162E+03  0.19324977958E+03  0.12509000000E+03 0.  0.
<mgrwt>
<rscale>  2 0.45906250E+03</rscale>
<asrwt>0</asrwt>
<pdfrwt beam="1">  1       21 0.73208107E-01 0.45906250E+03</pdfrwt>
<pdfrwt beam="2">  1       21 0.15563478E-01 0.45906250E+03</pdfrwt>
<totfact> 0.56615231E+04</totfact>
</mgrwt>
</event>
<event>
 7    0  0.4705418E-002  0.4797709E+03  0.7546771E-02  0.1019198E+00
         21   -1    0    0  502  501  0.00000000000E+00  0.00000000000E+00  0.21603826957E+03  0.21603826957E+03  0.00000000000E+00 0.  1.
         21   -1    0    0  501  502 -0.00000000000E+00 -0.00000000000E+00 -0.26636493428E+03  0.26636493428E+03  0.00000000000E+00 0.  1.
      99926    2    1    2    0    0  0.17763568394E-14 -0.14210854715E-13 -0.50326664704E+02  0.48240320385E+03  0.47977085979E+03 0.  0.
      99925    2    3    3    0    0 -0.14514439314E+02  0.78566744635E+02  0.78535692589E+02  0.28584171846E+03  0.26297191997E+03 0.  0.
         25    1    4    4    0    0 -0.17729587948E+02  0.28421339230E+02  0.77728503116E+02  0.15103423158E+03  0.12509000000E+03 0.  0.
         25    1    3    3    0    0  0.14514439314E+02 -0.78566744635E+02 -0.12886235729E+03  0.19656148539E+03  0.12509000000E+03 0.  0.
         25    1    4    4    0    0  0.32151486339E+01  0.50145405405E+02  0.80718947222E+00  0.13480748688E+03  0.12509000000E+03 0.  0.
<mgrwt>
<rscale>  2 0.47977086E+03</rscale>
<asrwt>0</asrwt>
<pdfrwt beam="1">  1       21 0.31770334E-01 0.47977086E+03</pdfrwt>
<pdfrwt beam="2">  1       21 0.39171314E-01 0.47977086E+03</pdfrwt>
<totfact> 0.54903135E+04</totfact>
</mgrwt>
</event>
<event>
 7    0  0.4705418E-002  0.4520868E+03  0.7546771E-02  0.1027102E+00
         21   -1    0    0  502  501  0.00000000000E+00  0.00000000000E+00  0.30113200421E+02  0.30113200421E+02  0.00000000000E+00 0. -1.
         21   -1    0    0  501  502 -0.00000000000E+00 -0.00000000000E+00 -0.16967848398E+04  0.16967848398E+04  0.00000000000E+00 0. -1.
      99926    2    1    2    0    0  0.17763568394E-14 -0.71054273576E-14 -0.16666716393E+04  0.17268980402E+04  0.45208681446E+03 0.  0.
      99925    2    3    3    0    0 -0.11125761500E+02  0.60052705647E+02 -0.70027627854E+03  0.75052843214E+03  0.26301321478E+03 0.  0.
         25    1    4    4    0    0 -0.28332032604E+02  0.12094736867E+02 -0.42162040520E+03  0.44086308635E+03  0.12509000000E+03 0.  0.
         25    1    4    4    0    0  0.17206271103E+02  0.47957968780E+02 -0.27865587334E+03  0.30966534579E+03  0.12509000000E+03 0.  0.
         25    1    3    3    0    0  0.11125761500E+02 -0.60052705647E+02 -0.96639536081E+03  0.97636960805E+03  0.12509000000E+03 0.  0.
<mgrwt>
<rscale>  2 0.45208681E+03</rscale>
<asrwt>0</asrwt>
<pdfrwt beam="1">  1       21 0.44284119E-02 0.45208681E+03</pdfrwt>
<pdfrwt beam="2">  1       21 0.24952718E+00 0.45208681E+03</pdfrwt>
<totfact> 0.19136482E+04</totfact>
</mgrwt>
</event>
<event>
 7    0  0.4705418E-002  0.4544596E+03  0.7546771E-02  0.1026400E+00
         21   -1    0    0  502  501  0.00000000000E+00  0.00000000000E+00  0.11372619136E+03  0.11372619136E+03  0.00000000000E+00 0. -1.
         21   -1    0    0  501  502 -0.00000000000E+00 -0.00000000000E+00 -0.45401493547E+03  0.45401493547E+03  0.00000000000E+00 0. -1.
      99926    2    1    2    0    0  0.00000000000E+00  0.00000000000E+00 -0.34028874411E+03  0.56774112682E+03  0.45445963266E+03 0.  0.
      99925    2    3    3    0    0  0.85624538092E+02  0.15773803558E+02 -0.30366489929E+03  0.41099550962E+03  0.26291550632E+03 0.  0.
         25    1    4    4    0    0  0.56271236960E+02 -0.30274982144E+02 -0.15450348023E+03  0.20881058439E+03  0.12509000000E+03 0.  0.
         25    1    3    3    0    0 -0.85624538092E+02 -0.15773803558E+02 -0.36623844819E+02  0.15674561720E+03  0.12509000000E+03 0.  0.
         25    1    4    4    0    0  0.29353301132E+02  0.46048785701E+02 -0.14916141907E+03  0.20218492523E+03  0.12509000000E+03 0.  0.
<mgrwt>
<rscale>  2 0.45445963E+03</rscale>
<asrwt>0</asrwt>
<pdfrwt beam="1">  1       21 0.16724440E-01 0.45445963E+03</pdfrwt>
<pdfrwt beam="2">  1       21 0.66766903E-01 0.45445963E+03</pdfrwt>
<totfact> 0.60969291E+04</totfact>
</mgrwt>
</event>
<event>
 7    0  0.4705418E-002  0.4569561E+03  0.7546771E-02  0.1025668E+00
         21   -1    0    0  502  501  0.00000000000E+00  0.00000000000E+00  0.76807562928E+02  0.76807562928E+02  0.00000000000E+00 0. -1.
         21   -1    0    0  501  502 -0.00000000000E+00 -0.00000000000E+00 -0.67964953491E+03  0.67964953491E+03  0.00000000000E+00 0. -1.
      99926    2    1    2    0    0  0.71054273576E-14  0.14210854715E-13 -0.60284197198E+03  0.75645709783E+03  0.45695612228E+03 0.  0.
      99925    2    3    3    0    0  0.46655295600E+02  0.93160313029E+02 -0.29769596063E+03  0.41059996422E+03  0.26289519796E+03 0.  0.
         25    1    4    4    0    0 -0.12002984780E+02  0.29267462413E+02 -0.11536945323E+03  0.17308458868E+03  0.12509000000E+03 0.  0.
         25    1    3    3    0    0 -0.46655295600E+02 -0.93160313029E+02 -0.30514601135E+03  0.34585713362E+03  0.12509000000E+03 0.  0.
         25    1    4    4    0    0  0.58658280379E+02  0.63892850616E+02 -0.18232650740E+03  0.23751537554E+03  0.12509000000E+03 0.  0.
<mgrwt>
<rscale>  2 0.45695612E+03</rscale>
<asrwt>0</asrwt>
<pdfrwt beam="1">  1       21 0.11295231E-01 0.45695612E+03</pdfrwt>
<pdfrwt beam="2">  1       21 0.99948455E-01 0.45695612E+03</pdfrwt>
<totfact> 0.49182262E+04</totfact>
</mgrwt>
</event>
<event>
 7    0  0.4705418E-002  0.4517187E+03  0.7546771E-02  0.1027211E+00
         21   -1    0    0  502  501  0.00000000000E+00  0.00000000000E+00  0.50894695066E+03  0.50894695066E+03  0.00000000000E+00 0.  1.
         21   -1    0    0  501  502 -0.00000000000E+00 -0.00000000000E+00 -0.10023137018E+03  0.10023137018E+03  0.00000000000E+00 0.  1.
      99926    2    1    2    0    0  0.00000000000E+00 -0.13322676296E-14  0.40871558047E+03  0.60917832084E+03  0.45171871874E+03 0.  0.
      99925    2    3    3    0    0 -0.93214383231E+02 -0.32015271679E+01  0.18249408626E+03  0.33436412259E+03  0.26418952276E+03 0.  0.
         25    1    4    4    0    0 -0.41516029888E+02  0.17355190273E+02  0.45031904034E+02  0.14035727216E+03  0.12509000000E+03 0.  0.
         25    1    4    4    0    0 -0.51698353343E+02 -0.20556717441E+02  0.13746218223E+03  0.19400685043E+03  0.12509000000E+03 0.  0.
         25    1    3    3    0    0  0.93214383231E+02  0.32015271679E+01  0.22622149422E+03  0.27481419825E+03  0.12509000000E+03 0.  0.
<mgrwt>
<rscale>  2 0.45171872E+03</rscale>
<asrwt>0</asrwt>
<pdfrwt beam="1">  1       21 0.74845139E-01 0.45171872E+03</pdfrwt>
<pdfrwt beam="2">  1       21 0.14739908E-01 0.45171872E+03</pdfrwt>
<totfact> 0.59647878E+04</totfact>
</mgrwt>
</event>
<event>
 6    0  0.4705418E-002  0.4445478E+03  0.7546771E-02  0.1029361E+00
         21   -1    0    0  502  501  0.00000000000E+00  0.00000000000E+00  0.51027399003E+02  0.51027399003E+02  0.00000000000E+00 0.  1.
         21   -1    0    0  501  502 -0.00000000000E+00 -0.00000000000E+00 -0.96821861938E+03  0.96821861938E+03  0.00000000000E+00 0.  1.
      99926    2    1    2    0    0 -0.26645352591E-14  0.00000000000E+00 -0.91719122038E+03  0.10192460184E+04  0.44454776037E+03 0.  0.
         25    1    3    3    0    0 -0.30141905918E+02  0.41314097456E+02 -0.22972596986E+03  0.26652751916E+03  0.12509000000E+03 0.  0.
         25    1    3    3    0    0 -0.49836687797E+01 -0.10136684875E+03 -0.41002215442E+03  0.44052894365E+03  0.12509000000E+03 0.  0.
         25    1    3    3    0    0  0.35125574698E+02  0.60052751294E+02 -0.27744309610E+03  0.31218955557E+03  0.12509000000E+03 0.  0.
<mgrwt>
<rscale>  2 0.44454776E+03</rscale>
<asrwt>0</asrwt>
<pdfrwt beam="1">  1       21 0.75040297E-02 0.44454776E+03</pdfrwt>
<pdfrwt beam="2">  1       21 0.14238508E+00 0.44454776E+03</pdfrwt>
<totfact> 0.41729342E+04</totfact>
</mgrwt>
</event>
<event>
 7    0  0.4705418E-002  0.4519801E+03  0.7546771E-02  0.1027133E+00
         21   -1    0    0  502  501  0.00000000000E+00  0.00000000000E+00  0.81356368352E+02  0.81356368352E+02  0.00000000000E+00 0.  1.
         21   -1    0    0  501  502 -0.00000000000E+00 -0.00000000000E+00 -0.62775059755E+03  0.62775059755E+03  0.00000000000E+00 0.  1.
      99926    2    1    2    0    0  0.00000000000E+00  0.35527136788E-14 -0.54639422919E+03  0.70910696590E+03  0.45198012721E+03 0.  0.
      99925    2    3    3    0    0  0.97818515070E+02 -0.24119157385E+02 -0.41531032981E+03  0.50178911230E+03  0.26298183879E+03 0.  0.
         25    1    4    4    0    0  0.46429941977E+02 -0.99077909578E+01 -0.27810923979E+03  0.30861976799E+03  0.12509000000E+03 0.  0.
         25    1    3    3    0    0 -0.97818515070E+02  0.24119157385E+02 -0.13108389939E+03  0.20731785360E+03  0.12509000000E+03 0.  0.
         25    1    4    4    0    0  0.51388573093E+02 -0.14211366427E+02 -0.13720109001E+03  0.19316934431E+03  0.12509000000E+03 0.  0.
<mgrwt>
<rscale>  2 0.45198013E+03</rscale>
<asrwt>0</asrwt>
<pdfrwt beam="1">  1       21 0.11964172E-01 0.45198013E+03</pdfrwt>
<pdfrwt beam="2">  1       21 0.92316263E-01 0.45198013E+03</pdfrwt>
<totfact> 0.53675292E+04</totfact>
</mgrwt>
</event>
<event>
 7    0  0.4705418E-002  0.4558618E+03  0.7546771E-02  0.1025988E+00
         21   -1    0    0  502  501  0.00000000000E+00  0.00000000000E+00  0.48814725181E+03  0.48814725181E+03  0.00000000000E+00 0. -1.
         21   -1    0    0  501  502 -0.00000000000E+00 -0.00000000000E+00 -0.10642792347E+03  0.10642792347E+03  0.00000000000E+00 0. -1.
      99926    2    1    2    0    0  0.00000000000E+00  0.00000000000E+00  0.38171932834E+03  0.59457517527E+03  0.45586181395E+03 0.  0.
      99925    2    3    3    0    0  0.95073353234E+02  0.59530827550E+02  0.26928301680E+03  0.39240620095E+03  0.26246222869E+03 0.  0.
         25    1    4    4    0    0  0.12973253556E+02  0.40636556164E+02  0.10031821348E+03  0.16592434137E+03  0.12509000000E+03 0.  0.
         25    1    4    4    0    0  0.82100099677E+02  0.18894271386E+02  0.16896480332E+03  0.22648185958E+03  0.12509000000E+03 0.  0.
         25    1    3    3    0    0 -0.95073353234E+02 -0.59530827550E+02  0.11243631154E+03  0.20216897432E+03  0.12509000000E+03 0.  0.
<mgrwt>
<rscale>  2 0.45586181E+03</rscale>
<asrwt>0</asrwt>
<pdfrwt beam="1">  1       21 0.71786360E-01 0.45586181E+03</pdfrwt>
<pdfrwt beam="2">  1       21 0.15651165E-01 0.45586181E+03</pdfrwt>
<totfact> 0.58613220E+04</totfact>
</mgrwt>
</event>
<event>
 7    0  0.4705418E-002  0.4557152E+03  0.7546771E-02  0.1026031E+00
         21   -1    0    0  502  501  0.00000000000E+00  0.00000000000E+00  0.44113977942E+02  0.44113977942E+02  0.00000000000E+00 0.  1.
         21   -1    0    0  501  502 -0.00000000000E+00 -0.00000000000E+00 -0.11769305779E+04  0.11769305779E+04  0.00000000000E+00 0.  1.
      99926    2    1    2    0    0  0.00000000000E+00  0.14210854715E-13 -0.11328166000E+04  0.12210445559E+04  0.45571521613E+03 0.  0.
      99925    2    3    3    0    0  0.33038106391E+02 -0.10596503433E+03 -0.63910971430E+03  0.69978252767E+03  0.26251524553E+03 0.  0.
         25    1    4    4    0    0 -0.51031730830E+01 -0.35133282898E+02 -0.37182712191E+03  0.39390773873E+03  0.12509000000E+03 0.  0.
         25    1    3    3    0    0 -0.33038106391E+02  0.10596503433E+03 -0.49370688566E+03  0.52126202818E+03  0.12509000000E+03 0.  0.
         25    1    4    4    0    0  0.38141279474E+02 -0.70831751433E+02 -0.26728259239E+03  0.30587478893E+03  0.12509000000E+03 0.  0.
<mgrwt>
<rscale>  2 0.45571522E+03</rscale>
<asrwt>0</asrwt>
<pdfrwt beam="1">  1       21 0.64873494E-02 0.45571522E+03</pdfrwt>
<pdfrwt beam="2">  1       21 0.17307803E+00 0.45571522E+03</pdfrwt>
<totfact> 0.31321118E+04</totfact>
</mgrwt>
</event>
<event>
 7    0  0.4705418E-002  0.4542604E+03  0.7546771E-02  0.1026459E+00
         21   -1    0    0  502  501  0.00000000000E+00  0.00000000000E+00  0.13002983978E+04  0.13002983978E+04  0.00000000000E+00 0. -1.
         21   -1    0    0  501  502 -0.00000000000E+00 -0.00000000000E+00 -0.39674073985E+02  0.39674073985E+02  0.00000000000E+00 0. -1.
      99926    2    1    2    0    0 -0.71054273576E-14  0.00000000000E+00  0.12606243238E+04  0.13399724717E+04  0.45426043118E+03 0.  0.
      99925    2    3    3    0    0  0.62145137065E+02  0.93022057436E+02  0.83106942273E+03  0.87880000689E+03  0.26286488065E+03 0.  0.
         25    1    3    3    0    0 -0.62145137065E+02 -0.93022057436E+02  0.42955490104E+03  0.46117246485E+03  0.12509000000E+03 0.  0.
         25    1    4    4    0    0  0.15247642234E+02  0.77527570036E+01  0.33341602086E+03  0.35651977070E+03  0.12509000000E+03 0.  0.
         25    1    4    4    0    0  0.46897494832E+02  0.85269300433E+02  0.49765340187E+03  0.52228023618E+03  0.12509000000E+03 0.  0.
<mgrwt>
<rscale>  2 0.45426043E+03</rscale>
<asrwt>0</asrwt>
<pdfrwt beam="1">  1       21 0.19122033E+00 0.45426043E+03</pdfrwt>
<pdfrwt beam="2">  1       21 0.58344235E-02 0.45426043E+03</pdfrwt>
<totfact> 0.28137051E+04</totfact>
</mgrwt>
</event>
<event>
 7    0  0.4705418E-002  0.4509063E+03  0.7546771E-02  0.1027452E+00
         21   -1    0    0  502  501  0.00000000000E+00  0.00000000000E+00  0.30718952526E+03  0.30718952526E+03  0.00000000000E+00 0. -1.
         21   -1    0    0  501  502 -0.00000000000E+00 -0.00000000000E+00 -0.16546503374E+03  0.16546503374E+03  0.00000000000E+00 0. -1.
      99926    2    1    2    0    0  0.00000000000E+00  0.00000000000E+00  0.14172449152E+03  0.47265455900E+03  0.45090631028E+03 0.  0.
      99925    2    3    3    0    0 -0.75630786200E+02  0.38820318795E+02  0.17665636571E+02  0.27703978307E+03  0.26308161037E+03 0.  0.
         25    1    3    3    0    0  0.75630786200E+02 -0.38820318795E+02  0.12405885495E+03  0.19561477594E+03  0.12509000000E+03 0.  0.
         25    1    4    4    0    0 -0.19841587156E+02  0.34811083763E+02 -0.24619557486E+02  0.13363805912E+03  0.12509000000E+03 0.  0.
         25    1    4    4    0    0 -0.55789199044E+02  0.40092350317E+01  0.42285194058E+02  0.14340172395E+03  0.12509000000E+03 0.  0.
<mgrwt>
<rscale>  2 0.45090631E+03</rscale>
<asrwt>0</asrwt>
<pdfrwt beam="1">  1       21 0.45174930E-01 0.45090631E+03</pdfrwt>
<pdfrwt beam="2">  1       21 0.24333093E-01 0.45090631E+03</pdfrwt>
<totfact> 0.69468340E+04</totfact>
</mgrwt>
</event>
<event>
 7    0  0.4705418E-002  0.4538270E+03  0.7546771E-02  0.1026587E+00
         21   -1    0    0  502  501  0.00000000000E+00  0.00000000000E+00  0.24417271788E+03  0.24417271788E+03  0.00000000000E+00 0. -1.
         21   -1    0    0  501  502 -0.00000000000E+00 -0.00000000000E+00 -0.21087423960E+03  0.21087423960E+03  0.00000000000E+00 0. -1.
      99926    2    1    2    0    0 -0.14210854715E-13  0.71054273576E-14  0.33298478279E+02  0.45504695748E+03  0.45382699882E+03 0.  0.
      99925    2    3    3    0    0 -0.80448023701E+02  0.38609332631E+02 -0.47093732318E+02  0.28163132754E+03  0.26293691248E+03 0.  0.
         25    1    3    3    0    0  0.80448023701E+02 -0.38609332631E+02  0.80392210597E+02  0.17341562994E+03  0.12509000000E+03 0.  0.
         25    1    4    4    0    0 -0.80468876558E+02  0.15499532956E+02 -0.36829890256E+02  0.15401111821E+03  0.12509000000E+03 0.  0.
         25    1    4    4    0    0  0.20852857223E-01  0.23109799674E+02 -0.10263842062E+02  0.12762020933E+03  0.12509000000E+03 0.  0.
<mgrwt>
<rscale>  2 0.45382700E+03</rscale>
<asrwt>0</asrwt>
<pdfrwt beam="1">  1       21 0.35907753E-01 0.45382700E+03</pdfrwt>
<pdfrwt beam="2">  1       21 0.31010918E-01 0.45382700E+03</pdfrwt>
<totfact> 0.69187657E+04</totfact>
</mgrwt>
</event>
<event>
 7    0  0.4705418E-002  0.4559531E+03  0.7546771E-02  0.1025962E+00
         21   -1    0    0  502  501  0.00000000000E+00  0.00000000000E+00  0.92386414818E+02  0.92386414818E+02  0.00000000000E+00 0.  1.
         21   -1    0    0  501  502 -0.00000000000E+00 -0.00000000000E+00 -0.56256433204E+03  0.56256433204E+03  0.00000000000E+00 0.  1.
      99926    2    1    2    0    0 -0.71054273576E-14  0.00000000000E+00 -0.47017791722E+03  0.65495074685E+03  0.45595307540E+03 0.  0.
      99925    2    3    3    0    0 -0.34197740102E+02 -0.41166501418E+02 -0.44032501517E+03  0.51565656130E+03  0.26296654533E+03 0.  0.
         25    1    4    4    0    0 -0.57087881585E+02 -0.29663907046E+02 -0.22901755887E+03  0.26876667199E+03  0.12509000000E+03 0.  0.
         25    1    4    4    0    0  0.22890141483E+02 -0.11502594373E+02 -0.21130745630E+03  0.24688988931E+03  0.12509000000E+03 0.  0.
         25    1    3    3    0    0  0.34197740102E+02  0.41166501418E+02 -0.29852902048E+02  0.13929418555E+03  0.12509000000E+03 0.  0.
<mgrwt>
<rscale>  2 0.45595308E+03</rscale>
<asrwt>0</asrwt>
<pdfrwt beam="1">  1       21 0.13586237E-01 0.45595308E+03</pdfrwt>
<pdfrwt beam="2">  1       21 0.82730050E-01 0.45595308E+03</pdfrwt>
<totfact> 0.55002525E+04</totfact>
</mgrwt>
</event>
<event>
 7    0  0.4705418E-002  0.4589342E+03  0.7546771E-02  0.1025091E+00
         21   -1    0    0  502  501  0.00000000000E+00  0.00000000000E+00  0.33845655597E+02  0.33845655597E+02  0.00000000000E+00 0.  1.
         21   -1    0    0  501  502 -0.00000000000E+00 -0.00000000000E+00 -0.15557429923E+04  0.15557429923E+04  0.00000000000E+00 0.  1.
      99926    2    1    2    0    0  0.00000000000E+00  0.00000000000E+00 -0.15218973367E+04  0.15895886479E+04  0.45893416310E+03 0.  0.
      99925    2    3    3    0    0  0.79891935117E+02  0.73471419316E+02 -0.80486530589E+03  0.85367886262E+03  0.26301838169E+03 0.  0.
         25    1    3    3    0    0 -0.79891935117E+02 -0.73471419316E+02 -0.71703203080E+03  0.73590978526E+03  0.12509000000E+03 0.  0.
         25    1    4    4    0    0  0.34620537808E+02  0.77752337251E+02 -0.41502588974E+03  0.44174427539E+03  0.12509000000E+03 0.  0.
         25    1    4    4    0    0  0.45271397309E+02 -0.42809179347E+01 -0.38983941615E+03  0.41193458723E+03  0.12509000000E+03 0.  0.
<mgrwt>
<rscale>  2 0.45893416E+03</rscale>
<asrwt>0</asrwt>
<pdfrwt beam="1">  1       21 0.49773025E-02 0.45893416E+03</pdfrwt>
<pdfrwt beam="2">  1       21 0.22878573E+00 0.45893416E+03</pdfrwt>
<totfact> 0.21016659E+04</totfact>
</mgrwt>
</event>
<event>
 7    0  0.4705418E-002  0.4203961E+03  0.7546771E-02  0.1036937E+00
         21   -1    0    0  502  501  0.00000000000E+00  0.00000000000E+00  0.14872812146E+03  0.14872812146E+03  0.00000000000E+00 0.  1.
         21   -1    0    0  501  502 -0.00000000000E+00 -0.00000000000E+00 -0.29707379280E+03  0.29707379280E+03  0.00000000000E+00 0.  1.
      99926    2    1    2    0    0  0.00000000000E+00 -0.17763568394E-14 -0.14834567134E+03  0.44580191426E+03  0.42039613289E+03 0.  0.
      99925    2    3    3    0    0 -0.36704053002E+02  0.14979644200E+02 -0.16583897519E+03  0.31341950974E+03  0.26297841384E+03 0.  0.
         25    1    4    4    0    0 -0.20557060361E+02  0.44544941363E+02 -0.65057670169E+02  0.14928781960E+03  0.12509000000E+03 0.  0.
         25    1    3    3    0    0  0.36704053002E+02 -0.14979644200E+02  0.17493303846E+02  0.13238240452E+03  0.12509000000E+03 0.  0.
         25    1    4    4    0    0 -0.16146992641E+02 -0.29565297163E+02 -0.10078130502E+03  0.16413169014E+03  0.12509000000E+03 0.  0.
<mgrwt>
<rscale>  2 0.42039613E+03</rscale>
<asrwt>0</asrwt>
<pdfrwt beam="1">  1       21 0.21871783E-01 0.42039613E+03</pdfrwt>
<pdfrwt beam="2">  1       21 0.43687322E-01 0.42039613E+03</pdfrwt>
<totfact> 0.92078708E+04</totfact>
</mgrwt>
</event>
<event>
 7    0  0.4705418E-002  0.4446043E+03  0.7546771E-02  0.1029343E+00
         21   -1    0    0  502  501  0.00000000000E+00  0.00000000000E+00  0.10028646553E+04  0.10028646553E+04  0.00000000000E+00 0.  1.
         21   -1    0    0  501  502 -0.00000000000E+00 -0.00000000000E+00 -0.49277075377E+02  0.49277075377E+02  0.00000000000E+00 0.  1.
      99926    2    1    2    0    0  0.00000000000E+00  0.71054273576E-14  0.95358757991E+03  0.10521417307E+04  0.44460426094E+03 0.  0.
      99925    2    3    3    0    0  0.76690520526E+02  0.60419570855E+02  0.52717106899E+03  0.59715765471E+03  0.26297522340E+03 0.  0.
         25    1    3    3    0    0 -0.76690520526E+02 -0.60419570855E+02  0.42641651093E+03  0.45498407595E+03  0.12509000000E+03 0.  0.
         25    1    4    4    0    0  0.43628756630E+02  0.27692609098E+02  0.17991536409E+03  0.22513861361E+03  0.12509000000E+03 0.  0.
         25    1    4    4    0    0  0.33061763896E+02  0.32726961757E+02  0.34725570489E+03  0.37201904110E+03  0.12509000000E+03 0.  0.
<mgrwt>
<rscale>  2 0.44460426E+03</rscale>
<asrwt>0</asrwt>
<pdfrwt beam="1">  1       21 0.14748008E+00 0.44460426E+03</pdfrwt>
<pdfrwt beam="2">  1       21 0.72466294E-02 0.44460426E+03</pdfrwt>
<totfact> 0.40376884E+04</totfact>
</mgrwt>
</event>
<event>
 7    0  0.4705418E-002  0.4536083E+03  0.7546771E-02  0.1026651E+00
         21   -1    0    0  502  501  0.00000000000E+00  0.00000000000E+00  0.11999270704E+03  0.11999270704E+03  0.00000000000E+00 0.  1.
         21   -1    0    0  501  502 -0.00000000000E+00 -0.00000000000E+00 -0.42869378489E+03  0.42869378489E+03  0.00000000000E+00 0.  1.
      99926    2    1    2    0    0  0.00000000000E+00  0.00000000000E+00 -0.30870107785E+03  0.54868649192E+03  0.45360832329E+03 0.  0.
      99925    2    3    3    0    0 -0.69651525896E+02  0.38825945426E+02 -0.28959639586E+03  0.39911615372E+03  0.26280951764E+03 0.  0.
         25    1    3    3    0    0  0.69651525896E+02 -0.38825945426E+02 -0.19104681992E+02  0.14957033821E+03  0.12509000000E+03 0.  0.
         25    1    4    4    0    0 -0.23939068392E+02 -0.17830704598E+02 -0.15575124524E+03  0.20198260201E+03  0.12509000000E+03 0.  0.
         25    1    4    4    0    0 -0.45712457504E+02  0.56656650024E+02 -0.13384515063E+03  0.19713355171E+03  0.12509000000E+03 0.  0.
<mgrwt>
<rscale>  2 0.45360832E+03</rscale>
<asrwt>0</asrwt>
<pdfrwt beam="1">  1       21 0.17645987E-01 0.45360832E+03</pdfrwt>
<pdfrwt beam="2">  1       21 0.63043202E-01 0.45360832E+03</pdfrwt>
<totfact> 0.62640291E+04</totfact>
</mgrwt>
</event>
<event>
 7    0  0.4705418E-002  0.4572919E+03  0.7546771E-02  0.1025570E+00
         21   -1    0    0  502  501  0.00000000000E+00  0.00000000000E+00  0.96861902241E+02  0.96861902241E+02  0.00000000000E+00 0.  1.
         21   -1    0    0  501  502 -0.00000000000E+00 -0.00000000000E+00 -0.53972677695E+03  0.53972677695E+03  0.00000000000E+00 0.  1.
      99926    2    1    2    0    0  0.00000000000E+00  0.00000000000E+00 -0.44286487470E+03  0.63658867919E+03  0.45729186437E+03 0.  0.
      99925    2    3    3    0    0 -0.81294554689E+02  0.67099367901E+02 -0.34320014187E+03  0.44503791081E+03  0.26298531305E+03 0.  0.
         25    1    4    4    0    0 -0.63250150954E+02  0.26025918666E+02 -0.22933373503E+03  0.27003592384E+03  0.12509000000E+03 0.  0.
         25    1    3    3    0    0  0.81294554689E+02 -0.67099367901E+02 -0.99664732832E+02  0.19155076838E+03  0.12509000000E+03 0.  0.
         25    1    4    4    0    0 -0.18044403735E+02  0.41073449235E+02 -0.11386640684E+03  0.17500198698E+03  0.12509000000E+03 0.  0.
<mgrwt>
<rscale>  2 0.45729186E+03</rscale>
<asrwt>0</asrwt>
<pdfrwt beam="1">  1       21 0.14244397E-01 0.45729186E+03</pdfrwt>
<pdfrwt beam="2">  1       21 0.79371586E-01 0.45729186E+03</pdfrwt>
<totfact> 0.55470587E+04</totfact>
</mgrwt>
</event>
<event>
 7    0  0.4705418E-002  0.4563094E+03  0.7546771E-02  0.1025857E+00
         21   -1    0    0  502  501  0.00000000000E+00  0.00000000000E+00  0.45279271986E+03  0.45279271986E+03  0.00000000000E+00 0.  1.
         21   -1    0    0  501  502 -0.00000000000E+00 -0.00000000000E+00 -0.11496336576E+03  0.11496336576E+03  0.00000000000E+00 0.  1.
      99926    2    1    2    0    0  0.00000000000E+00  0.71054273576E-14  0.33782935410E+03  0.56775608562E+03  0.45630943478E+03 0.  0.
      99925    2    3    3    0    0  0.97790166337E+02  0.50969704544E+02  0.17318413822E+03  0.33341363828E+03  0.26269960230E+03 0.  0.
         25    1    4    4    0    0  0.88213532060E+02  0.15902672377E+02  0.10581906419E+03  0.18676108983E+03  0.12509000000E+03 0.  0.
         25    1    3    3    0    0 -0.97790166337E+02 -0.50969704544E+02  0.16464521588E+03  0.23434244734E+03  0.12509000000E+03 0.  0.
         25    1    4    4    0    0  0.95766342774E+01  0.35067032167E+02  0.67365074030E+02  0.14665254845E+03  0.12509000000E+03 0.  0.
<mgrwt>
<rscale>  2 0.45630943E+03</rscale>
<asrwt>0</asrwt>
<pdfrwt beam="1">  1       21 0.66587164E-01 0.45630943E+03</pdfrwt>
<pdfrwt beam="2">  1       21 0.16906378E-01 0.45630943E+03</pdfrwt>
<totfact> 0.60083588E+04</totfact>
</mgrwt>
</event>
<event>
 7    0  0.4705418E-002  0.4561144E+03  0.7546771E-02  0.1025914E+00
         21   -1    0    0  502  501  0.00000000000E+00  0.00000000000E+00  0.23415857073E+03  0.23415857073E+03  0.00000000000E+00 0. -1.
         21   -1    0    0  501  502 -0.00000000000E+00 -0.00000000000E+00 -0.22211480808E+03  0.22211480808E+03  0.00000000000E+00 0. -1.
      99926    2    1    2    0    0  0.14210854715E-13  0.35527136788E-14  0.12043762651E+02  0.45627337881E+03  0.45611439793E+03 0.  0.
      99925    2    3    3    0    0  0.10649796197E+03  0.23247418050E+02  0.40652519669E+02  0.28790406027E+03  0.26335121457E+03 0.  0.
         25    1    4    4    0    0  0.88917184110E+02 -0.10586707300E+02  0.14272609931E+02  0.15449776534E+03  0.12509000000E+03 0.  0.
         25    1    4    4    0    0  0.17580777858E+02  0.33834125350E+02  0.26379909738E+02  0.13340629493E+03  0.12509000000E+03 0.  0.
         25    1    3    3    0    0 -0.10649796197E+03 -0.23247418050E+02 -0.28608757018E+02  0.16836931855E+03  0.12509000000E+03 0.  0.
<mgrwt>
<rscale>  2 0.45611440E+03</rscale>
<asrwt>0</asrwt>
<pdfrwt beam="1">  1       21 0.34435084E-01 0.45611440E+03</pdfrwt>
<pdfrwt beam="2">  1       21 0.32663942E-01 0.45611440E+03</pdfrwt>
<totfact> 0.67847325E+04</totfact>
</mgrwt>
</event>
<event>
 7    0  0.4705418E-002  0.4518596E+03  0.7546771E-02  0.1027169E+00
         21   -1    0    0  502  501  0.00000000000E+00  0.00000000000E+00  0.83759263587E+02  0.83759263587E+02  0.00000000000E+00 0. -1.
         21   -1    0    0  501  502 -0.00000000000E+00 -0.00000000000E+00 -0.60941644641E+03  0.60941644641E+03  0.00000000000E+00 0. -1.
      99926    2    1    2    0    0  0.00000000000E+00  0.14210854715E-13 -0.52565718282E+03  0.69317571000E+03  0.45185959221E+03 0.  0.
      99925    2    3    3    0    0  0.34877995284E+02  0.84029919701E+02 -0.42718154495E+03  0.50981142418E+03  0.26295648674E+03 0.  0.
         25    1    4    4    0    0  0.10487899171E+02 -0.12190993542E+00 -0.19231751396E+03  0.22965962894E+03  0.12509000000E+03 0.  0.
         25    1    4    4    0    0  0.24390096113E+02  0.84151829636E+02 -0.23486403099E+03  0.28015179523E+03  0.12509000000E+03 0.  0.
         25    1    3    3    0    0 -0.34877995284E+02 -0.84029919701E+02 -0.98475637876E+02  0.18336428582E+03  0.12509000000E+03 0.  0.
<mgrwt>
<rscale>  2 0.45185959E+03</rscale>
<asrwt>0</asrwt>
<pdfrwt beam="1">  1       21 0.12317539E-01 0.45185959E+03</pdfrwt>
<pdfrwt beam="2">  1       21 0.89620061E-01 0.45185959E+03</pdfrwt>
<totfact> 0.54612581E+04</totfact>
</mgrwt>
</event>
<event>
 7    0  0.4705418E-002  0.4592665E+03  0.7546771E-02  0.1024994E+00
         21   -1    0    0  502  501  0.00000000000E+00  0.00000000000E+00  0.50603370429E+03  0.50603370429E+03  0.00000000000E+00 0.  1.
         21   -1    0    0  501  502 -0.00000000000E+00 -0.00000000000E+00 -0.10420536036E+03  0.10420536036E+03  0.00000000000E+00 0.  1.
      99926    2    1    2    0    0  0.00000000000E+00  0.00000000000E+00  0.40182834393E+03  0.61023906465E+03  0.45926647825E+03 0.  0.
      99925    2    3    3    0    0  0.10844185634E+03  0.28661943086E+02  0.29676528596E+03  0.41208029639E+03  0.26298173423E+03 0.  0.
         25    1    4    4    0    0  0.44625673209E+02  0.21945985066E+02  0.89564600260E+02  0.16168612399E+03  0.12509000000E+03 0.  0.
         25    1    3    3    0    0 -0.10844185634E+03 -0.28661943086E+02  0.10506305797E+03  0.19815876826E+03  0.12509000000E+03 0.  0.
         25    1    4    4    0    0  0.63816183134E+02  0.67159580207E+01  0.20720068570E+03  0.25039417241E+03  0.12509000000E+03 0.  0.
<mgrwt>
<rscale>  2 0.45926648E+03</rscale>
<asrwt>0</asrwt>
<pdfrwt beam="1">  1       21 0.74416720E-01 0.45926648E+03</pdfrwt>
<pdfrwt beam="2">  1       21 0.15324318E-01 0.45926648E+03</pdfrwt>
<totfact> 0.56136493E+04</totfact>
</mgrwt>
</event>
<event>
 7    0  0.4705418E-002  0.4506721E+03  0.7546771E-02  0.1027522E+00
         21   -1    0    0  502  501  0.00000000000E+00  0.00000000000E+00  0.19036246954E+03  0.19036246954E+03  0.00000000000E+00 0.  1.
         21   -1    0    0  501  502 -0.00000000000E+00 -0.00000000000E+00 -0.26673502240E+03  0.26673502240E+03  0.00000000000E+00 0.  1.
      99926    2    1    2    0    0  0.00000000000E+00  0.00000000000E+00 -0.76372552865E+02  0.45709749194E+03  0.45067210953E+03 0.  0.
      99925    2    3    3    0    0  0.64148411441E+02 -0.67208768713E+02  0.96607720390E+01  0.27910513712E+03  0.26301009442E+03 0.  0.
         25    1    4    4    0    0  0.53082074926E+02 -0.37039993092E+02 -0.29994034775E+02  0.14400284021E+03  0.12509000000E+03 0.  0.
         25    1    3    3    0    0 -0.64148411441E+02  0.67208768713E+02 -0.86033324904E+02  0.17799235483E+03  0.12509000000E+03 0.  0.
         25    1    4    4    0    0  0.11066336516E+02 -0.30168775621E+02  0.39654806814E+02  0.13510229691E+03  0.12509000000E+03 0.  0.
<mgrwt>
<rscale>  2 0.45067211E+03</rscale>
<asrwt>0</asrwt>
<pdfrwt beam="1">  1       21 0.27994481E-01 0.45067211E+03</pdfrwt>
<pdfrwt beam="2">  1       21 0.39225739E-01 0.45067211E+03</pdfrwt>
<totfact> 0.70804781E+04</totfact>
</mgrwt>
</event>
<event>
 7    0  0.4705418E-002  0.4544554E+03  0.7546771E-02  0.1026402E+00
         21   -1    0    0  502  501  0.00000000000E+00  0.00000000000E+00  0.11760101673E+03  0.11760101673E+03  0.00000000000E+00 0. -1.
         21   -1    0    0  501  502 -0.00000000000E+00 -0.00000000000E+00 -0.43904751509E+03  0.43904751509E+03  0.00000000000E+00 0. -1.
      99926    2    1    2    0    0  0.14210854715E-13  0.71054273576E-14 -0.32144649837E+03  0.55664853182E+03  0.45445542869E+03 0.  0.
      99925    2    3    3    0    0  0.96549491272E+02  0.56200616215E+02 -0.18493132464E+03  0.34039818087E+03  0.26304184682E+03 0.  0.
         25    1    4    4    0    0  0.60734329376E+02  0.45423198101E+01 -0.12871442062E+03  0.18953680806E+03  0.12509000000E+03 0.  0.
         25    1    4    4    0    0  0.35815161896E+02  0.51658296405E+02 -0.56216904022E+02  0.15086137281E+03  0.12509000000E+03 0.  0.
         25    1    3    3    0    0 -0.96549491272E+02 -0.56200616215E+02 -0.13651517372E+03  0.21625035095E+03  0.12509000000E+03 0.  0.
<mgrwt>
<rscale>  2 0.45445543E+03</rscale>
<asrwt>0</asrwt>
<pdfrwt beam="1">  1       21 0.17294267E-01 0.45445543E+03</pdfrwt>
<pdfrwt beam="2">  1       21 0.64565811E-01 0.45445543E+03</pdfrwt>
<totfact> 0.61694641E+04</totfact>
</mgrwt>
</event>
<event>
 7    0  0.4705418E-002  0.4557502E+03  0.7546771E-02  0.1026021E+00
         21   -1    0    0  502  501  0.00000000000E+00  0.00000000000E+00  0.12206115840E+04  0.12206115840E+04  0.00000000000E+00 0.  1.
         21   -1    0    0  501  502 -0.00000000000E+00 -0.00000000000E+00 -0.42541841109E+02  0.42541841109E+02  0.00000000000E+00 0.  1.
      99926    2    1    2    0    0  0.00000000000E+00  0.00000000000E+00  0.11780697429E+04  0.12631534251E+04  0.45575021256E+03 0.  0.
      99925    2    3    3    0    0  0.43913021389E+02  0.84503405314E+02  0.56663490524E+03  0.63183001532E+03  0.26280196625E+03 0.  0.
         25    1    4    4    0    0  0.23792872639E+02  0.39374735522E+02  0.19151545512E+03  0.23332841283E+03  0.12509000000E+03 0.  0.
         25    1    3    3    0    0 -0.43913021389E+02 -0.84503405314E+02  0.61143483766E+03  0.63132340980E+03  0.12509000000E+03 0.  0.
         25    1    4    4    0    0  0.20120148750E+02  0.45128669792E+02  0.37511945012E+03  0.39850160249E+03  0.12509000000E+03 0.  0.
<mgrwt>
<rscale>  2 0.45575021E+03</rscale>
<asrwt>0</asrwt>
<pdfrwt beam="1">  1       21 0.17950168E+00 0.45575021E+03</pdfrwt>
<pdfrwt beam="2">  1       21 0.62561539E-02 0.45575021E+03</pdfrwt>
<totfact> 0.30028124E+04</totfact>
</mgrwt>
</event>
<event>
 7    0  0.4705418E-002  0.4534135E+03  0.7546771E-02  0.1026709E+00
         21   -1    0    0  502  501  0.00000000000E+00  0.00000000000E+00  0.34705571916E+03  0.34705571916E+03  0.00000000000E+00 0.  1.
         21   -1    0    0  501  502 -0.00000000000E+00 -0.00000000000E+00 -0.14809133911E+03  0.14809133911E+03  0.00000000000E+00 0.  1.
      99926    2    1    2    0    0  0.00000000000E+00 -0.35527136788E-14  0.19896438005E+03  0.49514705826E+03  0.45341348103E+03 0.  0.
      99925    2    3    3    0    0 -0.83892203775E+02  0.17108773624E+02  0.47522073817E+02  0.28087411969E+03  0.26325142283E+03 0.  0.
         25    1    4    4    0    0 -0.43111962098E+01 -0.33666005156E+01  0.51051072971E+01  0.12531356923E+03  0.12509000000E+03 0.  0.
         25    1    3    3    0    0  0.83892203775E+02 -0.17108773624E+02  0.15144230623E+03  0.21427293858E+03  0.12509000000E+03 0.  0.
         25    1    4    4    0    0 -0.79581007566E+02  0.20475374140E+02  0.42416966520E+02  0.15556055046E+03  0.12509000000E+03 0.  0.
<mgrwt>
<rscale>  2 0.45341348E+03</rscale>
<asrwt>0</asrwt>
<pdfrwt beam="1">  1       21 0.51037606E-01 0.45341348E+03</pdfrwt>
<pdfrwt beam="2">  1       21 0.21778138E-01 0.45341348E+03</pdfrwt>
<totfact> 0.66445871E+04</totfact>
</mgrwt>
</event>
<event>
 7    0  0.4705418E-002  0.5249057E+03  0.7546771E-02  0.1007475E+00
         21   -1    0    0  502  501  0.00000000000E+00  0.00000000000E+00  0.23096899609E+03  0.23096899609E+03  0.00000000000E+00 0.  1.
         21   -1    0    0  501  502 -0.00000000000E+00 -0.00000000000E+00 -0.29822835430E+03  0.29822835430E+03  0.00000000000E+00 0.  1.
      99926    2    1    2    0    0 -0.14210854715E-13  0.00000000000E+00 -0.67259358217E+02  0.52919735039E+03  0.52490571953E+03 0.  0.
      99925    2    3    3    0    0 -0.98242417908E+02  0.12642884674E+03 -0.99220126314E+02  0.32351598331E+03  0.26302496465E+03 0.  0.
         25    1    3    3    0    0  0.98242417908E+02 -0.12642884674E+03  0.31960768097E+02  0.20568136708E+03  0.12509000000E+03 0.  0.
         25    1    4    4    0    0 -0.13950776166E+02  0.73133166270E+02 -0.27267784639E+02  0.14810173646E+03  0.12509000000E+03 0.  0.
         25    1    4    4    0    0 -0.84291641742E+02  0.53295680475E+02 -0.71952341676E+02  0.17541424685E+03  0.12509000000E+03 0.  0.
<mgrwt>
<rscale>  2 0.52490572E+03</rscale>
<asrwt>0</asrwt>
<pdfrwt beam="1">  1       21 0.33966029E-01 0.52490572E+03</pdfrwt>
<pdfrwt beam="2">  1       21 0.43857111E-01 0.52490572E+03</pdfrwt>
<totfact> 0.37623854E+04</totfact>
</mgrwt>
</event>
<event>
 7    0  0.4705418E-002  0.4610040E+03  0.7546771E-02  0.1024490E+00
         21   -1    0    0  502  501  0.00000000000E+00  0.00000000000E+00  0.86983032258E+02  0.86983032258E+02  0.00000000000E+00 0. -1.
         21   -1    0    0  501  502 -0.00000000000E+00 -0.00000000000E+00 -0.61082224892E+03  0.61082224892E+03  0.00000000000E+00 0. -1.
      99926    2    1    2    0    0  0.00000000000E+00  0.00000000000E+00 -0.52383921666E+03  0.69780528118E+03  0.46100399730E+03 0.  0.
      99925    2    3    3    0    0  0.11551047924E+03 -0.24272998028E+02 -0.34701587976E+03  0.45113576579E+03  0.26300496026E+03 0.  0.
         25    1    4    4    0    0  0.65537163034E+02 -0.35791134688E+02 -0.12891525001E+03  0.19453219488E+03  0.12509000000E+03 0.  0.
         25    1    3    3    0    0 -0.11551047924E+03  0.24272998028E+02 -0.17682333690E+03  0.24666951539E+03  0.12509000000E+03 0.  0.
         25    1    4    4    0    0  0.49973316210E+02  0.11518136659E+02 -0.21810062976E+03  0.25660357091E+03  0.12509000000E+03 0.  0.
<mgrwt>
<rscale>  2 0.46100400E+03</rscale>
<asrwt>0</asrwt>
<pdfrwt beam="1">  1       21 0.12791622E-01 0.46100400E+03</pdfrwt>
<pdfrwt beam="2">  1       21 0.89826806E-01 0.46100400E+03</pdfrwt>
<totfact> 0.50589027E+04</totfact>
</mgrwt>
</event>
<event>
 7    0  0.4705418E-002  0.4478026E+03  0.7546771E-02  0.1028379E+00
         21   -1    0    0  502  501  0.00000000000E+00  0.00000000000E+00  0.21456704724E+03  0.21456704724E+03  0.00000000000E+00 0.  1.
         21   -1    0    0  501  502 -0.00000000000E+00 -0.00000000000E+00 -0.23364166043E+03  0.23364166043E+03  0.00000000000E+00 0.  1.
      99926    2    1    2    0    0 -0.71054273576E-14  0.14210854715E-13 -0.19074613189E+02  0.44820870766E+03  0.44780264041E+03 0.  0.
      99925    2    3    3    0    0  0.41768751016E+02 -0.92083272210E+02 -0.45069212056E+02  0.28527563903E+03  0.26292013762E+03 0.  0.
         25    1    4    4    0    0  0.32433674735E+02 -0.15727959222E+02 -0.47025108129E+02  0.13841308050E+03  0.12509000000E+03 0.  0.
         25    1    4    4    0    0  0.93350762817E+01 -0.76355312987E+02  0.19558960733E+01  0.14686255854E+03  0.12509000000E+03 0.  0.
         25    1    3    3    0    0 -0.41768751016E+02  0.92083272210E+02  0.25994598867E+02  0.16293306863E+03  0.12509000000E+03 0.  0.
<mgrwt>
<rscale>  2 0.44780264E+03</rscale>
<asrwt>0</asrwt>
<pdfrwt beam="1">  1       21 0.31553978E-01 0.44780264E+03</pdfrwt>
<pdfrwt beam="2">  1       21 0.34359067E-01 0.44780264E+03</pdfrwt>
<totfact> 0.73158068E+04</totfact>
</mgrwt>
</event>
<event>
 7    0  0.4705418E-002  0.4612248E+03  0.7546771E-02  0.1024427E+00
         21   -1    0    0  502  501  0.00000000000E+00  0.00000000000E+00  0.24053335110E+03  0.24053335110E+03  0.00000000000E+00 0. -1.
         21   -1    0    0  501  502 -0.00000000000E+00 -0.00000000000E+00 -0.22110065945E+03  0.22110065945E+03  0.00000000000E+00 0. -1.
      99926    2    1    2    0    0  0.35527136788E-14  0.00000000000E+00  0.19432691643E+02  0.46163401055E+03  0.46122481524E+03 0.  0.
      99925    2    3    3    0    0 -0.29926546527E+02  0.85138761241E+02 -0.65434572459E+02  0.28558240599E+03  0.26292854635E+03 0.  0.
         25    1    4    4    0    0 -0.21066425872E+02  0.21026196391E+01 -0.40139745754E+02  0.13306736113E+03  0.12509000000E+03 0.  0.
         25    1    3    3    0    0  0.29926546527E+02 -0.85138761241E+02  0.84867264102E+02  0.17605160456E+03  0.12509000000E+03 0.  0.
         25    1    4    4    0    0 -0.88601206547E+01  0.83036141602E+02 -0.25294826705E+02  0.15251504486E+03  0.12509000000E+03 0.  0.
<mgrwt>
<rscale>  2 0.46122482E+03</rscale>
<asrwt>0</asrwt>
<pdfrwt beam="1">  1       21 0.35372552E-01 0.46122482E+03</pdfrwt>
<pdfrwt beam="2">  1       21 0.32514803E-01 0.46122482E+03</pdfrwt>
<totfact> 0.64784569E+04</totfact>
</mgrwt>
</event>
<event>
 7    0  0.4705418E-002  0.4455768E+03  0.7546771E-02  0.1029049E+00
         21   -1    0    0  502  501  0.00000000000E+00  0.00000000000E+00  0.36305450969E+02  0.36305450969E+02  0.00000000000E+00 0. -1.
         21   -1    0    0  501  502 -0.00000000000E+00 -0.00000000000E+00 -0.13671412134E+04  0.13671412134E+04  0.00000000000E+00 0. -1.
      99926    2    1    2    0    0  0.00000000000E+00  0.17763568394E-14 -0.13308357625E+04  0.14034466644E+04  0.44557683195E+03 0.  0.
      99925    2    3    3    0    0 -0.88948986027E+02 -0.10584689496E+02 -0.10122948114E+04  0.10496956173E+04  0.26286145758E+03 0.  0.
         25    1    4    4    0    0 -0.50948158919E+02  0.26021896573E+02 -0.41639642111E+03  0.43852746962E+03  0.12509000000E+03 0.  0.
         25    1    3    3    0    0  0.88948986027E+02  0.10584689496E+02 -0.31854095102E+03  0.35375104713E+03  0.12509000000E+03 0.  0.
         25    1    4    4    0    0 -0.38000827109E+02 -0.36606586069E+02 -0.59589839032E+03  0.61116814764E+03  0.12509000000E+03 0.  0.
<mgrwt>
<rscale>  2 0.44557683E+03</rscale>
<asrwt>0</asrwt>
<pdfrwt beam="1">  1       21 0.53390368E-02 0.44557683E+03</pdfrwt>
<pdfrwt beam="2">  1       21 0.20105018E+00 0.44557683E+03</pdfrwt>
<totfact> 0.28253315E+04</totfact>
</mgrwt>
</event>
<event>
 7    0  0.4705418E-002  0.4518808E+03  0.7546771E-02  0.1027163E+00
         21   -1    0    0  502  501  0.00000000000E+00  0.00000000000E+00  0.95200104962E+02  0.95200104962E+02  0.00000000000E+00 0.  1.
         21   -1    0    0  501  502 -0.00000000000E+00 -0.00000000000E+00 -0.53622907237E+03  0.53622907237E+03  0.00000000000E+00 0.  1.
      99926    2    1    2    0    0  0.00000000000E+00 -0.71054273576E-14 -0.44102896740E+03  0.63142917733E+03  0.45188079832E+03 0.  0.
      99925    2    3    3    0    0 -0.99492702210E+02  0.48535570093E+02 -0.27906619937E+03  0.39876214983E+03  0.26244772650E+03 0.  0.
         25    1    3    3    0    0  0.99492702210E+02 -0.48535570093E+02 -0.16196276803E+03  0.23266702750E+03  0.12509000000E+03 0.  0.
         25    1    4    4    0    0 -0.59559727558E+02  0.62905981157E+02 -0.13657119159E+03  0.20445958545E+03  0.12509000000E+03 0.  0.
         25    1    4    4    0    0 -0.39932974651E+02 -0.14370411064E+02 -0.14249500779E+03  0.19430256437E+03  0.12509000000E+03 0.  0.
<mgrwt>
<rscale>  2 0.45188080E+03</rscale>
<asrwt>0</asrwt>
<pdfrwt beam="1">  1       21 0.14000015E-01 0.45188080E+03</pdfrwt>
<pdfrwt beam="2">  1       21 0.78857219E-01 0.45188080E+03</pdfrwt>
<totfact> 0.58204134E+04</totfact>
</mgrwt>
</event>
<event>
 7    0  0.4705418E-002  0.4584842E+03  0.7546771E-02  0.1025222E+00
         21   -1    0    0  502  501  0.00000000000E+00  0.00000000000E+00  0.47080117713E+02  0.47080117713E+02  0.00000000000E+00 0. -1.
         21   -1    0    0  501  502 -0.00000000000E+00 -0.00000000000E+00 -0.11162236010E+04  0.11162236010E+04  0.00000000000E+00 0. -1.
      99926    2    1    2    0    0  0.00000000000E+00  0.00000000000E+00 -0.10691434833E+04  0.11633037187E+04  0.45848419179E+03 0.  0.
      99925    2    3    3    0    0 -0.11075002922E+03  0.24223793271E+02 -0.73894270119E+03  0.79245007409E+03  0.26284680549E+03 0.  0.
         25    1    3    3    0    0  0.11075002922E+03 -0.24223793271E+02 -0.33020078212E+03  0.37085364464E+03  0.12509000000E+03 0.  0.
         25    1    4    4    0    0 -0.48358778367E+02  0.43157726023E+02 -0.43770543192E+03  0.45982030620E+03  0.12509000000E+03 0.  0.
         25    1    4    4    0    0 -0.62391250849E+02 -0.18933932752E+02 -0.30123726927E+03  0.33262976789E+03  0.12509000000E+03 0.  0.
<mgrwt>
<rscale>  2 0.45848419E+03</rscale>
<asrwt>0</asrwt>
<pdfrwt beam="1">  1       21 0.69235467E-02 0.45848419E+03</pdfrwt>
<pdfrwt beam="2">  1       21 0.16415053E+00 0.45848419E+03</pdfrwt>
<totfact> 0.32451195E+04</totfact>
</mgrwt>
</event>
<event>
 7    0  0.4705418E-002  0.4556383E+03  0.7546771E-02  0.1026054E+00
         21   -1    0    0  502  501  0.00000000000E+00  0.00000000000E+00  0.15363199959E+04  0.15363199959E+04  0.00000000000E+00 0. -1.
         21   -1    0    0  501  502 -0.00000000000E+00 -0.00000000000E+00 -0.33783038755E+02  0.33783038755E+02  0.00000000000E+00 0. -1.
      99926    2    1    2    0    0  0.00000000000E+00  0.00000000000E+00  0.15025369571E+04  0.15701030346E+04  0.45563826864E+03 0.  0.
      99925    2    3    3    0    0  0.42792097378E+02 -0.96295824610E+02  0.10928973499E+04  0.11290178214E+04  0.26296877033E+03 0.  0.
         25    1    3    3    0    0 -0.42792097378E+02  0.96295824610E+02  0.40963960727E+03  0.44108521329E+03  0.12509000000E+03 0.  0.
         25    1    4    4    0    0  0.55943051867E+02 -0.31366040169E+02  0.59588120319E+03  0.61223800106E+03  0.12509000000E+03 0.  0.
         25    1    4    4    0    0 -0.13150954489E+02 -0.64929784441E+02  0.49701614667E+03  0.51677982029E+03  0.12509000000E+03 0.  0.
<mgrwt>
<rscale>  2 0.45563827E+03</rscale>
<asrwt>0</asrwt>
<pdfrwt beam="1">  1       21 0.22592936E+00 0.45563827E+03</pdfrwt>
<pdfrwt beam="2">  1       21 0.49680950E-02 0.45563827E+03</pdfrwt>
<totfact> 0.22002874E+04</totfact>
</mgrwt>
</event>
<event>
 7    0  0.4705418E-002  0.4520777E+03  0.7546771E-02  0.1027104E+00
         21   -1    0    0  502  501  0.00000000000E+00  0.00000000000E+00  0.17943328049E+04  0.17943328049E+04  0.00000000000E+00 0.  1.
         21   -1    0    0  501  502 -0.00000000000E+00 -0.00000000000E+00 -0.28474962930E+02  0.28474962930E+02  0.00000000000E+00 0.  1.
      99926    2    1    2    0    0 -0.71054273576E-14  0.00000000000E+00  0.17658578419E+04  0.18228077678E+04  0.45207769289E+03 0.  0.
      99925    2    3    3    0    0 -0.46656555669E+02  0.10119876186E+02  0.71309953420E+03  0.76156943043E+03  0.26305475782E+03 0.  0.
         25    1    4    4    0    0 -0.57745872030E+02  0.26118888764E+02  0.39855992811E+03  0.42250953419E+03  0.12509000000E+03 0.  0.
         25    1    4    4    0    0  0.11089316361E+02 -0.15999012577E+02  0.31453960609E+03  0.33905989624E+03  0.12509000000E+03 0.  0.
         25    1    3    3    0    0  0.46656555669E+02 -0.10119876186E+02  0.10527583077E+04  0.10612383374E+04  0.12509000000E+03 0.  0.
<mgrwt>
<rscale>  2 0.45207769E+03</rscale>
<asrwt>0</asrwt>
<pdfrwt beam="1">  1       21 0.26387239E+00 0.45207769E+03</pdfrwt>
<pdfrwt beam="2">  1       21 0.41874958E-02 0.45207769E+03</pdfrwt>
<totfact> 0.17212425E+04</totfact>
</mgrwt>
</event>
<event>
 7    0  0.4705418E-002  0.4567406E+03  0.7546771E-02  0.1025731E+00
         21   -1    0    0  502  501  0.00000000000E+00  0.00000000000E+00  0.40190675184E+03  0.40190675184E+03  0.00000000000E+00 0.  1.
         21   -1    0    0  501  502 -0.00000000000E+00 -0.00000000000E+00 -0.12976392713E+03  0.12976392713E+03  0.00000000000E+00 0.  1.
      99926    2    1    2    0    0  0.00000000000E+00  0.00000000000E+00  0.27214282471E+03  0.53167067897E+03  0.45674061987E+03 0.  0.
      99925    2    3    3    0    0 -0.10236860746E+03 -0.45558933966E+02  0.14187332364E+03  0.31913221359E+03  0.26298741706E+03 0.  0.
         25    1    3    3    0    0  0.10236860746E+03  0.45558933966E+02  0.13026950106E+03  0.21253846538E+03  0.12509000000E+03 0.  0.
         25    1    4    4    0    0 -0.71012816380E+02 -0.32683621313E+02  0.11435186355E+03  0.18664108870E+03  0.12509000000E+03 0.  0.
         25    1    4    4    0    0 -0.31355791082E+02 -0.12875312653E+02  0.27521460091E+02  0.13249112489E+03  0.12509000000E+03 0.  0.
<mgrwt>
<rscale>  2 0.45674062E+03</rscale>
<asrwt>0</asrwt>
<pdfrwt beam="1">  1       21 0.59103934E-01 0.45674062E+03</pdfrwt>
<pdfrwt beam="2">  1       21 0.19082930E-01 0.45674062E+03</pdfrwt>
<totfact> 0.62230600E+04</totfact>
</mgrwt>
</event>
<event>
 7    0  0.4705418E-002  0.4584160E+03  0.7546771E-02  0.1025242E+00
         21   -1    0    0  502  501  0.00000000000E+00  0.00000000000E+00  0.13309557771E+03  0.13309557771E+03  0.00000000000E+00 0.  1.
         21   -1    0    0  501  502 -0.00000000000E+00 -0.00000000000E+00 -0.39472620841E+03  0.39472620841E+03  0.00000000000E+00 0.  1.
      99926    2    1    2    0    0  0.00000000000E+00  0.00000000000E+00 -0.26163063071E+03  0.52782178612E+03  0.45841602391E+03 0.  0.
      99925    2    3    3    0    0  0.24743032944E+02  0.74078045182E+02 -0.26316977777E+03  0.38034415551E+03  0.26325571265E+03 0.  0.
         25    1    4    4    0    0  0.48404469239E+02  0.56999158016E+02 -0.15023212236E+03  0.20930622386E+03  0.12509000000E+03 0.  0.
         25    1    3    3    0    0 -0.24743032944E+02 -0.74078045182E+02  0.15391470614E+01  0.14747763061E+03  0.12509000000E+03 0.  0.
         25    1    4    4    0    0 -0.23661436295E+02  0.17078887166E+02 -0.11293765541E+03  0.17103793165E+03  0.12509000000E+03 0.  0.
<mgrwt>
<rscale>  2 0.45841602E+03</rscale>
<asrwt>0</asrwt>
<pdfrwt beam="1">  1       21 0.19572879E-01 0.45841602E+03</pdfrwt>
<pdfrwt beam="2">  1       21 0.58047972E-01 0.45841602E+03</pdfrwt>
<totfact> 0.61667340E+04</totfact>
</mgrwt>
</event>
<event>
 7    0  0.4705418E-002  0.4545083E+03  0.7546771E-02  0.1026386E+00
         21   -1    0    0  502  501  0.00000000000E+00  0.00000000000E+00  0.46034544010E+02  0.46034544010E+02  0.00000000000E+00 0. -1.
         21   -1    0    0  501  502 -0.00000000000E+00 -0.00000000000E+00 -0.11218627868E+04  0.11218627868E+04  0.00000000000E+00 0. -1.
      99926    2    1    2    0    0  0.00000000000E+00  0.00000000000E+00 -0.10758282428E+04  0.11678973308E+04  0.45450826981E+03 0.  0.
      99925    2    3    3    0    0 -0.10131121051E+03 -0.39910101407E+02 -0.60142668430E+03  0.66534273241E+03  0.26288803210E+03 0.  0.
         25    1    4    4    0    0 -0.53712721337E+02 -0.42317523532E+02 -0.38853811694E+03  0.41386616877E+03  0.12509000000E+03 0.  0.
         25    1    4    4    0    0 -0.47598489178E+02  0.24074221247E+01 -0.21288856735E+03  0.25147656365E+03  0.12509000000E+03 0.  0.
         25    1    3    3    0    0  0.10131121051E+03  0.39910101407E+02 -0.47440155849E+03  0.50255459839E+03  0.12509000000E+03 0.  0.
<mgrwt>
<rscale>  2 0.45450827E+03</rscale>
<asrwt>0</asrwt>
<pdfrwt beam="1">  1       21 0.67697860E-02 0.45450827E+03</pdfrwt>
<pdfrwt beam="2">  1       21 0.16497982E+00 0.45450827E+03</pdfrwt>
<totfact> 0.33317884E+04</totfact>
</mgrwt>
</event>
<event>
 7    0  0.4705418E-002  0.4575547E+03  0.7546771E-02  0.1025493E+00
         21   -1    0    0  502  501  0.00000000000E+00  0.00000000000E+00  0.20546402494E+03  0.20546402494E+03  0.00000000000E+00 0.  1.
         21   -1    0    0  501  502 -0.00000000000E+00 -0.00000000000E+00 -0.25473592730E+03  0.25473592730E+03  0.00000000000E+00 0.  1.
      99926    2    1    2    0    0  0.00000000000E+00  0.14210854715E-13 -0.49271902360E+02  0.46019995225E+03  0.45755466962E+03 0.  0.
      99925    2    3    3    0    0 -0.32078939294E+02  0.10795365649E+03 -0.63901522127E+01  0.28650653587E+03  0.26336687483E+03 0.  0.
         25    1    4    4    0    0  0.95370631128E+00  0.13042888457E+02 -0.81961938825E+01  0.12603853454E+03  0.12509000000E+03 0.  0.
         25    1    4    4    0    0 -0.33032645605E+02  0.94910768037E+02  0.18060416698E+01  0.16046800133E+03  0.12509000000E+03 0.  0.
         25    1    3    3    0    0  0.32078939294E+02 -0.10795365649E+03 -0.42881750147E+02  0.17369341638E+03  0.12509000000E+03 0.  0.
<mgrwt>
<rscale>  2 0.45755467E+03</rscale>
<asrwt>0</asrwt>
<pdfrwt beam="1">  1       21 0.30215298E-01 0.45755467E+03</pdfrwt>
<pdfrwt beam="2">  1       21 0.37461165E-01 0.45755467E+03</pdfrwt>
<totfact> 0.66794618E+04</totfact>
</mgrwt>
</event>
<event>
 7    0  0.4705418E-002  0.4534153E+03  0.7546771E-02  0.1026708E+00
         21   -1    0    0  502  501  0.00000000000E+00  0.00000000000E+00  0.10213562502E+03  0.10213562502E+03  0.00000000000E+00 0. -1.
         21   -1    0    0  501  502 -0.00000000000E+00 -0.00000000000E+00 -0.50321675372E+03  0.50321675372E+03  0.00000000000E+00 0. -1.
      99926    2    1    2    0    0  0.00000000000E+00  0.00000000000E+00 -0.40108112870E+03  0.60535237874E+03  0.45341529600E+03 0.  0.
      99925    2    3    3    0    0  0.52220380676E+02  0.50346561708E+02 -0.13931090780E+03  0.30629903720E+03  0.26296354638E+03 0.  0.
         25    1    4    4    0    0  0.10938268780E+02  0.55838707866E+02 -0.95585834800E+02  0.16739703383E+03  0.12509000000E+03 0.  0.
         25    1    3    3    0    0 -0.52220380676E+02 -0.50346561708E+02 -0.26177022090E+03  0.29905334154E+03  0.12509000000E+03 0.  0.
         25    1    4    4    0    0  0.41282111896E+02 -0.54921461575E+01 -0.43725072997E+02  0.13890200337E+03  0.12509000000E+03 0.  0.
<mgrwt>
<rscale>  2 0.45341530E+03</rscale>
<asrwt>0</asrwt>
<pdfrwt beam="1">  1       21 0.15019945E-01 0.45341530E+03</pdfrwt>
<pdfrwt beam="2">  1       21 0.74002465E-01 0.45341530E+03</pdfrwt>
<totfact> 0.59086258E+04</totfact>
</mgrwt>
</event>
<event>
 7    0  0.4705418E-002  0.4283147E+03  0.7546771E-02  0.1034394E+00
         21   -1    0    0  502  501  0.00000000000E+00  0.00000000000E+00  0.40419558737E+03  0.40419558737E+03  0.00000000000E+00 0. -1.
         21   -1    0    0  501  502 -0.00000000000E+00 -0.00000000000E+00 -0.11346828010E+03  0.11346828010E+03  0.00000000000E+00 0. -1.
      99926    2    1    2    0    0  0.17763568394E-14 -0.14210854715E-13  0.29072730727E+03  0.51766386746E+03  0.42831473531E+03 0.  0.
      99925    2    3    3    0    0  0.15966775810E+02  0.76191533846E+02  0.14425702470E+03  0.30991127534E+03  0.26301106753E+03 0.  0.
         25    1    4    4    0    0 -0.19242785577E+02  0.16723598987E+02  0.93556715003E+02  0.15827296226E+03  0.12509000000E+03 0.  0.
         25    1    3    3    0    0 -0.15966775810E+02 -0.76191533846E+02  0.14647028257E+03  0.20775259213E+03  0.12509000000E+03 0.  0.
         25    1    4    4    0    0  0.35209561387E+02  0.59467934859E+02  0.50700309701E+02  0.15163831308E+03  0.12509000000E+03 0.  0.
<mgrwt>
<rscale>  2 0.42831474E+03</rscale>
<asrwt>0</asrwt>
<pdfrwt beam="1">  1       21 0.59440527E-01 0.42831474E+03</pdfrwt>
<pdfrwt beam="2">  1       21 0.16686512E-01 0.42831474E+03</pdfrwt>
<totfact> 0.79585302E+04</totfact>
</mgrwt>
</event>
<event>
 7    0  0.4705418E-002  0.4561019E+03  0.7546771E-02  0.1025918E+00
         21   -1    0    0  502  501  0.00000000000E+00  0.00000000000E+00  0.76158215554E+02  0.76158215554E+02  0.00000000000E+00 0. -1.
         21   -1    0    0  501  502 -0.00000000000E+00 -0.00000000000E+00 -0.68288415145E+03  0.68288415145E+03  0.00000000000E+00 0. -1.
      99926    2    1    2    0    0 -0.66613381478E-15  0.71054273576E-14 -0.60672593589E+03  0.75904236700E+03  0.45610191144E+03 0.  0.
      99925    2    3    3    0    0  0.16463902272E+01 -0.55303844790E+02 -0.21502464749E+03  0.34414643633E+03  0.26294475610E+03 0.  0.
         25    1    3    3    0    0 -0.16463902272E+01  0.55303844790E+02 -0.39170128841E+03  0.41489593067E+03  0.12509000000E+03 0.  0.
         25    1    4    4    0    0 -0.85498026043E+01 -0.23152430909E+02 -0.15682856324E+03  0.20211838246E+03  0.12509000000E+03 0.  0.
         25    1    4    4    0    0  0.10196192831E+02 -0.32151413881E+02 -0.58196084245E+02  0.14202805386E+03  0.12509000000E+03 0.  0.
<mgrwt>
<rscale>  2 0.45610191E+03</rscale>
<asrwt>0</asrwt>
<pdfrwt beam="1">  1       21 0.11199738E-01 0.45610191E+03</pdfrwt>
<pdfrwt beam="2">  1       21 0.10042414E+00 0.45610191E+03</pdfrwt>
<totfact> 0.49380553E+04</totfact>
</mgrwt>
</event>
<event>
 7    0  0.4705418E-002  0.4494817E+03  0.7546771E-02  0.1027877E+00
         21   -1    0    0  502  501  0.00000000000E+00  0.00000000000E+00  0.64819588956E+02  0.64819588956E+02  0.00000000000E+00 0.  1.
         21   -1    0    0  501  502 -0.00000000000E+00 -0.00000000000E+00 -0.77921579721E+03  0.77921579721E+03  0.00000000000E+00 0.  1.
      99926    2    1    2    0    0  0.00000000000E+00  0.00000000000E+00 -0.71439620826E+03  0.84403538617E+03  0.44948169121E+03 0.  0.
      99925    2    3    3    0    0 -0.65056096848E+02  0.49239321134E+02 -0.31871221708E+03  0.42110497173E+03  0.26285949368E+03 0.  0.
         25    1    4    4    0    0 -0.12861766953E+02  0.48820140526E+02 -0.11986080369E+03  0.18045207545E+03  0.12509000000E+03 0.  0.
         25    1    3    3    0    0  0.65056096848E+02 -0.49239321134E+02 -0.39568399118E+03  0.42293041444E+03  0.12509000000E+03 0.  0.
         25    1    4    4    0    0 -0.52194329896E+02  0.41918060714E+00 -0.19885141339E+03  0.24065289629E+03  0.12509000000E+03 0.  0.
<mgrwt>
<rscale>  2 0.44948169E+03</rscale>
<asrwt>0</asrwt>
<pdfrwt beam="1">  1       21 0.95322931E-02 0.44948169E+03</pdfrwt>
<pdfrwt beam="2">  1       21 0.11459055E+00 0.44948169E+03</pdfrwt>
<totfact> 0.47740818E+04</totfact>
</mgrwt>
</event>
<event>
 7    0  0.4705418E-002  0.4505496E+03  0.7546771E-02  0.1027558E+00
         21   -1    0    0  502  501  0.00000000000E+00  0.00000000000E+00  0.10430363442E+03  0.10430363442E+03  0.00000000000E+00 0. -1.
         21   -1    0    0  501  502 -0.00000000000E+00 -0.00000000000E+00 -0.48654817791E+03  0.48654817791E+03  0.00000000000E+00 0. -1.
      99926    2    1    2    0    0  0.71054273576E-14  0.00000000000E+00 -0.38224454349E+03  0.59085181232E+03  0.45054963445E+03 0.  0.
      99925    2    3    3    0    0  0.32173210657E+02  0.10393382890E+03 -0.24118933496E+03  0.37317903905E+03  0.26315954022E+03 0.  0.
         25    1    3    3    0    0 -0.32173210657E+02 -0.10393382890E+03 -0.14105520853E+03  0.21767277328E+03  0.12509000000E+03 0.  0.
         25    1    4    4    0    0 -0.21173929937E+02  0.40723099877E+02 -0.94112357823E+02  0.16312985676E+03  0.12509000000E+03 0.  0.
         25    1    4    4    0    0  0.53347140593E+02  0.63210729024E+02 -0.14707697714E+03  0.21004918228E+03  0.12509000000E+03 0.  0.
<mgrwt>
<rscale>  2 0.45054963E+03</rscale>
<asrwt>0</asrwt>
<pdfrwt beam="1">  1       21 0.15338770E-01 0.45054963E+03</pdfrwt>
<pdfrwt beam="2">  1       21 0.71551202E-01 0.45054963E+03</pdfrwt>
<totfact> 0.61375301E+04</totfact>
</mgrwt>
</event>
<event>
 7    0  0.4705418E-002  0.4505166E+03  0.7546771E-02  0.1027568E+00
         21   -1    0    0  502  501  0.00000000000E+00  0.00000000000E+00  0.14397863414E+03  0.14397863414E+03  0.00000000000E+00 0. -1.
         21   -1    0    0  501  502 -0.00000000000E+00 -0.00000000000E+00 -0.35242247908E+03  0.35242247908E+03  0.00000000000E+00 0. -1.
      99926    2    1    2    0    0  0.71054273576E-14 -0.35527136788E-14 -0.20844384495E+03  0.49640111322E+03  0.45051662423E+03 0.  0.
      99925    2    3    3    0    0 -0.35605509483E+02  0.11797365811E+02 -0.24432741184E+03  0.36096821980E+03  0.26304988383E+03 0.  0.
         25    1    4    4    0    0 -0.57032404858E+02  0.17699557271E+02 -0.13094101115E+03  0.19068042908E+03  0.12509000000E+03 0.  0.
         25    1    3    3    0    0  0.35605509483E+02 -0.11797365811E+02  0.35883566894E+02  0.13543289341E+03  0.12509000000E+03 0.  0.
         25    1    4    4    0    0  0.21426895374E+02 -0.59021914602E+01 -0.11338640069E+03  0.17028779073E+03  0.12509000000E+03 0.  0.
<mgrwt>
<rscale>  2 0.45051662E+03</rscale>
<asrwt>0</asrwt>
<pdfrwt beam="1">  1       21 0.21173329E-01 0.45051662E+03</pdfrwt>
<pdfrwt beam="2">  1       21 0.51826834E-01 0.45051662E+03</pdfrwt>
<totfact> 0.67909119E+04</totfact>
</mgrwt>
</event>
<event>
 7    0  0.4705418E-002  0.4589717E+03  0.7546771E-02  0.1025080E+00
         21   -1    0    0  502  501  0.00000000000E+00  0.00000000000E+00  0.14542862408E+03  0.14542862408E+03  0.00000000000E+00 0. -1.
         21   -1    0    0  501  502 -0.00000000000E+00 -0.00000000000E+00 -0.36212778006E+03  0.36212778006E+03  0.00000000000E+00 0. -1.
      99926    2    1    2    0    0  0.14210854715E-13  0.00000000000E+00 -0.21669915599E+03  0.50755640414E+03  0.45897165400E+03 0.  0.
      99925    2    3    3    0    0 -0.74301272871E+02 -0.45164419800E+02 -0.22299048287E+03  0.35508479084E+03  0.26229744427E+03 0.  0.
         25    1    4    4    0    0 -0.73145057568E+02 -0.65910144789E+01 -0.12637918114E+03  0.19238723046E+03  0.12509000000E+03 0.  0.
         25    1    3    3    0    0  0.74301272871E+02  0.45164419800E+02  0.62913268881E+01  0.15247161329E+03  0.12509000000E+03 0.  0.
         25    1    4    4    0    0 -0.11562153028E+01 -0.38573405322E+02 -0.96611301735E+02  0.16269756038E+03  0.12509000000E+03 0.  0.
<mgrwt>
<rscale>  2 0.45897165E+03</rscale>
<asrwt>0</asrwt>
<pdfrwt beam="1">  1       21 0.21386562E-01 0.45897165E+03</pdfrwt>
<pdfrwt beam="2">  1       21 0.53254085E-01 0.45897165E+03</pdfrwt>
<totfact> 0.62741679E+04</totfact>
</mgrwt>
</event>
<event>
 7    0  0.4705418E-002  0.4536080E+03  0.7546771E-02  0.1026652E+00
         21   -1    0    0  502  501  0.00000000000E+00  0.00000000000E+00  0.24105033243E+04  0.24105033243E+04  0.00000000000E+00 0. -1.
         21   -1    0    0  501  502 -0.00000000000E+00 -0.00000000000E+00 -0.21339960750E+02  0.21339960750E+02  0.00000000000E+00 0. -1.
      99926    2    1    2    0    0  0.00000000000E+00  0.00000000000E+00  0.23891633636E+04  0.24318432851E+04  0.45360796434E+03 0.  0.
      99925    2    3    3    0    0 -0.46862529917E+02  0.89202595437E+02  0.12557805783E+04  0.12871349179E+04  0.26377686856E+03 0.  0.
         25    1    4    4    0    0 -0.96685429050E+01  0.52423712304E+02  0.80505998776E+03  0.81646238023E+03  0.12509000000E+03 0.  0.
         25    1    4    4    0    0 -0.37193987012E+02  0.36778883133E+02  0.45072059051E+03  0.47067253768E+03  0.12509000000E+03 0.  0.
         25    1    3    3    0    0  0.46862529917E+02 -0.89202595437E+02  0.11333827853E+04  0.11447083672E+04  0.12509000000E+03 0.  0.
<mgrwt>
<rscale>  2 0.45360796E+03</rscale>
<asrwt>0</asrwt>
<pdfrwt beam="1">  1       21 0.35448560E+00 0.45360796E+03</pdfrwt>
<pdfrwt beam="2">  1       21 0.31382312E-02 0.45360796E+03</pdfrwt>
<totfact> 0.79401000E+03</totfact>
</mgrwt>
</event>
<event>
 7    0  0.4705418E-002  0.4644792E+03  0.7546771E-02  0.1023490E+00
         21   -1    0    0  502  501  0.00000000000E+00  0.00000000000E+00  0.50573027901E+02  0.50573027901E+02  0.00000000000E+00 0.  1.
         21   -1    0    0  501  502 -0.00000000000E+00 -0.00000000000E+00 -0.10664821148E+04  0.10664821148E+04  0.00000000000E+00 0.  1.
      99926    2    1    2    0    0  0.71054273576E-14  0.00000000000E+00 -0.10159090869E+04  0.11170551427E+04  0.46447919113E+03 0.  0.
      99925    2    3    3    0    0  0.53757185603E+02  0.94926918134E+02 -0.76541423061E+03  0.81656198817E+03  0.26270436106E+03 0.  0.
         25    1    3    3    0    0 -0.53757185603E+02 -0.94926918134E+02 -0.25049485629E+03  0.30049315453E+03  0.12509000000E+03 0.  0.
         25    1    4    4    0    0 -0.89970617000E+01  0.57080072358E+02 -0.41748663641E+03  0.43963812557E+03  0.12509000000E+03 0.  0.
         25    1    4    4    0    0  0.62754247303E+02  0.37846845777E+02 -0.34792759420E+03  0.37692386260E+03  0.12509000000E+03 0.  0.
<mgrwt>
<rscale>  2 0.46447919E+03</rscale>
<asrwt>0</asrwt>
<pdfrwt beam="1">  1       21 0.74372107E-02 0.46447919E+03</pdfrwt>
<pdfrwt beam="2">  1       21 0.15683559E+00 0.46447919E+03</pdfrwt>
<totfact> 0.32437149E+04</totfact>
</mgrwt>
</event>
<event>
 7    0  0.4705418E-002  0.4320673E+03  0.7546771E-02  0.1033209E+00
         21   -1    0    0  502  501  0.00000000000E+00  0.00000000000E+00  0.69159303383E+02  0.69159303383E+02  0.00000000000E+00 0.  1.
         21   -1    0    0  501  502 -0.00000000000E+00 -0.00000000000E+00 -0.67482655381E+03  0.67482655381E+03  0.00000000000E+00 0.  1.
      99926    2    1    2    0    0  0.00000000000E+00 -0.17763568394E-14 -0.60566725043E+03  0.74398585720E+03  0.43206728349E+03 0.  0.
      99925    2    3    3    0    0 -0.46234137515E+02  0.65538701384E+01 -0.25715930027E+03  0.37077566426E+03  0.26298885681E+03 0.  0.
         25    1    4    4    0    0 -0.63738448281E+02  0.81680885483E+01 -0.14173438029E+03  0.19966334194E+03  0.12509000000E+03 0.  0.
         25    1    3    3    0    0  0.46234137515E+02 -0.65538701384E+01 -0.34850795016E+03  0.37321019294E+03  0.12509000000E+03 0.  0.
         25    1    4    4    0    0  0.17504310766E+02 -0.16142184100E+01 -0.11542491998E+03  0.17111232232E+03  0.12509000000E+03 0.  0.
<mgrwt>
<rscale>  2 0.43206728E+03</rscale>
<asrwt>0</asrwt>
<pdfrwt beam="1">  1       21 0.10170486E-01 0.43206728E+03</pdfrwt>
<pdfrwt beam="2">  1       21 0.99239198E-01 0.43206728E+03</pdfrwt>
<totfact> 0.60824109E+04</totfact>
</mgrwt>
</event>
<event>
 7    0  0.4705418E-002  0.4555764E+03  0.7546771E-02  0.1026072E+00
         21   -1    0    0  502  501  0.00000000000E+00  0.00000000000E+00  0.61738240610E+03  0.61738240610E+03  0.00000000000E+00 0.  1.
         21   -1    0    0  501  502 -0.00000000000E+00 -0.00000000000E+00 -0.84044297238E+02  0.84044297238E+02  0.00000000000E+00 0.  1.
      99926    2    1    2    0    0  0.44408920985E-15  0.35527136788E-14  0.53333810887E+03  0.70142670334E+03  0.45557642805E+03 0.  0.
      99925    2    3    3    0    0  0.33618362805E+01 -0.17357328578E+02  0.16245149340E+03  0.30961428849E+03  0.26297897470E+03 0.  0.
         25    1    3    3    0    0 -0.33618362805E+01  0.17357328578E+02  0.37088661547E+03  0.39181241485E+03  0.12509000000E+03 0.  0.
         25    1    4    4    0    0  0.17387795730E+02 -0.20608436834E+02  0.12342989257E+03  0.17779057790E+03  0.12509000000E+03 0.  0.
         25    1    4    4    0    0 -0.14025959449E+02  0.32511082564E+01  0.39021600826E+02  0.13182371059E+03  0.12509000000E+03 0.  0.
<mgrwt>
<rscale>  2 0.45557643E+03</rscale>
<asrwt>0</asrwt>
<pdfrwt beam="1">  1       21 0.90791528E-01 0.45557643E+03</pdfrwt>
<pdfrwt beam="2">  1       21 0.12359456E-01 0.45557643E+03</pdfrwt>
<totfact> 0.52586612E+04</totfact>
</mgrwt>
</event>
<event>
 7    0  0.4705418E-002  0.4523224E+03  0.7546771E-02  0.1027032E+00
         21   -1    0    0  502  501  0.00000000000E+00  0.00000000000E+00  0.75875640754E+03  0.75875640754E+03  0.00000000000E+00 0. -1.
         21   -1    0    0  501  502 -0.00000000000E+00 -0.00000000000E+00 -0.67411466992E+02  0.67411466992E+02  0.00000000000E+00 0. -1.
      99926    2    1    2    0    0  0.00000000000E+00 -0.14210854715E-13  0.69134494055E+03  0.82616787453E+03  0.45232237407E+03 0.  0.
      99925    2    3    3    0    0  0.75165478999E+02 -0.77744493678E+02  0.39580454612E+03  0.48751511968E+03  0.26327874516E+03 0.  0.
         25    1    4    4    0    0  0.26479884325E+02  0.14818960620E+01  0.15939008713E+03  0.20434306513E+03  0.12509000000E+03 0.  0.
         25    1    3    3    0    0 -0.75165478999E+02  0.77744493678E+02  0.29554039443E+03  0.33865275485E+03  0.12509000000E+03 0.  0.
         25    1    4    4    0    0  0.48685594674E+02 -0.79226389740E+02  0.23641445899E+03  0.28317205455E+03  0.12509000000E+03 0.  0.
<mgrwt>
<rscale>  2 0.45232237E+03</rscale>
<asrwt>0</asrwt>
<pdfrwt beam="1">  1       21 0.11158182E+00 0.45232237E+03</pdfrwt>
<pdfrwt beam="2">  1       21 0.99134514E-02 0.45232237E+03</pdfrwt>
<totfact> 0.47515444E+04</totfact>
</mgrwt>
</event>
<event>
 7    0  0.4705418E-002  0.4573010E+03  0.7546771E-02  0.1025567E+00
         21   -1    0    0  502  501  0.00000000000E+00  0.00000000000E+00  0.83956912330E+02  0.83956912330E+02  0.00000000000E+00 0.  1.
         21   -1    0    0  501  502 -0.00000000000E+00 -0.00000000000E+00 -0.62271280459E+03  0.62271280459E+03  0.00000000000E+00 0.  1.
      99926    2    1    2    0    0  0.00000000000E+00  0.71054273576E-14 -0.53875589226E+03  0.70666971692E+03  0.45730097022E+03 0.  0.
      99925    2    3    3    0    0  0.71544389807E+02 -0.34338591085E+02 -0.20995275224E+03  0.34603589774E+03  0.26336846015E+03 0.  0.
         25    1    3    3    0    0 -0.71544389807E+02  0.34338591085E+02 -0.32880314002E+03  0.36063381918E+03  0.12509000000E+03 0.  0.
         25    1    4    4    0    0 -0.53859566702E+01 -0.20342586103E+02 -0.84817466790E+02  0.15259207093E+03  0.12509000000E+03 0.  0.
         25    1    4    4    0    0  0.76930346477E+02 -0.13996004982E+02 -0.12513528545E+03  0.19344382680E+03  0.12509000000E+03 0.  0.
<mgrwt>
<rscale>  2 0.45730097E+03</rscale>
<asrwt>0</asrwt>
<pdfrwt beam="1">  1       21 0.12346604E-01 0.45730097E+03</pdfrwt>
<pdfrwt beam="2">  1       21 0.91575415E-01 0.45730097E+03</pdfrwt>
<totfact> 0.51601715E+04</totfact>
</mgrwt>
</event>
<event>
 7    0  0.4705418E-002  0.4509819E+03  0.7546771E-02  0.1027430E+00
         21   -1    0    0  502  501  0.00000000000E+00  0.00000000000E+00  0.14055272298E+03  0.14055272298E+03  0.00000000000E+00 0.  1.
         21   -1    0    0  501  502 -0.00000000000E+00 -0.00000000000E+00 -0.36175876197E+03  0.36175876197E+03  0.00000000000E+00 0.  1.
      99926    2    1    2    0    0  0.00000000000E+00  0.00000000000E+00 -0.22120603899E+03  0.50231148495E+03  0.45098194667E+03 0.  0.
      99925    2    3    3    0    0  0.35805398969E+02 -0.81947948149E+02 -0.20940787045E+03  0.34809022286E+03  0.26328246094E+03 0.  0.
         25    1    3    3    0    0 -0.35805398969E+02  0.81947948149E+02 -0.11798168543E+02  0.15422126209E+03  0.12509000000E+03 0.  0.
         25    1    4    4    0    0  0.38175162596E+02 -0.63189849230E+02 -0.74862045925E+02  0.16340787651E+03  0.12509000000E+03 0.  0.
         25    1    4    4    0    0 -0.23697636270E+01 -0.18758098919E+02 -0.13454582453E+03  0.18468234635E+03  0.12509000000E+03 0.  0.
<mgrwt>
<rscale>  2 0.45098195E+03</rscale>
<asrwt>0</asrwt>
<pdfrwt beam="1">  1       21 0.20669518E-01 0.45098195E+03</pdfrwt>
<pdfrwt beam="2">  1       21 0.53199817E-01 0.45098195E+03</pdfrwt>
<totfact> 0.67227185E+04</totfact>
</mgrwt>
</event>
<event>
 7    0  0.4705418E-002  0.4557328E+03  0.7546771E-02  0.1026026E+00
         21   -1    0    0  502  501  0.00000000000E+00  0.00000000000E+00  0.52387898941E+02  0.52387898941E+02  0.00000000000E+00 0. -1.
         21   -1    0    0  501  502 -0.00000000000E+00 -0.00000000000E+00 -0.99112751653E+03  0.99112751653E+03  0.00000000000E+00 0. -1.
      99926    2    1    2    0    0  0.00000000000E+00  0.71054273576E-14 -0.93873961759E+03  0.10435154155E+04  0.45573276456E+03 0.  0.
      99925    2    3    3    0    0  0.96705363687E+02  0.58961963247E+02 -0.56392754588E+03  0.63246792712E+03  0.26300753100E+03 0.  0.
         25    1    4    4    0    0  0.57717745026E+02  0.24638624439E+01 -0.21345828459E+03  0.25406565307E+03  0.12509000000E+03 0.  0.
         25    1    3    3    0    0 -0.96705363687E+02 -0.58961963247E+02 -0.37481207171E+03  0.41104748834E+03  0.12509000000E+03 0.  0.
         25    1    4    4    0    0  0.38987618661E+02  0.56498100803E+02 -0.35046926128E+03  0.37840227405E+03  0.12509000000E+03 0.  0.
<mgrwt>
<rscale>  2 0.45573276E+03</rscale>
<asrwt>0</asrwt>
<pdfrwt beam="1">  1       21 0.77041035E-02 0.45573276E+03</pdfrwt>
<pdfrwt beam="2">  1       21 0.14575403E+00 0.45573276E+03</pdfrwt>
<totfact> 0.37302415E+04</totfact>
</mgrwt>
</event>
<event>
 7    0  0.4705418E-002  0.4591290E+03  0.7546771E-02  0.1025034E+00
         21   -1    0    0  502  501  0.00000000000E+00  0.00000000000E+00  0.84038541160E+03  0.84038541160E+03  0.00000000000E+00 0. -1.
         21   -1    0    0  501  502 -0.00000000000E+00 -0.00000000000E+00 -0.62709159243E+02  0.62709159243E+02  0.00000000000E+00 0. -1.
      99926    2    1    2    0    0  0.14210854715E-13  0.17763568394E-14  0.77767625236E+03  0.90309457084E+03  0.45912901281E+03 0.  0.
      99925    2    3    3    0    0 -0.88759289734E+02 -0.14968228829E+02  0.63460945106E+03  0.69281409832E+03  0.26298281327E+03 0.  0.
         25    1    4    4    0    0 -0.26475701311E+02  0.23394807820E+02  0.24919951612E+03  0.28106260286E+03  0.12509000000E+03 0.  0.
         25    1    3    3    0    0  0.88759289734E+02  0.14968228829E+02  0.14306680130E+03  0.21028047252E+03  0.12509000000E+03 0.  0.
         25    1    4    4    0    0 -0.62283588423E+02 -0.38363036649E+02  0.38540993494E+03  0.41175149546E+03  0.12509000000E+03 0.  0.
<mgrwt>
<rscale>  2 0.45912901E+03</rscale>
<asrwt>0</asrwt>
<pdfrwt beam="1">  1       21 0.12358608E+00 0.45912901E+03</pdfrwt>
<pdfrwt beam="2">  1       21 0.92219357E-02 0.45912901E+03</pdfrwt>
<totfact> 0.41734579E+04</totfact>
</mgrwt>
</event>
<event>
 7    0  0.4705418E-002  0.4563740E+03  0.7546771E-02  0.1025838E+00
         21   -1    0    0  502  501  0.00000000000E+00  0.00000000000E+00  0.76663700082E+02  0.76663700082E+02  0.00000000000E+00 0.  1.
         21   -1    0    0  501  502 -0.00000000000E+00 -0.00000000000E+00 -0.67919115552E+03  0.67919115552E+03  0.00000000000E+00 0.  1.
      99926    2    1    2    0    0  0.71054273576E-14  0.14210854715E-13 -0.60252745544E+03  0.75585485560E+03  0.45637400033E+03 0.  0.
      99925    2    3    3    0    0  0.56806403864E+02 -0.92698073868E+02 -0.32271597095E+03  0.43064434629E+03  0.26360776670E+03 0.  0.
         25    1    4    4    0    0  0.22473503428E+02 -0.30642024680E+01 -0.15463097750E+03  0.20018165499E+03  0.12509000000E+03 0.  0.
         25    1    3    3    0    0 -0.56806403864E+02  0.92698073868E+02 -0.27981148448E+03  0.32521050931E+03  0.12509000000E+03 0.  0.
         25    1    4    4    0    0  0.34332900436E+02 -0.89633871400E+02 -0.16808499345E+03  0.23046269129E+03  0.12509000000E+03 0.  0.
<mgrwt>
<rscale>  2 0.45637400E+03</rscale>
<asrwt>0</asrwt>
<pdfrwt beam="1">  1       21 0.11274074E-01 0.45637400E+03</pdfrwt>
<pdfrwt beam="2">  1       21 0.99881051E-01 0.45637400E+03</pdfrwt>
<totfact> 0.49437196E+04</totfact>
</mgrwt>
</event>
<event>
 7    0  0.4705418E-002  0.4615585E+03  0.7546771E-02  0.1024330E+00
         21   -1    0    0  502  501  0.00000000000E+00  0.00000000000E+00  0.10871368966E+03  0.10871368966E+03  0.00000000000E+00 0. -1.
         21   -1    0    0  501  502 -0.00000000000E+00 -0.00000000000E+00 -0.48990212188E+03  0.48990212188E+03  0.00000000000E+00 0. -1.
      99926    2    1    2    0    0  0.00000000000E+00  0.00000000000E+00 -0.38118843221E+03  0.59861581154E+03  0.46155852172E+03 0.  0.
      99925    2    3    3    0    0  0.62438010084E+02  0.46561793165E+02 -0.35570522154E+03  0.44907181195E+03  0.26281701234E+03 0.  0.
         25    1    3    3    0    0 -0.62438010084E+02 -0.46561793165E+02 -0.25483210673E+02  0.14954399959E+03  0.12509000000E+03 0.  0.
         25    1    4    4    0    0  0.23855684747E+02  0.36637353925E+02 -0.23966426140E+03  0.27385736377E+03  0.12509000000E+03 0.  0.
         25    1    4    4    0    0  0.38582325337E+02  0.99244392391E+01 -0.11604096014E+03  0.17521444819E+03  0.12509000000E+03 0.  0.
<mgrwt>
<rscale>  2 0.46155852E+03</rscale>
<asrwt>0</asrwt>
<pdfrwt beam="1">  1       21 0.15987308E-01 0.46155852E+03</pdfrwt>
<pdfrwt beam="2">  1       21 0.72044429E-01 0.46155852E+03</pdfrwt>
<totfact> 0.55814283E+04</totfact>
</mgrwt>
</event>
<event>
 7    0  0.4705418E-002  0.4576920E+03  0.7546771E-02  0.1025453E+00
         21   -1    0    0  502  501  0.00000000000E+00  0.00000000000E+00  0.34262489712E+02  0.34262489712E+02  0.00000000000E+00 0.  1.
         21   -1    0    0  501  502 -0.00000000000E+00 -0.00000000000E+00 -0.15285080746E+04  0.15285080746E+04  0.00000000000E+00 0.  1.
      99926    2    1    2    0    0  0.71054273576E-14  0.14210854715E-13 -0.14942455849E+04  0.15627705644E+04  0.45769200204E+03 0.  0.
      99925    2    3    3    0    0 -0.31508933324E+02 -0.10888172063E+03 -0.10262415403E+04  0.10652533930E+04  0.26219277289E+03 0.  0.
         25    1    4    4    0    0  0.86893984106E+01 -0.20200083621E+02 -0.44124420924E+03  0.45915956846E+03  0.12509000000E+03 0.  0.
         25    1    3    3    0    0  0.31508933324E+02  0.10888172063E+03 -0.46800404460E+03  0.49751717139E+03  0.12509000000E+03 0.  0.
         25    1    4    4    0    0 -0.40198331735E+02 -0.88681637005E+02 -0.58499733109E+03  0.60609382450E+03  0.12509000000E+03 0.  0.
<mgrwt>
<rscale>  2 0.45769200E+03</rscale>
<asrwt>0</asrwt>
<pdfrwt beam="1">  1       21 0.50386020E-02 0.45769200E+03</pdfrwt>
<pdfrwt beam="2">  1       21 0.22478057E+00 0.45769200E+03</pdfrwt>
<totfact> 0.21822029E+04</totfact>
</mgrwt>
</event>
<event>
 7    0  0.4705418E-002  0.4530286E+03  0.7546771E-02  0.1026823E+00
         21   -1    0    0  502  501  0.00000000000E+00  0.00000000000E+00  0.15673121767E+03  0.15673121767E+03  0.00000000000E+00 0.  1.
         21   -1    0    0  501  502 -0.00000000000E+00 -0.00000000000E+00 -0.32736763453E+03  0.32736763453E+03  0.00000000000E+00 0.  1.
      99926    2    1    2    0    0 -0.13322676296E-14  0.00000000000E+00 -0.17063641686E+03  0.48409885220E+03  0.45302859947E+03 0.  0.
      99925    2    3    3    0    0  0.27149258922E+01  0.98429197727E+02 -0.53717767339E+02  0.28658136818E+03  0.26371879772E+03 0.  0.
         25    1    3    3    0    0 -0.27149258922E+01 -0.98429197727E+02 -0.11691864952E+03  0.19751748402E+03  0.12509000000E+03 0.  0.
         25    1    4    4    0    0  0.39341492306E+02  0.59243744810E+02 -0.12809193651E+02  0.14446161379E+03  0.12509000000E+03 0.  0.
         25    1    4    4    0    0 -0.36626566413E+02  0.39185452917E+02 -0.40908573687E+02  0.14211975439E+03  0.12509000000E+03 0.  0.
<mgrwt>
<rscale>  2 0.45302860E+03</rscale>
<asrwt>0</asrwt>
<pdfrwt beam="1">  1       21 0.23048709E-01 0.45302860E+03</pdfrwt>
<pdfrwt beam="2">  1       21 0.48142299E-01 0.45302860E+03</pdfrwt>
<totfact> 0.67452374E+04</totfact>
</mgrwt>
</event>
<event>
 7    0  0.4705418E-002  0.4597588E+03  0.7546771E-02  0.1024851E+00
         21   -1    0    0  502  501  0.00000000000E+00  0.00000000000E+00  0.81858341745E+03  0.81858341745E+03  0.00000000000E+00 0.  1.
         21   -1    0    0  501  502 -0.00000000000E+00 -0.00000000000E+00 -0.64556089770E+02  0.64556089770E+02  0.00000000000E+00 0.  1.
      99926    2    1    2    0    0  0.00000000000E+00 -0.14210854715E-13  0.75402732768E+03  0.88313950722E+03  0.45975882626E+03 0.  0.
      99925    2    3    3    0    0 -0.25578098494E+02  0.11188282471E+03  0.42184009951E+03  0.51008740865E+03  0.26280808459E+03 0.  0.
         25    1    3    3    0    0  0.25578098494E+02 -0.11188282471E+03  0.33218722818E+03  0.37305209857E+03  0.12509000000E+03 0.  0.
         25    1    4    4    0    0 -0.30055691959E+02  0.26201406593E+02  0.23738107092E+03  0.27126949563E+03  0.12509000000E+03 0.  0.
         25    1    4    4    0    0  0.44775934651E+01  0.85681418114E+02  0.18445902859E+03  0.23881791302E+03  0.12509000000E+03 0.  0.
<mgrwt>
<rscale>  2 0.45975883E+03</rscale>
<asrwt>0</asrwt>
<pdfrwt beam="1">  1       21 0.12037991E+00 0.45975883E+03</pdfrwt>
<pdfrwt beam="2">  1       21 0.94935431E-02 0.45975883E+03</pdfrwt>
<totfact> 0.42369458E+04</totfact>
</mgrwt>
</event>
<event>
 7    0  0.4705418E-002  0.4529733E+03  0.7546771E-02  0.1026839E+00
         21   -1    0    0  502  501  0.00000000000E+00  0.00000000000E+00  0.38819751305E+03  0.38819751305E+03  0.00000000000E+00 0. -1.
         21   -1    0    0  501  502 -0.00000000000E+00 -0.00000000000E+00 -0.13213942398E+03  0.13213942398E+03  0.00000000000E+00 0. -1.
      99926    2    1    2    0    0 -0.14210854715E-13  0.00000000000E+00  0.25605808906E+03  0.52033693703E+03  0.45297326970E+03 0.  0.
      99925    2    3    3    0    0 -0.69999936045E+02 -0.85530440333E+02  0.17638762960E+03  0.33537656971E+03  0.26296273569E+03 0.  0.
         25    1    3    3    0    0  0.69999936045E+02  0.85530440333E+02  0.79670459465E+02  0.18496036733E+03  0.12509000000E+03 0.  0.
         25    1    4    4    0    0 -0.66870999387E+02 -0.18204802330E+02  0.93873730469E+02  0.17106411301E+03  0.12509000000E+03 0.  0.
         25    1    4    4    0    0 -0.31289366574E+01 -0.67325638003E+02  0.82513899130E+02  0.16431245670E+03  0.12509000000E+03 0.  0.
<mgrwt>
<rscale>  2 0.45297327E+03</rscale>
<asrwt>0</asrwt>
<pdfrwt beam="1">  1       21 0.57087869E-01 0.45297327E+03</pdfrwt>
<pdfrwt beam="2">  1       21 0.19432268E-01 0.45297327E+03</pdfrwt>
<totfact> 0.64901581E+04</totfact>
</mgrwt>
</event>
<event>
 7    0  0.4705418E-002  0.4416642E+03  0.7546771E-02  0.1030237E+00
         21   -1    0    0  502  501  0.00000000000E+00  0.00000000000E+00  0.47726422049E+03  0.47726422049E+03  0.00000000000E+00 0. -1.
         21   -1    0    0  501  502 -0.00000000000E+00 -0.00000000000E+00 -0.10217989645E+03  0.10217989645E+03  0.00000000000E+00 0. -1.
      99926    2    1    2    0    0  0.00000000000E+00  0.00000000000E+00  0.37508432404E+03  0.57944411695E+03  0.44166416487E+03 0.  0.
      99925    2    3    3    0    0  0.76856752450E+02 -0.64223997840E+02  0.23776648656E+03  0.36841004651E+03  0.26298550900E+03 0.  0.
         25    1    3    3    0    0 -0.76856752450E+02  0.64223997840E+02  0.13731783748E+03  0.21103407044E+03  0.12509000000E+03 0.  0.
         25    1    4    4    0    0  0.64009277302E+02 -0.67244516317E+00  0.11844930264E+03  0.18378080737E+03  0.12509000000E+03 0.  0.
         25    1    4    4    0    0  0.12847475148E+02 -0.63551552677E+02  0.11931718392E+03  0.18462923914E+03  0.12509000000E+03 0.  0.
<mgrwt>
<rscale>  2 0.44166416E+03</rscale>
<asrwt>0</asrwt>
<pdfrwt beam="1">  1       21 0.70185914E-01 0.44166416E+03</pdfrwt>
<pdfrwt beam="2">  1       21 0.15026456E-01 0.44166416E+03</pdfrwt>
<totfact> 0.66722703E+04</totfact>
</mgrwt>
</event>
<event>
 7    0  0.4705418E-002  0.4604465E+03  0.7546771E-02  0.1024652E+00
         21   -1    0    0  502  501  0.00000000000E+00  0.00000000000E+00  0.53614588221E+03  0.53614588221E+03  0.00000000000E+00 0.  1.
         21   -1    0    0  501  502 -0.00000000000E+00 -0.00000000000E+00 -0.98858819264E+02  0.98858819264E+02  0.00000000000E+00 0.  1.
      99926    2    1    2    0    0  0.00000000000E+00 -0.71054273576E-14  0.43728706295E+03  0.63500470148E+03  0.46044651750E+03 0.  0.
      99925    2    3    3    0    0  0.10565080110E+03 -0.52120824488E+02  0.28770596144E+03  0.40718748056E+03  0.26296055209E+03 0.  0.
         25    1    4    4    0    0  0.50566255236E+02  0.15124746326E+02  0.13191306983E+03  0.18929941947E+03  0.12509000000E+03 0.  0.
         25    1    3    3    0    0 -0.10565080110E+03  0.52120824488E+02  0.14958110151E+03  0.22781722092E+03  0.12509000000E+03 0.  0.
         25    1    4    4    0    0  0.55084545868E+02 -0.67245570814E+02  0.15579289161E+03  0.21788806108E+03  0.12509000000E+03 0.  0.
<mgrwt>
<rscale>  2 0.46044652E+03</rscale>
<asrwt>0</asrwt>
<pdfrwt beam="1">  1       21 0.78844981E-01 0.46044652E+03</pdfrwt>
<pdfrwt beam="2">  1       21 0.14538062E-01 0.46044652E+03</pdfrwt>
<totfact> 0.54205585E+04</totfact>
</mgrwt>
</event>
<event>
 7    0  0.4705418E-002  0.4523181E+03  0.7546771E-02  0.1027033E+00
         21   -1    0    0  502  501  0.00000000000E+00  0.00000000000E+00  0.22266314863E+03  0.22266314863E+03  0.00000000000E+00 0.  1.
         21   -1    0    0  501  502 -0.00000000000E+00 -0.00000000000E+00 -0.22970979073E+03  0.22970979073E+03  0.00000000000E+00 0.  1.
      99926    2    1    2    0    0  0.00000000000E+00  0.00000000000E+00 -0.70466420954E+01  0.45237293936E+03  0.45231805303E+03 0.  0.
      99925    2    3    3    0    0 -0.83006088590E+02 -0.29411533885E+02 -0.71461790779E+02  0.28638538395E+03  0.26297291026E+03 0.  0.
         25    1    4    4    0    0 -0.67967111804E+02  0.12456231151E+02 -0.52638434548E+02  0.15229247806E+03  0.12509000000E+03 0.  0.
         25    1    4    4    0    0 -0.15038976786E+02 -0.41867765035E+02 -0.18823356232E+02  0.13409290590E+03  0.12509000000E+03 0.  0.
         25    1    3    3    0    0  0.83006088590E+02  0.29411533885E+02  0.64415148684E+02  0.16598755540E+03  0.12509000000E+03 0.  0.
<mgrwt>
<rscale>  2 0.45231805E+03</rscale>
<asrwt>0</asrwt>
<pdfrwt beam="1">  1       21 0.32744581E-01 0.45231805E+03</pdfrwt>
<pdfrwt beam="2">  1       21 0.33780852E-01 0.45231805E+03</pdfrwt>
<totfact> 0.70229541E+04</totfact>
</mgrwt>
</event>
<event>
 7    0  0.4705418E-002  0.4210946E+03  0.7546771E-02  0.1036711E+00
         21   -1    0    0  502  501  0.00000000000E+00  0.00000000000E+00  0.20375161079E+03  0.20375161079E+03  0.00000000000E+00 0. -1.
         21   -1    0    0  501  502 -0.00000000000E+00 -0.00000000000E+00 -0.21756963317E+03  0.21756963317E+03  0.00000000000E+00 0. -1.
      99926    2    1    2    0    0 -0.35527136788E-14  0.00000000000E+00 -0.13818022381E+02  0.42132124396E+03  0.42109458899E+03 0.  0.
      99925    2    3    3    0    0 -0.21241310415E+02 -0.52415290712E+02 -0.61418223620E+02  0.27602209315E+03  0.26309207846E+03 0.  0.
         25    1    3    3    0    0  0.21241310415E+02  0.52415290712E+02  0.47600201239E+02  0.14529915081E+03  0.12509000000E+03 0.  0.
         25    1    4    4    0    0 -0.50939436862E+02 -0.27342498277E+02 -0.38097172255E+02  0.14297321803E+03  0.12509000000E+03 0.  0.
         25    1    4    4    0    0  0.29698126447E+02 -0.25072792435E+02 -0.23321051365E+02  0.13304887512E+03  0.12509000000E+03 0.  0.
<mgrwt>
<rscale>  2 0.42109459E+03</rscale>
<asrwt>0</asrwt>
<pdfrwt beam="1">  1       21 0.29963472E-01 0.42109459E+03</pdfrwt>
<pdfrwt beam="2">  1       21 0.31995534E-01 0.42109459E+03</pdfrwt>
<totfact> 0.94075515E+04</totfact>
</mgrwt>
</event>
<event>
 7    0  0.4705418E-002  0.4572598E+03  0.7546771E-02  0.1025579E+00
         21   -1    0    0  502  501  0.00000000000E+00  0.00000000000E+00  0.27018015647E+03  0.27018015647E+03  0.00000000000E+00 0. -1.
         21   -1    0    0  501  502 -0.00000000000E+00 -0.00000000000E+00 -0.19346956853E+03  0.19346956853E+03  0.00000000000E+00 0. -1.
      99926    2    1    2    0    0  0.14210854715E-13 -0.14210854715E-13  0.76710587938E+02  0.46364972500E+03  0.45725983116E+03 0.  0.
      99925    2    3    3    0    0  0.72483459725E+02 -0.83507116244E+02  0.15208992585E+02  0.28572489613E+03  0.26302112542E+03 0.  0.
         25    1    4    4    0    0  0.34199043555E+02 -0.83780904020E+02  0.42449625371E+01  0.15444851008E+03  0.12509000000E+03 0.  0.
         25    1    4    4    0    0  0.38284416170E+02  0.27378777556E+00  0.10964030048E+02  0.13127638606E+03  0.12509000000E+03 0.  0.
         25    1    3    3    0    0 -0.72483459725E+02  0.83507116244E+02  0.61501595353E+02  0.17792482887E+03  0.12509000000E+03 0.  0.
<mgrwt>
<rscale>  2 0.45725983E+03</rscale>
<asrwt>0</asrwt>
<pdfrwt beam="1">  1       21 0.39732376E-01 0.45725983E+03</pdfrwt>
<pdfrwt beam="2">  1       21 0.28451407E-01 0.45725983E+03</pdfrwt>
<totfact> 0.66704072E+04</totfact>
</mgrwt>
</event>
<event>
 7    0  0.4705418E-002  0.4530184E+03  0.7546771E-02  0.1026826E+00
         21   -1    0    0  502  501  0.00000000000E+00  0.00000000000E+00  0.75892870508E+02  0.75892870508E+02  0.00000000000E+00 0.  1.
         21   -1    0    0  501  502 -0.00000000000E+00 -0.00000000000E+00 -0.67603730182E+03  0.67603730182E+03  0.00000000000E+00 0.  1.
      99926    2    1    2    0    0  0.00000000000E+00  0.71054273576E-14 -0.60014443131E+03  0.75193017233E+03  0.45301837228E+03 0.  0.
      99925    2    3    3    0    0  0.60273194122E+02  0.48139739759E+02 -0.24394598981E+03  0.36660546471E+03  0.26256357009E+03 0.  0.
         25    1    3    3    0    0 -0.60273194122E+02 -0.48139739759E+02 -0.35619844150E+03  0.38532470762E+03  0.12509000000E+03 0.  0.
         25    1    4    4    0    0  0.10840141158E+02  0.52967052847E+02 -0.96577682822E+02  0.16702626819E+03  0.12509000000E+03 0.  0.
         25    1    4    4    0    0  0.49433052965E+02 -0.48273130881E+01 -0.14736830699E+03  0.19957919651E+03  0.12509000000E+03 0.  0.
<mgrwt>
<rscale>  2 0.45301837E+03</rscale>
<asrwt>0</asrwt>
<pdfrwt beam="1">  1       21 0.11160717E-01 0.45301837E+03</pdfrwt>
<pdfrwt beam="2">  1       21 0.99417247E-01 0.45301837E+03</pdfrwt>
<totfact> 0.50961565E+04</totfact>
</mgrwt>
</event>
<event>
 7    0  0.4705418E-002  0.4440010E+03  0.7546771E-02  0.1029526E+00
         21   -1    0    0  502  501  0.00000000000E+00  0.00000000000E+00  0.88161083895E+02  0.88161083895E+02  0.00000000000E+00 0. -1.
         21   -1    0    0  501  502 -0.00000000000E+00 -0.00000000000E+00 -0.55902476407E+03  0.55902476407E+03  0.00000000000E+00 0. -1.
      99926    2    1    2    0    0 -0.35527136788E-14 -0.14210854715E-13 -0.47086368018E+03  0.64718584797E+03  0.44400103209E+03 0.  0.
      99925    2    3    3    0    0  0.31106299216E+02  0.77331503515E+02 -0.21182419766E+03  0.34769173302E+03  0.26281607106E+03 0.  0.
         25    1    4    4    0    0  0.19141471085E+02  0.35992635790E+02 -0.15609930386E+03  0.20414790352E+03  0.12509000000E+03 0.  0.
         25    1    3    3    0    0 -0.31106299216E+02 -0.77331503515E+02 -0.25903948252E+03  0.29949411495E+03  0.12509000000E+03 0.  0.
         25    1    4    4    0    0  0.11964828131E+02  0.41338867725E+02 -0.55724893797E+02  0.14354382949E+03  0.12509000000E+03 0.  0.
<mgrwt>
<rscale>  2 0.44400103E+03</rscale>
<asrwt>0</asrwt>
<pdfrwt beam="1">  1       21 0.12964865E-01 0.44400103E+03</pdfrwt>
<pdfrwt beam="2">  1       21 0.82209524E-01 0.44400103E+03</pdfrwt>
<totfact> 0.60985884E+04</totfact>
</mgrwt>
</event>
<event>
 7    0  0.4705418E-002  0.4511790E+03  0.7546771E-02  0.1027371E+00
         21   -1    0    0  502  501  0.00000000000E+00  0.00000000000E+00  0.12737207207E+03  0.12737207207E+03  0.00000000000E+00 0.  1.
         21   -1    0    0  501  502 -0.00000000000E+00 -0.00000000000E+00 -0.39954297403E+03  0.39954297403E+03  0.00000000000E+00 0.  1.
      99926    2    1    2    0    0  0.00000000000E+00  0.00000000000E+00 -0.27217090196E+03  0.52691504610E+03  0.45117897328E+03 0.  0.
      99925    2    3    3    0    0 -0.26785435280E+02  0.69861430041E+02 -0.26531614552E+03  0.38099529166E+03  0.26299558217E+03 0.  0.
         25    1    4    4    0    0 -0.24528395514E+02 -0.42394882154E+01 -0.11274011501E+03  0.17022766250E+03  0.12509000000E+03 0.  0.
         25    1    4    4    0    0 -0.22570397662E+01  0.74100918257E+02 -0.15257603052E+03  0.21076762916E+03  0.12509000000E+03 0.  0.
         25    1    3    3    0    0  0.26785435280E+02 -0.69861430041E+02 -0.68547564385E+01  0.14591975444E+03  0.12509000000E+03 0.  0.
<mgrwt>
<rscale>  2 0.45117897E+03</rscale>
<asrwt>0</asrwt>
<pdfrwt beam="1">  1       21 0.18731187E-01 0.45117897E+03</pdfrwt>
<pdfrwt beam="2">  1       21 0.58756319E-01 0.45117897E+03</pdfrwt>
<totfact> 0.65373402E+04</totfact>
</mgrwt>
</event>
<event>
 7    0  0.4705418E-002  0.4551547E+03  0.7546771E-02  0.1026196E+00
         21   -1    0    0  502  501  0.00000000000E+00  0.00000000000E+00  0.10019099796E+04  0.10019099796E+04  0.00000000000E+00 0.  1.
         21   -1    0    0  501  502 -0.00000000000E+00 -0.00000000000E+00 -0.51692726514E+02  0.51692726514E+02  0.00000000000E+00 0.  1.
      99926    2    1    2    0    0  0.14210854715E-13  0.14210854715E-13  0.95021725310E+03  0.10536027061E+04  0.45515473663E+03 0.  0.
      99925    2    3    3    0    0 -0.71189504336E+02 -0.76093329838E+02  0.49370227482E+03  0.56892593356E+03  0.26282435454E+03 0.  0.
         25    1    4    4    0    0 -0.51304735524E+02 -0.51079969651E+02  0.33133216558E+03  0.36148285054E+03  0.12509000000E+03 0.  0.
         25    1    4    4    0    0 -0.19884768812E+02 -0.25013360187E+02  0.16237010924E+03  0.20744308302E+03  0.12509000000E+03 0.  0.
         25    1    3    3    0    0  0.71189504336E+02  0.76093329838E+02  0.45651497828E+03  0.48467677257E+03  0.12509000000E+03 0.  0.
<mgrwt>
<rscale>  2 0.45515474E+03</rscale>
<asrwt>0</asrwt>
<pdfrwt beam="1">  1       21 0.14733969E+00 0.45515474E+03</pdfrwt>
<pdfrwt beam="2">  1       21 0.76018722E-02 0.45515474E+03</pdfrwt>
<totfact> 0.37100644E+04</totfact>
</mgrwt>
</event>
<event>
 7    0  0.4705418E-002  0.4590360E+03  0.7546771E-02  0.1025061E+00
         21   -1    0    0  502  501  0.00000000000E+00  0.00000000000E+00  0.21895590435E+03  0.21895590435E+03  0.00000000000E+00 0. -1.
         21   -1    0    0  501  502 -0.00000000000E+00 -0.00000000000E+00 -0.24058957442E+03  0.24058957442E+03  0.00000000000E+00 0. -1.
      99926    2    1    2    0    0  0.00000000000E+00 -0.14210854715E-13 -0.21633670073E+02  0.45954547877E+03  0.45903598048E+03 0.  0.
      99925    2    3    3    0    0  0.93595599219E+02 -0.69457907326E+02 -0.17639668184E+02  0.28852502025E+03  0.26334576574E+03 0.  0.
         25    1    4    4    0    0  0.47381460887E+02 -0.64894534889E+02  0.19684976608E+02  0.14997103020E+03  0.12509000000E+03 0.  0.
         25    1    3    3    0    0 -0.93595599219E+02  0.69457907326E+02 -0.39940018887E+01  0.17102045853E+03  0.12509000000E+03 0.  0.
         25    1    4    4    0    0  0.46214138332E+02 -0.45633724368E+01 -0.37324644793E+02  0.13855399005E+03  0.12509000000E+03 0.  0.
<mgrwt>
<rscale>  2 0.45903598E+03</rscale>
<asrwt>0</asrwt>
<pdfrwt beam="1">  1       21 0.32199398E-01 0.45903598E+03</pdfrwt>
<pdfrwt beam="2">  1       21 0.35380820E-01 0.45903598E+03</pdfrwt>
<totfact> 0.66060993E+04</totfact>
</mgrwt>
</event>
<event>
 7    0  0.4705418E-002  0.4566969E+03  0.7546771E-02  0.1025744E+00
         21   -1    0    0  502  501  0.00000000000E+00  0.00000000000E+00  0.11187969851E+03  0.11187969851E+03  0.00000000000E+00 0. -1.
         21   -1    0    0  501  502 -0.00000000000E+00 -0.00000000000E+00 -0.46606319017E+03  0.46606319017E+03  0.00000000000E+00 0. -1.
      99926    2    1    2    0    0 -0.14210854715E-13 -0.35527136788E-14 -0.35418349166E+03  0.57794288868E+03  0.45669687628E+03 0.  0.
      99925    2    3    3    0    0  0.67545513614E+02  0.20594845687E+02 -0.10787940255E+03  0.29281176710E+03  0.26289583750E+03 0.  0.
         25    1    3    3    0    0 -0.67545513614E+02 -0.20594845687E+02 -0.24630408912E+03  0.28513112158E+03  0.12509000000E+03 0.  0.
         25    1    4    4    0    0  0.43160465070E+02  0.14353932638E+02 -0.97106260099E+02  0.16476041690E+03  0.12509000000E+03 0.  0.
         25    1    4    4    0    0  0.24385048544E+02  0.62409130490E+01 -0.10773142448E+02  0.12805135019E+03  0.12509000000E+03 0.  0.
<mgrwt>
<rscale>  2 0.45669688E+03</rscale>
<asrwt>0</asrwt>
<pdfrwt beam="1">  1       21 0.16452897E-01 0.45669688E+03</pdfrwt>
<pdfrwt beam="2">  1       21 0.68538702E-01 0.45669688E+03</pdfrwt>
<totfact> 0.59257901E+04</totfact>
</mgrwt>
</event>
<event>
 7    0  0.4705418E-002  0.4549845E+03  0.7546771E-02  0.1026246E+00
         21   -1    0    0  502  501  0.00000000000E+00  0.00000000000E+00  0.44842122858E+03  0.44842122858E+03  0.00000000000E+00 0.  1.
         21   -1    0    0  501  502 -0.00000000000E+00 -0.00000000000E+00 -0.11541095449E+03  0.11541095449E+03  0.00000000000E+00 0.  1.
      99926    2    1    2    0    0  0.71054273576E-14  0.15543122345E-14  0.33301027409E+03  0.56383218308E+03  0.45498449207E+03 0.  0.
      99925    2    3    3    0    0 -0.36372652959E+02 -0.11174794277E+01  0.76879643801E+02  0.27647417202E+03  0.26306514311E+03 0.  0.
         25    1    4    4    0    0 -0.19286733736E+02 -0.37813032581E+02  0.55453986282E+02  0.14326359002E+03  0.12509000000E+03 0.  0.
         25    1    4    4    0    0 -0.17085919223E+02  0.36695553154E+02  0.21425657520E+02  0.13321058200E+03  0.12509000000E+03 0.  0.
         25    1    3    3    0    0  0.36372652959E+02  0.11174794277E+01  0.25613063029E+03  0.28735801105E+03  0.12509000000E+03 0.  0.
<mgrwt>
<rscale>  2 0.45498449E+03</rscale>
<asrwt>0</asrwt>
<pdfrwt beam="1">  1       21 0.65944298E-01 0.45498449E+03</pdfrwt>
<pdfrwt beam="2">  1       21 0.16972199E-01 0.45498449E+03</pdfrwt>
<totfact> 0.60969097E+04</totfact>
</mgrwt>
</event>
<event>
 7    0  0.4705418E-002  0.4567620E+03  0.7546771E-02  0.1025725E+00
         21   -1    0    0  502  501  0.00000000000E+00  0.00000000000E+00  0.95373469251E+02  0.95373469251E+02  0.00000000000E+00 0. -1.
         21   -1    0    0  501  502 -0.00000000000E+00 -0.00000000000E+00 -0.54688045875E+03  0.54688045875E+03  0.00000000000E+00 0. -1.
      99926    2    1    2    0    0  0.00000000000E+00  0.28421709430E-13 -0.45150698949E+03  0.64225392800E+03  0.45676202389E+03 0.  0.
      99925    2    3    3    0    0 -0.37173836526E+02  0.81067906796E+02 -0.38532094916E+03  0.47497571761E+03  0.26301292521E+03 0.  0.
         25    1    4    4    0    0 -0.44569903989E+02  0.98784526031E+01 -0.17165908743E+03  0.21725195181E+03  0.12509000000E+03 0.  0.
         25    1    3    3    0    0  0.37173836526E+02 -0.81067906796E+02 -0.66186040335E+02  0.16727821038E+03  0.12509000000E+03 0.  0.
         25    1    4    4    0    0  0.73960674635E+01  0.71189454193E+02 -0.21366186173E+03  0.25772376580E+03  0.12509000000E+03 0.  0.
<mgrwt>
<rscale>  2 0.45676202E+03</rscale>
<asrwt>0</asrwt>
<pdfrwt beam="1">  1       21 0.14025510E-01 0.45676202E+03</pdfrwt>
<pdfrwt beam="2">  1       21 0.80423598E-01 0.45676202E+03</pdfrwt>
<totfact> 0.55375970E+04</totfact>
</mgrwt>
</event>
<event>
 7    0  0.4705418E-002  0.4440381E+03  0.7546771E-02  0.1029515E+00
         21   -1    0    0  502  501  0.00000000000E+00  0.00000000000E+00  0.38541726699E+03  0.38541726699E+03  0.00000000000E+00 0. -1.
         21   -1    0    0  501  502 -0.00000000000E+00 -0.00000000000E+00 -0.12789372718E+03  0.12789372718E+03  0.00000000000E+00 0. -1.
      99926    2    1    2    0    0 -0.17763568394E-14  0.88817841970E-15  0.25752353981E+03  0.51331099416E+03  0.44403806500E+03 0.  0.
      99925    2    3    3    0    0 -0.10124780032E+02 -0.75310620341E+01  0.28138425208E+03  0.38534197543E+03  0.26296789280E+03 0.  0.
         25    1    3    3    0    0  0.10124780032E+02  0.75310620341E+01 -0.23860712270E+02  0.12796901874E+03  0.12509000000E+03 0.  0.
         25    1    4    4    0    0  0.54678808911E+01 -0.10952053116E+02  0.84207917743E+02  0.15128888492E+03  0.12509000000E+03 0.  0.
         25    1    4    4    0    0 -0.15592660923E+02  0.34209910819E+01  0.19717633434E+03  0.23405309051E+03  0.12509000000E+03 0.  0.
<mgrwt>
<rscale>  2 0.44403807E+03</rscale>
<asrwt>0</asrwt>
<pdfrwt beam="1">  1       21 0.56679009E-01 0.44403807E+03</pdfrwt>
<pdfrwt beam="2">  1       21 0.18807901E-01 0.44403807E+03</pdfrwt>
<totfact> 0.70259767E+04</totfact>
</mgrwt>
</event>
<event>
 7    0  0.4705418E-002  0.4601841E+03  0.7546771E-02  0.1024728E+00
         21   -1    0    0  502  501  0.00000000000E+00  0.00000000000E+00  0.47191307112E+03  0.47191307112E+03  0.00000000000E+00 0. -1.
         21   -1    0    0  501  502 -0.00000000000E+00 -0.00000000000E+00 -0.11218668086E+03  0.11218668086E+03  0.00000000000E+00 0. -1.
      99926    2    1    2    0    0 -0.35527136788E-14  0.00000000000E+00  0.35972639026E+03  0.58409975197E+03  0.46018414185E+03 0.  0.
      99925    2    3    3    0    0 -0.30615351633E+02 -0.57402732179E+02  0.35025651867E+03  0.44278605842E+03  0.26295910565E+03 0.  0.
         25    1    4    4    0    0 -0.46395143327E+02 -0.14900661010E+02  0.21180674629E+03  0.25076711287E+03  0.12509000000E+03 0.  0.
         25    1    4    4    0    0  0.15779791694E+02 -0.42502071169E+02  0.13844977237E+03  0.19201894555E+03  0.12509000000E+03 0.  0.
         25    1    3    3    0    0  0.30615351633E+02  0.57402732179E+02  0.94698715934E+01  0.14131369355E+03  0.12509000000E+03 0.  0.
<mgrwt>
<rscale>  2 0.46018414E+03</rscale>
<asrwt>0</asrwt>
<pdfrwt beam="1">  1       21 0.69398981E-01 0.46018414E+03</pdfrwt>
<pdfrwt beam="2">  1       21 0.16498041E-01 0.46018414E+03</pdfrwt>
<totfact> 0.57283934E+04</totfact>
</mgrwt>
</event>
<event>
 7    0  0.4705418E-002  0.4587519E+03  0.7546771E-02  0.1025144E+00
         21   -1    0    0  502  501  0.00000000000E+00  0.00000000000E+00  0.31851576649E+03  0.31851576649E+03  0.00000000000E+00 0.  1.
         21   -1    0    0  501  502 -0.00000000000E+00 -0.00000000000E+00 -0.16518280329E+03  0.16518280329E+03  0.00000000000E+00 0.  1.
      99926    2    1    2    0    0  0.35527136788E-14  0.00000000000E+00  0.15333296320E+03  0.48369856978E+03  0.45875190332E+03 0.  0.
      99925    2    3    3    0    0 -0.23392342991E+02  0.35130944857E+02 -0.18378530077E+02  0.26710279414E+03  0.26310596207E+03 0.  0.
         25    1    4    4    0    0 -0.48542161941E+02  0.31368446010E+02 -0.21230732042E+02  0.13942228292E+03  0.12509000000E+03 0.  0.
         25    1    4    4    0    0  0.25149818950E+02  0.37624988471E+01  0.28522019648E+01  0.12768051123E+03  0.12509000000E+03 0.  0.
         25    1    3    3    0    0  0.23392342991E+02 -0.35130944857E+02  0.17171149328E+03  0.21659577563E+03  0.12509000000E+03 0.  0.
<mgrwt>
<rscale>  2 0.45875190E+03</rscale>
<asrwt>0</asrwt>
<pdfrwt beam="1">  1       21 0.46840554E-01 0.45875190E+03</pdfrwt>
<pdfrwt beam="2">  1       21 0.24291589E-01 0.45875190E+03</pdfrwt>
<totfact> 0.64489716E+04</totfact>
</mgrwt>
</event>
<event>
 7    0  0.4705418E-002  0.4552548E+03  0.7546771E-02  0.1026167E+00
         21   -1    0    0  502  501  0.00000000000E+00  0.00000000000E+00  0.19629872219E+04  0.19629872219E+04  0.00000000000E+00 0.  1.
         21   -1    0    0  501  502 -0.00000000000E+00 -0.00000000000E+00 -0.26395599188E+02  0.26395599188E+02  0.00000000000E+00 0.  1.
      99926    2    1    2    0    0  0.00000000000E+00  0.00000000000E+00  0.19365916227E+04  0.19893828211E+04  0.45525475910E+03 0.  0.
      99925    2    3    3    0    0 -0.82782602832E+02  0.68450852570E+02  0.10592044496E+04  0.10966374833E+04  0.26298521844E+03 0.  0.
         25    1    4    4    0    0 -0.28634495563E+02  0.34018543694E+02  0.66477765407E+03  0.67790414743E+03  0.12509000000E+03 0.  0.
         25    1    3    3    0    0  0.82782602832E+02 -0.68450852570E+02  0.87738717309E+03  0.89274533779E+03  0.12509000000E+03 0.  0.
         25    1    4    4    0    0 -0.54148107268E+02  0.34432308877E+02  0.39442679556E+03  0.41873333587E+03  0.12509000000E+03 0.  0.
<mgrwt>
<rscale>  2 0.45525476E+03</rscale>
<asrwt>0</asrwt>
<pdfrwt beam="1">  1       21 0.28867449E+00 0.45525476E+03</pdfrwt>
<pdfrwt beam="2">  1       21 0.38817071E-02 0.45525476E+03</pdfrwt>
<totfact> 0.13856419E+04</totfact>
</mgrwt>
</event>
<event>
 7    0  0.4705418E-002  0.4528375E+03  0.7546771E-02  0.1026879E+00
         21   -1    0    0  502  501  0.00000000000E+00  0.00000000000E+00  0.55061709727E+03  0.55061709727E+03  0.00000000000E+00 0. -1.
         21   -1    0    0  501  502 -0.00000000000E+00 -0.00000000000E+00 -0.93105448866E+02  0.93105448866E+02  0.00000000000E+00 0. -1.
      99926    2    1    2    0    0  0.00000000000E+00  0.00000000000E+00  0.45751164841E+03  0.64372254614E+03  0.45283750726E+03 0.  0.
      99925    2    3    3    0    0  0.95628527909E+02  0.33108554795E+02  0.35361569578E+03  0.45219482276E+03  0.26304962588E+03 0.  0.
         25    1    4    4    0    0  0.60619512676E+02 -0.20433488207E+02  0.15929082627E+03  0.21239898350E+03  0.12509000000E+03 0.  0.
         25    1    3    3    0    0 -0.95628527909E+02 -0.33108554795E+02  0.10389595262E+03  0.19152772338E+03  0.12509000000E+03 0.  0.
         25    1    4    4    0    0  0.35009015234E+02  0.53542043002E+02  0.19432486951E+03  0.23979583926E+03  0.12509000000E+03 0.  0.
<mgrwt>
<rscale>  2 0.45283751E+03</rscale>
<asrwt>0</asrwt>
<pdfrwt beam="1">  1       21 0.80973101E-01 0.45283751E+03</pdfrwt>
<pdfrwt beam="2">  1       21 0.13691978E-01 0.45283751E+03</pdfrwt>
<totfact> 0.57031506E+04</totfact>
</mgrwt>
</event>
<event>
 7    0  0.4705418E-002  0.4480483E+03  0.7546771E-02  0.1028306E+00
         21   -1    0    0  502  501  0.00000000000E+00  0.00000000000E+00  0.54810609217E+02  0.54810609217E+02  0.00000000000E+00 0. -1.
         21   -1    0    0  501  502 -0.00000000000E+00 -0.00000000000E+00 -0.91564044958E+03  0.91564044958E+03  0.00000000000E+00 0. -1.
      99926    2    1    2    0    0  0.00000000000E+00  0.00000000000E+00 -0.86082984037E+03  0.97045105880E+03  0.44804826019E+03 0.  0.
      99925    2    3    3    0    0  0.19772486981E+02  0.90639721971E+02 -0.43203962877E+03  0.51425475883E+03  0.26304601445E+03 0.  0.
         25    1    4    4    0    0  0.43297551210E+02  0.70757808757E+02 -0.23120588580E+03  0.27565379586E+03  0.12509000000E+03 0.  0.
         25    1    4    4    0    0 -0.23525064229E+02  0.19881913214E+02 -0.20083374296E+03  0.23860096298E+03  0.12509000000E+03 0.  0.
         25    1    3    3    0    0 -0.19772486981E+02 -0.90639721971E+02 -0.42879021160E+03  0.45619629997E+03  0.12509000000E+03 0.  0.
<mgrwt>
<rscale>  2 0.44804826E+03</rscale>
<asrwt>0</asrwt>
<pdfrwt beam="1">  1       21 0.80603843E-02 0.44804826E+03</pdfrwt>
<pdfrwt beam="2">  1       21 0.13465300E+00 0.44804826E+03</pdfrwt>
<totfact> 0.42591664E+04</totfact>
</mgrwt>
</event>
<event>
 7    0  0.4705418E-002  0.4563334E+03  0.7546771E-02  0.1025850E+00
         21   -1    0    0  502  501  0.00000000000E+00  0.00000000000E+00  0.15260688995E+04  0.15260688995E+04  0.00000000000E+00 0.  1.
         21   -1    0    0  501  502 -0.00000000000E+00 -0.00000000000E+00 -0.34113829234E+02  0.34113829234E+02  0.00000000000E+00 0.  1.
      99926    2    1    2    0    0  0.00000000000E+00  0.00000000000E+00  0.14919550703E+04  0.15601827287E+04  0.45633344754E+03 0.  0.
      99925    2    3    3    0    0 -0.20556457403E+02 -0.70921636072E+02  0.63700819196E+03  0.69298372088E+03  0.26266814495E+03 0.  0.
         25    1    3    3    0    0  0.20556457403E+02  0.70921636072E+02  0.85494687831E+03  0.86719900786E+03  0.12509000000E+03 0.  0.
         25    1    4    4    0    0 -0.20357781000E+01 -0.73759773076E+02  0.37176334357E+03  0.39912421656E+03  0.12509000000E+03 0.  0.
         25    1    4    4    0    0 -0.18520679303E+02  0.28381370035E+01  0.26524484839E+03  0.29385950432E+03  0.12509000000E+03 0.  0.
<mgrwt>
<rscale>  2 0.45633345E+03</rscale>
<asrwt>0</asrwt>
<pdfrwt beam="1">  1       21 0.22442185E+00 0.45633345E+03</pdfrwt>
<pdfrwt beam="2">  1       21 0.50167406E-02 0.45633345E+03</pdfrwt>
<totfact> 0.22112094E+04</totfact>
</mgrwt>
</event>
<event>
 7    0  0.4705418E-002  0.4378991E+03  0.7546771E-02  0.1031393E+00
         21   -1    0    0  502  501  0.00000000000E+00  0.00000000000E+00  0.44294796923E+02  0.44294796923E+02  0.00000000000E+00 0.  1.
         21   -1    0    0  501  502 -0.00000000000E+00 -0.00000000000E+00 -0.10822695053E+04  0.10822695053E+04  0.00000000000E+00 0.  1.
      99926    2    1    2    0    0  0.22204460493E-15  0.00000000000E+00 -0.10379747083E+04  0.11265643022E+04  0.43789911145E+03 0.  0.
      99925    2    3    3    0    0 -0.45454666251E+00 -0.87752507444E+02 -0.56195276777E+03  0.62661920002E+03  0.26298288814E+03 0.  0.
         25    1    4    4    0    0  0.15906354187E+02 -0.45996113296E+02 -0.36618920967E+03  0.39001371760E+03  0.12509000000E+03 0.  0.
         25    1    4    4    0    0 -0.16360900850E+02 -0.41756394148E+02 -0.19576355810E+03  0.23660548241E+03  0.12509000000E+03 0.  0.
         25    1    3    3    0    0  0.45454666251E+00  0.87752507444E+02 -0.47602194058E+03  0.49994510218E+03  0.12509000000E+03 0.  0.
<mgrwt>
<rscale>  2 0.43789911E+03</rscale>
<asrwt>0</asrwt>
<pdfrwt beam="1">  1       21 0.65139406E-02 0.43789911E+03</pdfrwt>
<pdfrwt beam="2">  1       21 0.15915728E+00 0.43789911E+03</pdfrwt>
<totfact> 0.39595546E+04</totfact>
</mgrwt>
</event>
<event>
 7    0  0.4705418E-002  0.4514173E+03  0.7546771E-02  0.1027300E+00
         21   -1    0    0  502  501  0.00000000000E+00  0.00000000000E+00  0.27298064181E+03  0.27298064181E+03  0.00000000000E+00 0.  1.
         21   -1    0    0  501  502 -0.00000000000E+00 -0.00000000000E+00 -0.18662275953E+03  0.18662275953E+03  0.00000000000E+00 0.  1.
      99926    2    1    2    0    0  0.00000000000E+00  0.00000000000E+00  0.86357882282E+02  0.45960340134E+03  0.45141732653E+03 0.  0.
      99925    2    3    3    0    0  0.50377096681E+02  0.60026296239E+02 -0.23317204991E+02  0.27570902682E+03  0.26330736282E+03 0.  0.
         25    1    4    4    0    0  0.27453081666E+02  0.83895845853E+01 -0.46505287733E+02  0.13650753353E+03  0.12509000000E+03 0.  0.
         25    1    3    3    0    0 -0.50377096681E+02 -0.60026296239E+02  0.10967508727E+03  0.18389437452E+03  0.12509000000E+03 0.  0.
         25    1    4    4    0    0  0.22924015015E+02  0.51636711654E+02  0.23188082742E+02  0.13920149330E+03  0.12509000000E+03 0.  0.
<mgrwt>
<rscale>  2 0.45141733E+03</rscale>
<asrwt>0</asrwt>
<pdfrwt beam="1">  1       21 0.40144212E-01 0.45141733E+03</pdfrwt>
<pdfrwt beam="2">  1       21 0.27444523E-01 0.45141733E+03</pdfrwt>
<totfact> 0.70190470E+04</totfact>
</mgrwt>
</event>
<event>
 7    0  0.4705418E-002  0.4576945E+03  0.7546771E-02  0.1025452E+00
         21   -1    0    0  502  501  0.00000000000E+00  0.00000000000E+00  0.15848621470E+03  0.15848621470E+03  0.00000000000E+00 0. -1.
         21   -1    0    0  501  502 -0.00000000000E+00 -0.00000000000E+00 -0.33044549663E+03  0.33044549663E+03  0.00000000000E+00 0. -1.
      99926    2    1    2    0    0  0.00000000000E+00  0.14210854715E-13 -0.17195928192E+03  0.48893171133E+03  0.45769446545E+03 0.  0.
      99925    2    3    3    0    0  0.19879290374E+02  0.74734763133E+02 -0.16148144697E+02  0.27467698072E+03  0.26307073222E+03 0.  0.
         25    1    4    4    0    0  0.42704875479E+02  0.35331731474E+02  0.15936446238E+02  0.13774438666E+03  0.12509000000E+03 0.  0.
         25    1    3    3    0    0 -0.19879290374E+02 -0.74734763133E+02 -0.15581113723E+03  0.21425473061E+03  0.12509000000E+03 0.  0.
         25    1    4    4    0    0 -0.22825585105E+02  0.39403031659E+02 -0.32084590934E+02  0.13693259406E+03  0.12509000000E+03 0.  0.
<mgrwt>
<rscale>  2 0.45769447E+03</rscale>
<asrwt>0</asrwt>
<pdfrwt beam="1">  1       21 0.23306796E-01 0.45769447E+03</pdfrwt>
<pdfrwt beam="2">  1       21 0.48594926E-01 0.45769447E+03</pdfrwt>
<totfact> 0.64661236E+04</totfact>
</mgrwt>
</event>
<event>
 7    0  0.4705418E-002  0.4046804E+03  0.7546771E-02  0.1042171E+00
         21   -1    0    0  502  501  0.00000000000E+00  0.00000000000E+00  0.58849128024E+03  0.58849128024E+03  0.00000000000E+00 0.  1.
         21   -1    0    0  501  502 -0.00000000000E+00 -0.00000000000E+00 -0.69570373503E+02  0.69570373503E+02  0.00000000000E+00 0.  1.
      99926    2    1    2    0    0 -0.17763568394E-14  0.00000000000E+00  0.51892090674E+03  0.65806165374E+03  0.40468040807E+03 0.  0.
      99925    2    3    3    0    0 -0.37977135526E+01 -0.36634865984E+02  0.40825314872E+03  0.48703125645E+03  0.26300622671E+03 0.  0.
         25    1    4    4    0    0  0.27539848402E+02 -0.15983957223E+01  0.24122039643E+03  0.27312229106E+03  0.12509000000E+03 0.  0.
         25    1    4    4    0    0 -0.31337561955E+02 -0.35036470262E+02  0.16703275229E+03  0.21390896539E+03  0.12509000000E+03 0.  0.
         25    1    3    3    0    0  0.37977135526E+01  0.36634865984E+02  0.11066775802E+03  0.17103039729E+03  0.12509000000E+03 0.  0.
<mgrwt>
<rscale>  2 0.40468041E+03</rscale>
<asrwt>0</asrwt>
<pdfrwt beam="1">  1       21 0.86542833E-01 0.40468041E+03</pdfrwt>
<pdfrwt beam="2">  1       21 0.10230938E-01 0.40468041E+03</pdfrwt>
<totfact> 0.83868198E+04</totfact>
</mgrwt>
</event>
<event>
 7    0  0.4705418E-002  0.4559885E+03  0.7546771E-02  0.1025951E+00
         21   -1    0    0  502  501  0.00000000000E+00  0.00000000000E+00  0.21651772133E+03  0.21651772133E+03  0.00000000000E+00 0.  1.
         21   -1    0    0  501  502 -0.00000000000E+00 -0.00000000000E+00 -0.24007912537E+03  0.24007912537E+03  0.00000000000E+00 0.  1.
      99926    2    1    2    0    0  0.00000000000E+00  0.00000000000E+00 -0.23561404040E+02  0.45659684671E+03  0.45598853129E+03 0.  0.
      99925    2    3    3    0    0  0.83025492591E+02  0.31092764137E+02 -0.86705945452E+02  0.29078148671E+03  0.26301323091E+03 0.  0.
         25    1    4    4    0    0  0.83939140811E+02  0.17578559244E+02 -0.50574797105E+02  0.15987527422E+03  0.12509000000E+03 0.  0.
         25    1    4    4    0    0 -0.91364821969E+00  0.13514204893E+02 -0.36131148348E+02  0.13090621249E+03  0.12509000000E+03 0.  0.
         25    1    3    3    0    0 -0.83025492591E+02 -0.31092764137E+02  0.63144541413E+02  0.16581536000E+03  0.12509000000E+03 0.  0.
<mgrwt>
<rscale>  2 0.45598853E+03</rscale>
<asrwt>0</asrwt>
<pdfrwt beam="1">  1       21 0.31840841E-01 0.45598853E+03</pdfrwt>
<pdfrwt beam="2">  1       21 0.35305754E-01 0.45598853E+03</pdfrwt>
<totfact> 0.67891926E+04</totfact>
</mgrwt>
</event>
<event>
 7    0  0.4705418E-002  0.4602492E+03  0.7546771E-02  0.1024709E+00
         21   -1    0    0  502  501  0.00000000000E+00  0.00000000000E+00  0.95486099056E+02  0.95486099056E+02  0.00000000000E+00 0.  1.
         21   -1    0    0  501  502 -0.00000000000E+00 -0.00000000000E+00 -0.55460784340E+03  0.55460784340E+03  0.00000000000E+00 0.  1.
      99926    2    1    2    0    0  0.00000000000E+00  0.00000000000E+00 -0.45912174434E+03  0.65009394245E+03  0.46024923453E+03 0.  0.
      99925    2    3    3    0    0 -0.37846577210E+02 -0.95102865412E+02 -0.20456801294E+03  0.34856114376E+03  0.26300167415E+03 0.  0.
         25    1    4    4    0    0 -0.25080584033E+02 -0.50717098730E+02 -0.54243218372E+02  0.14761807016E+03  0.12509000000E+03 0.  0.
         25    1    4    4    0    0 -0.12765993178E+02 -0.44385766682E+02 -0.15032479456E+03  0.20094307360E+03  0.12509000000E+03 0.  0.
         25    1    3    3    0    0  0.37846577210E+02  0.95102865412E+02 -0.25455373140E+03  0.30153279869E+03  0.12509000000E+03 0.  0.
<mgrwt>
<rscale>  2 0.46024923E+03</rscale>
<asrwt>0</asrwt>
<pdfrwt beam="1">  1       21 0.14042073E-01 0.46024923E+03</pdfrwt>
<pdfrwt beam="2">  1       21 0.81559977E-01 0.46024923E+03</pdfrwt>
<totfact> 0.53448019E+04</totfact>
</mgrwt>
</event>
<event>
 7    0  0.4705418E-002  0.4573831E+03  0.7546771E-02  0.1025543E+00
         21   -1    0    0  502  501  0.00000000000E+00  0.00000000000E+00  0.17081945801E+04  0.17081945801E+04  0.00000000000E+00 0. -1.
         21   -1    0    0  501  502 -0.00000000000E+00 -0.00000000000E+00 -0.30617023205E+02  0.30617023205E+02  0.00000000000E+00 0. -1.
      99926    2    1    2    0    0  0.00000000000E+00  0.00000000000E+00  0.16775775569E+04  0.17388116033E+04  0.45738313523E+03 0.  0.
      99925    2    3    3    0    0  0.92410286642E+02 -0.24813172155E+02  0.13006821751E+04  0.13303351762E+04  0.26241609287E+03 0.  0.
         25    1    3    3    0    0 -0.92410286642E+02  0.24813172155E+02  0.37689538178E+03  0.40847642710E+03  0.12509000000E+03 0.  0.
         25    1    4    4    0    0  0.65558577957E+02 -0.11531477522E+02  0.84701976618E+03  0.85879036704E+03  0.12509000000E+03 0.  0.
         25    1    4    4    0    0  0.26851708685E+02 -0.13281694633E+02  0.45366240894E+03  0.47154480917E+03  0.12509000000E+03 0.  0.
<mgrwt>
<rscale>  2 0.45738314E+03</rscale>
<asrwt>0</asrwt>
<pdfrwt beam="1">  1       21 0.25120502E+00 0.45738314E+03</pdfrwt>
<pdfrwt beam="2">  1       21 0.45025046E-02 0.45738314E+03</pdfrwt>
<totfact> 0.18127666E+04</totfact>
</mgrwt>
</event>
<event>
 7    0  0.4705418E-002  0.4541942E+03  0.7546771E-02  0.1026479E+00
         21   -1    0    0  502  501  0.00000000000E+00  0.00000000000E+00  0.94490498743E+02  0.94490498743E+02  0.00000000000E+00 0.  1.
         21   -1    0    0  501  502 -0.00000000000E+00 -0.00000000000E+00 -0.54580192969E+03  0.54580192969E+03  0.00000000000E+00 0.  1.
      99926    2    1    2    0    0  0.00000000000E+00  0.00000000000E+00 -0.45131143095E+03  0.64029242843E+03  0.45419421639E+03 0.  0.
      99925    2    3    3    0    0 -0.33180524427E+02 -0.10406791912E+03 -0.24687414927E+03  0.37690452205E+03  0.26301918974E+03 0.  0.
         25    1    4    4    0    0 -0.14085888151E+02 -0.79032318404E+02 -0.17366385451E+03  0.22858513088E+03  0.12509000000E+03 0.  0.
         25    1    4    4    0    0 -0.19094636276E+02 -0.25035600713E+02 -0.73210294768E+02  0.14831939117E+03  0.12509000000E+03 0.  0.
         25    1    3    3    0    0  0.33180524427E+02  0.10406791912E+03 -0.20443728167E+03  0.26338790638E+03  0.12509000000E+03 0.  0.
<mgrwt>
<rscale>  2 0.45419422E+03</rscale>
<asrwt>0</asrwt>
<pdfrwt beam="1">  1       21 0.13895662E-01 0.45419422E+03</pdfrwt>
<pdfrwt beam="2">  1       21 0.80264988E-01 0.45419422E+03</pdfrwt>
<totfact> 0.56623431E+04</totfact>
</mgrwt>
</event>
<event>
 7    0  0.4705418E-002  0.4582015E+03  0.7546771E-02  0.1025304E+00
         21   -1    0    0  502  501  0.00000000000E+00  0.00000000000E+00  0.19073143677E+03  0.19073143677E+03  0.00000000000E+00 0. -1.
         21   -1    0    0  501  502 -0.00000000000E+00 -0.00000000000E+00 -0.27518882580E+03  0.27518882580E+03  0.00000000000E+00 0. -1.
      99926    2    1    2    0    0  0.00000000000E+00  0.00000000000E+00 -0.84457389035E+02  0.46592026257E+03  0.45820152827E+03 0.  0.
      99925    2    3    3    0    0 -0.34453816349E+02  0.10630737589E+03 -0.85376806456E+02  0.29818035361E+03  0.26293345274E+03 0.  0.
         25    1    3    3    0    0  0.34453816349E+02 -0.10630737589E+03  0.91941742132E+00  0.16773990896E+03  0.12509000000E+03 0.  0.
         25    1    4    4    0    0 -0.39439924494E+02  0.17773212428E+02 -0.38646415650E+02  0.13788563474E+03  0.12509000000E+03 0.  0.
         25    1    4    4    0    0  0.49861081445E+01  0.88534163460E+02 -0.46730390807E+02  0.16029471887E+03  0.12509000000E+03 0.  0.
<mgrwt>
<rscale>  2 0.45820153E+03</rscale>
<asrwt>0</asrwt>
<pdfrwt beam="1">  1       21 0.28048741E-01 0.45820153E+03</pdfrwt>
<pdfrwt beam="2">  1       21 0.40468945E-01 0.45820153E+03</pdfrwt>
<totfact> 0.66044980E+04</totfact>
</mgrwt>
</event>
<event>
 7    0  0.4705418E-002  0.4612338E+03  0.7546771E-02  0.1024424E+00
         21   -1    0    0  502  501  0.00000000000E+00  0.00000000000E+00  0.27515976493E+02  0.27515976493E+02  0.00000000000E+00 0.  1.
         21   -1    0    0  501  502 -0.00000000000E+00 -0.00000000000E+00 -0.19328466644E+04  0.19328466644E+04  0.00000000000E+00 0.  1.
      99926    2    1    2    0    0  0.14210854715E-13  0.00000000000E+00 -0.19053306879E+04  0.19603626409E+04  0.46123383823E+03 0.  0.
      99925    2    3    3    0    0 -0.11151319620E+03 -0.13110210475E+02 -0.13584409604E+04  0.13882237131E+04  0.26305163783E+03 0.  0.
         25    1    3    3    0    0  0.11151319620E+03  0.13110210475E+02 -0.54688972750E+03  0.57213892779E+03  0.12509000000E+03 0.  0.
         25    1    4    4    0    0 -0.49332374048E+02 -0.12383136064E+02 -0.47558198058E+03  0.49438118243E+03  0.12509000000E+03 0.  0.
         25    1    4    4    0    0 -0.62180822155E+02 -0.72707441168E+00 -0.88285897986E+03  0.89384253071E+03  0.12509000000E+03 0.  0.
<mgrwt>
<rscale>  2 0.46123384E+03</rscale>
<asrwt>0</asrwt>
<pdfrwt beam="1">  1       21 0.40464654E-02 0.46123384E+03</pdfrwt>
<pdfrwt beam="2">  1       21 0.28424228E+00 0.46123384E+03</pdfrwt>
<totfact> 0.13693401E+04</totfact>
</mgrwt>
</event>
<event>
 7    0  0.4705418E-002  0.4540377E+03  0.7546771E-02  0.1026525E+00
         21   -1    0    0  502  501  0.00000000000E+00  0.00000000000E+00  0.20249673239E+04  0.20249673239E+04  0.00000000000E+00 0. -1.
         21   -1    0    0  501  502 -0.00000000000E+00 -0.00000000000E+00 -0.25451059425E+02  0.25451059425E+02  0.00000000000E+00 0. -1.
      99926    2    1    2    0    0  0.00000000000E+00  0.00000000000E+00  0.19995162645E+04  0.20504183833E+04  0.45403772396E+03 0.  0.
      99925    2    3    3    0    0  0.50543797580E+02  0.71250310214E+02  0.95358927470E+03  0.99342166705E+03  0.26442923734E+03 0.  0.
         25    1    3    3    0    0 -0.50543797580E+02 -0.71250310214E+02  0.10459269898E+04  0.10569967163E+04  0.12509000000E+03 0.  0.
         25    1    4    4    0    0  0.35976225411E+02  0.14060947226E+02  0.59149928231E+03  0.60581425215E+03  0.12509000000E+03 0.  0.
         25    1    4    4    0    0  0.14567572169E+02  0.57189362987E+02  0.36208999239E+03  0.38760741490E+03  0.12509000000E+03 0.  0.
<mgrwt>
<rscale>  2 0.45403772E+03</rscale>
<asrwt>0</asrwt>
<pdfrwt beam="1">  1       21 0.29778920E+00 0.45403772E+03</pdfrwt>
<pdfrwt beam="2">  1       21 0.37428042E-02 0.45403772E+03</pdfrwt>
<totfact> 0.13000848E+04</totfact>
</mgrwt>
</event>
<event>
 7    0  0.4705418E-002  0.4557618E+03  0.7546771E-02  0.1026018E+00
         21   -1    0    0  502  501  0.00000000000E+00  0.00000000000E+00  0.86586424265E+03  0.86586424265E+03  0.00000000000E+00 0.  1.
         21   -1    0    0  501  502 -0.00000000000E+00 -0.00000000000E+00 -0.59974423242E+02  0.59974423242E+02  0.00000000000E+00 0.  1.
      99926    2    1    2    0    0  0.00000000000E+00 -0.14210854715E-13  0.80588981941E+03  0.92583866589E+03  0.45576181744E+03 0.  0.
      99925    2    3    3    0    0  0.34512293565E+02 -0.10559877519E+03  0.45522508014E+03  0.53730878648E+03  0.26292329435E+03 0.  0.
         25    1    4    4    0    0  0.15132658895E+02 -0.49953198304E+02  0.14966871549E+03  0.20192214312E+03  0.12509000000E+03 0.  0.
         25    1    3    3    0    0 -0.34512293565E+02  0.10559877519E+03  0.35066473926E+03  0.38852987941E+03  0.12509000000E+03 0.  0.
         25    1    4    4    0    0  0.19379634671E+02 -0.55645576886E+02  0.30555636465E+03  0.33538664337E+03  0.12509000000E+03 0.  0.
<mgrwt>
<rscale>  2 0.45576182E+03</rscale>
<asrwt>0</asrwt>
<pdfrwt beam="1">  1       21 0.12733297E+00 0.45576182E+03</pdfrwt>
<pdfrwt beam="2">  1       21 0.88197687E-02 0.45576182E+03</pdfrwt>
<totfact> 0.41884879E+04</totfact>
</mgrwt>
</event>
<event>
 7    0  0.4705418E-002  0.4502421E+03  0.7546771E-02  0.1027650E+00
         21   -1    0    0  502  501  0.00000000000E+00  0.00000000000E+00  0.37891963668E+02  0.37891963668E+02  0.00000000000E+00 0. -1.
         21   -1    0    0  501  502 -0.00000000000E+00 -0.00000000000E+00 -0.13374733401E+04  0.13374733401E+04  0.00000000000E+00 0. -1.
      99926    2    1    2    0    0 -0.17763568394E-14  0.00000000000E+00 -0.12995813764E+04  0.13753653037E+04  0.45024211802E+03 0.  0.
      99925    2    3    3    0    0  0.90217696252E+01  0.90059995619E+02 -0.10049623635E+04  0.10427392885E+04  0.26298987933E+03 0.  0.
         25    1    4    4    0    0  0.42999382638E+01  0.61463282529E+02 -0.66204059983E+03  0.67656595280E+03  0.12509000000E+03 0.  0.
         25    1    3    3    0    0 -0.90217696252E+01 -0.90059995619E+02 -0.29461901290E+03  0.33262601522E+03  0.12509000000E+03 0.  0.
         25    1    4    4    0    0  0.47218313614E+01  0.28596713090E+02 -0.34292176369E+03  0.36617333573E+03  0.12509000000E+03 0.  0.
<mgrwt>
<rscale>  2 0.45024212E+03</rscale>
<asrwt>0</asrwt>
<pdfrwt beam="1">  1       21 0.55723487E-02 0.45024212E+03</pdfrwt>
<pdfrwt beam="2">  1       21 0.19668722E+00 0.45024212E+03</pdfrwt>
<totfact> 0.28017786E+04</totfact>
</mgrwt>
</event>
<event>
 7    0  0.4705418E-002  0.4511020E+03  0.7546771E-02  0.1027394E+00
         21   -1    0    0  502  501  0.00000000000E+00  0.00000000000E+00  0.12753023126E+04  0.12753023126E+04  0.00000000000E+00 0.  1.
         21   -1    0    0  501  502 -0.00000000000E+00 -0.00000000000E+00 -0.39891129325E+02  0.39891129325E+02  0.00000000000E+00 0.  1.
      99926    2    1    2    0    0  0.00000000000E+00  0.00000000000E+00  0.12354111833E+04  0.13151934420E+04  0.45110198174E+03 0.  0.
      99925    2    3    3    0    0 -0.47438038518E+02  0.97834200768E+02  0.74239446954E+03  0.79506375958E+03  0.26297325920E+03 0.  0.
         25    1    4    4    0    0 -0.27910653216E+02  0.63432933393E+01  0.32834018816E+03  0.35252521781E+03  0.12509000000E+03 0.  0.
         25    1    4    4    0    0 -0.19527385302E+02  0.91490907429E+02  0.41405428138E+03  0.44253854177E+03  0.12509000000E+03 0.  0.
         25    1    3    3    0    0  0.47438038518E+02 -0.97834200768E+02  0.49301671378E+03  0.52012968240E+03  0.12509000000E+03 0.  0.
<mgrwt>
<rscale>  2 0.45110198E+03</rscale>
<asrwt>0</asrwt>
<pdfrwt beam="1">  1       21 0.18754443E+00 0.45110198E+03</pdfrwt>
<pdfrwt beam="2">  1       21 0.58663434E-02 0.45110198E+03</pdfrwt>
<totfact> 0.29562620E+04</totfact>
</mgrwt>
</event>
<event>
 7    0  0.4705418E-002  0.4343351E+03  0.7546771E-02  0.1032499E+00
         21   -1    0    0  502  501  0.00000000000E+00  0.00000000000E+00  0.33549333880E+03  0.33549333880E+03  0.00000000000E+00 0. -1.
         21   -1    0    0  501  502 -0.00000000000E+00 -0.00000000000E+00 -0.14057432875E+03  0.14057432875E+03  0.00000000000E+00 0. -1.
      99926    2    1    2    0    0  0.71054273576E-14 -0.71054273576E-14  0.19491901004E+03  0.47606766755E+03  0.43433512822E+03 0.  0.
      99925    2    3    3    0    0  0.41403114290E+02 -0.59717124937E+02  0.18797965503E+03  0.33123667766E+03  0.26287075349E+03 0.  0.
         25    1    4    4    0    0 -0.52861257423E+01 -0.59893067246E+02  0.86614465469E+02  0.16359919425E+03  0.12509000000E+03 0.  0.
         25    1    4    4    0    0  0.46689240032E+02  0.17594230906E+00  0.10136518956E+03  0.16763748341E+03  0.12509000000E+03 0.  0.
         25    1    3    3    0    0 -0.41403114290E+02  0.59717124937E+02  0.69393550133E+01  0.14483098989E+03  0.12509000000E+03 0.  0.
<mgrwt>
<rscale>  2 0.43433513E+03</rscale>
<asrwt>0</asrwt>
<pdfrwt beam="1">  1       21 0.49337256E-01 0.43433513E+03</pdfrwt>
<pdfrwt beam="2">  1       21 0.20672695E-01 0.43433513E+03</pdfrwt>
<totfact> 0.79204704E+04</totfact>
</mgrwt>
</event>
<event>
 7    0  0.4705418E-002  0.4643613E+03  0.7546771E-02  0.1023524E+00
         21   -1    0    0  502  501  0.00000000000E+00  0.00000000000E+00  0.10398482529E+03  0.10398482529E+03  0.00000000000E+00 0. -1.
         21   -1    0    0  501  502 -0.00000000000E+00 -0.00000000000E+00 -0.51842038132E+03  0.51842038132E+03  0.00000000000E+00 0. -1.
      99926    2    1    2    0    0  0.00000000000E+00  0.00000000000E+00 -0.41443555603E+03  0.62240520661E+03  0.46436129373E+03 0.  0.
      99925    2    3    3    0    0 -0.10830512036E+03  0.55515896883E+02 -0.25328768581E+03  0.38485908882E+03  0.26296359551E+03 0.  0.
         25    1    3    3    0    0  0.10830512036E+03 -0.55515896883E+02 -0.16114787022E+03  0.23754611779E+03  0.12509000000E+03 0.  0.
         25    1    4    4    0    0 -0.62294902751E+02  0.66772735737E+02 -0.15275045627E+03  0.21753037290E+03  0.12509000000E+03 0.  0.
         25    1    4    4    0    0 -0.46010217608E+02 -0.11256838855E+02 -0.10053722954E+03  0.16732871591E+03  0.12509000000E+03 0.  0.
<mgrwt>
<rscale>  2 0.46436129E+03</rscale>
<asrwt>0</asrwt>
<pdfrwt beam="1">  1       21 0.15291886E-01 0.46436129E+03</pdfrwt>
<pdfrwt beam="2">  1       21 0.76238290E-01 0.46436129E+03</pdfrwt>
<totfact> 0.53271495E+04</totfact>
</mgrwt>
</event>
<event>
 7    0  0.4705418E-002  0.4521677E+03  0.7546771E-02  0.1027078E+00
         21   -1    0    0  502  501  0.00000000000E+00  0.00000000000E+00  0.76366615946E+03  0.76366615946E+03  0.00000000000E+00 0. -1.
         21   -1    0    0  501  502 -0.00000000000E+00 -0.00000000000E+00 -0.66932260592E+02  0.66932260592E+02  0.00000000000E+00 0. -1.
      99926    2    1    2    0    0 -0.53290705182E-14  0.71054273576E-14  0.69673389887E+03  0.83059842006E+03  0.45216767859E+03 0.  0.
      99925    2    3    3    0    0  0.25650883476E+01  0.50593487246E+02  0.25924749892E+03  0.37276860575E+03  0.26302259808E+03 0.  0.
         25    1    4    4    0    0 -0.38828497071E+02  0.18911957506E+02  0.12702403107E+03  0.18343371252E+03  0.12509000000E+03 0.  0.
         25    1    4    4    0    0  0.41393585418E+02  0.31681529740E+02  0.13222346786E+03  0.18933489322E+03  0.12509000000E+03 0.  0.
         25    1    3    3    0    0 -0.25650883476E+01 -0.50593487246E+02  0.43748639995E+03  0.45782981431E+03  0.12509000000E+03 0.  0.
<mgrwt>
<rscale>  2 0.45216768E+03</rscale>
<asrwt>0</asrwt>
<pdfrwt beam="1">  1       21 0.11230384E+00 0.45216768E+03</pdfrwt>
<pdfrwt beam="2">  1       21 0.98429799E-02 0.45216768E+03</pdfrwt>
<totfact> 0.47363943E+04</totfact>
</mgrwt>
</event>
<event>
 7    0  0.4705418E-002  0.4664526E+03  0.7546771E-02  0.1022926E+00
         21   -1    0    0  502  501  0.00000000000E+00  0.00000000000E+00  0.13359572003E+04  0.13359572003E+04  0.00000000000E+00 0. -1.
         21   -1    0    0  501  502 -0.00000000000E+00 -0.00000000000E+00 -0.40715749719E+02  0.40715749719E+02  0.00000000000E+00 0. -1.
      99926    2    1    2    0    0  0.00000000000E+00  0.61062266354E-15  0.12952414506E+04  0.13766729501E+04  0.46645256567E+03 0.  0.
      99925    2    3    3    0    0  0.10457897773E+03 -0.23932955522E+00  0.61301211446E+03  0.67523072502E+03  0.26308907173E+03 0.  0.
         25    1    4    4    0    0  0.84277143438E+02 -0.15806420716E+02  0.38687643612E+03  0.41553984739E+03  0.12509000000E+03 0.  0.
         25    1    3    3    0    0 -0.10457897773E+03  0.23932955522E+00  0.68222933615E+03  0.70144222504E+03  0.12509000000E+03 0.  0.
         25    1    4    4    0    0  0.20301834292E+02  0.15567091161E+02  0.22613567834E+03  0.25969087762E+03  0.12509000000E+03 0.  0.
<mgrwt>
<rscale>  2 0.46645257E+03</rscale>
<asrwt>0</asrwt>
<pdfrwt beam="1">  1       21 0.19646427E+00 0.46645257E+03</pdfrwt>
<pdfrwt beam="2">  1       21 0.59876111E-02 0.46645257E+03</pdfrwt>
<totfact> 0.24688577E+04</totfact>
</mgrwt>
</event>
<event>
 7    0  0.4705418E-002  0.4633827E+03  0.7546771E-02  0.1023805E+00
         21   -1    0    0  502  501  0.00000000000E+00  0.00000000000E+00  0.11853830428E+03  0.11853830428E+03  0.00000000000E+00 0. -1.
         21   -1    0    0  501  502 -0.00000000000E+00 -0.00000000000E+00 -0.45285678855E+03  0.45285678855E+03  0.00000000000E+00 0. -1.
      99926    2    1    2    0    0  0.00000000000E+00 -0.14210854715E-13 -0.33431848427E+03  0.57139509283E+03  0.46338267467E+03 0.  0.
      99925    2    3    3    0    0  0.46372185396E+02 -0.72747007551E+02 -0.10400792401E+03  0.29547305864E+03  0.26276257998E+03 0.  0.
         25    1    4    4    0    0  0.58835519711E+01 -0.22637854617E+02 -0.86065858029E+02  0.15362919210E+03  0.12509000000E+03 0.  0.
         25    1    4    4    0    0  0.40488633425E+02 -0.50109152934E+02 -0.17942065984E+02  0.14184386654E+03  0.12509000000E+03 0.  0.
         25    1    3    3    0    0 -0.46372185396E+02  0.72747007551E+02 -0.23031056025E+03  0.27592203419E+03  0.12509000000E+03 0.  0.
<mgrwt>
<rscale>  2 0.46338267E+03</rscale>
<asrwt>0</asrwt>
<pdfrwt beam="1">  1       21 0.17432104E-01 0.46338267E+03</pdfrwt>
<pdfrwt beam="2">  1       21 0.66596586E-01 0.46338267E+03</pdfrwt>
<totfact> 0.56626408E+04</totfact>
</mgrwt>
</event>
<event>
 7    0  0.4705418E-002  0.4543172E+03  0.7546771E-02  0.1026442E+00
         21   -1    0    0  502  501  0.00000000000E+00  0.00000000000E+00  0.12451074750E+03  0.12451074750E+03  0.00000000000E+00 0.  1.
         21   -1    0    0  501  502 -0.00000000000E+00 -0.00000000000E+00 -0.41443037346E+03  0.41443037346E+03  0.00000000000E+00 0.  1.
      99926    2    1    2    0    0  0.00000000000E+00 -0.71054273576E-14 -0.28991962596E+03  0.53894112096E+03  0.45431722655E+03 0.  0.
      99925    2    3    3    0    0  0.10441338487E+03 -0.33147587693E+02 -0.15190320269E+03  0.32284632995E+03  0.26297196098E+03 0.  0.
         25    1    4    4    0    0  0.36072834705E+02  0.15639746922E+01 -0.10953482795E+03  0.17014429774E+03  0.12509000000E+03 0.  0.
         25    1    3    3    0    0 -0.10441338487E+03  0.33147587693E+02 -0.13801642327E+03  0.21609479101E+03  0.12509000000E+03 0.  0.
         25    1    4    4    0    0  0.68340550168E+02 -0.34711562385E+02 -0.42368374745E+02  0.15270203220E+03  0.12509000000E+03 0.  0.
<mgrwt>
<rscale>  2 0.45431723E+03</rscale>
<asrwt>0</asrwt>
<pdfrwt beam="1">  1       21 0.18310404E-01 0.45431723E+03</pdfrwt>
<pdfrwt beam="2">  1       21 0.60945643E-01 0.45431723E+03</pdfrwt>
<totfact> 0.62942686E+04</totfact>
</mgrwt>
</event>
<event>
 7    0  0.4705418E-002  0.4594472E+03  0.7546771E-02  0.1024942E+00
         21   -1    0    0  502  501  0.00000000000E+00  0.00000000000E+00  0.20108551022E+03  0.20108551022E+03  0.00000000000E+00 0.  1.
         21   -1    0    0  501  502 -0.00000000000E+00 -0.00000000000E+00 -0.26244030007E+03  0.26244030007E+03  0.00000000000E+00 0.  1.
      99926    2    1    2    0    0  0.00000000000E+00  0.00000000000E+00 -0.61354789844E+02  0.46352581029E+03  0.45944724025E+03 0.  0.
      99925    2    3    3    0    0  0.65538845074E+02  0.93398874278E+02 -0.11430437735E+02  0.28700771217E+03  0.26310469781E+03 0.  0.
         25    1    3    3    0    0 -0.65538845074E+02 -0.93398874278E+02 -0.49924352109E+02  0.17651809812E+03  0.12509000000E+03 0.  0.
         25    1    4    4    0    0  0.16981892620E+02  0.60326742973E+02  0.29268786975E+02  0.14294009440E+03  0.12509000000E+03 0.  0.
         25    1    4    4    0    0  0.48556952454E+02  0.33072131305E+02 -0.40699224711E+02  0.14406761778E+03  0.12509000000E+03 0.  0.
<mgrwt>
<rscale>  2 0.45944724E+03</rscale>
<asrwt>0</asrwt>
<pdfrwt beam="1">  1       21 0.29571399E-01 0.45944724E+03</pdfrwt>
<pdfrwt beam="2">  1       21 0.38594162E-01 0.45944724E+03</pdfrwt>
<totfact> 0.65567905E+04</totfact>
</mgrwt>
</event>
<event>
 7    0  0.4705418E-002  0.4536458E+03  0.7546771E-02  0.1026640E+00
         21   -1    0    0  502  501  0.00000000000E+00  0.00000000000E+00  0.19218361355E+03  0.19218361355E+03  0.00000000000E+00 0. -1.
         21   -1    0    0  501  502 -0.00000000000E+00 -0.00000000000E+00 -0.26770560081E+03  0.26770560081E+03  0.00000000000E+00 0. -1.
      99926    2    1    2    0    0 -0.14210854715E-13  0.00000000000E+00 -0.75521987258E+02  0.45988921436E+03  0.45364580779E+03 0.  0.
      99925    2    3    3    0    0 -0.89313050187E+02 -0.50445558610E+02 -0.93145869753E+02  0.29716341846E+03  0.26288470648E+03 0.  0.
         25    1    4    4    0    0 -0.46305457463E+02 -0.60533581969E+02 -0.70582280111E+02  0.16259728258E+03  0.12509000000E+03 0.  0.
         25    1    4    4    0    0 -0.43007592723E+02  0.10088023359E+02 -0.22563589642E+02  0.13456613588E+03  0.12509000000E+03 0.  0.
         25    1    3    3    0    0  0.89313050187E+02  0.50445558610E+02  0.17623882495E+02  0.16272579590E+03  0.12509000000E+03 0.  0.
<mgrwt>
<rscale>  2 0.45364581E+03</rscale>
<asrwt>0</asrwt>
<pdfrwt beam="1">  1       21 0.28262296E-01 0.45364581E+03</pdfrwt>
<pdfrwt beam="2">  1       21 0.39368471E-01 0.45364581E+03</pdfrwt>
<totfact> 0.68929931E+04</totfact>
</mgrwt>
</event>
<event>
 7    0  0.4705418E-002  0.4144275E+03  0.7546771E-02  0.1038895E+00
         21   -1    0    0  502  501  0.00000000000E+00  0.00000000000E+00  0.24330256159E+03  0.24330256159E+03  0.00000000000E+00 0.  1.
         21   -1    0    0  501  502 -0.00000000000E+00 -0.00000000000E+00 -0.17647797132E+03  0.17647797132E+03  0.00000000000E+00 0.  1.
      99926    2    1    2    0    0  0.00000000000E+00  0.35527136788E-14  0.66824590278E+02  0.41978053291E+03  0.41442752074E+03 0.  0.
      99925    2    3    3    0    0  0.20509651338E+02 -0.17782471935E+02 -0.19830841007E+02  0.26520519860E+03  0.26306591000E+03 0.  0.
         25    1    4    4    0    0 -0.22223729293E+02  0.15916114361E+02 -0.10427501357E+02  0.12846578426E+03  0.12509000000E+03 0.  0.
         25    1    3    3    0    0 -0.20509651338E+02  0.17782471935E+02  0.86655431285E+02  0.15457533431E+03  0.12509000000E+03 0.  0.
         25    1    4    4    0    0  0.42733380631E+02 -0.33698586296E+02 -0.94033396495E+01  0.13673941434E+03  0.12509000000E+03 0.  0.
<mgrwt>
<rscale>  2 0.41442752E+03</rscale>
<asrwt>0</asrwt>
<pdfrwt beam="1">  1       21 0.35779788E-01 0.41442752E+03</pdfrwt>
<pdfrwt beam="2">  1       21 0.25952643E-01 0.41442752E+03</pdfrwt>
<totfact> 0.99798662E+04</totfact>
</mgrwt>
</event>
<event>
 7    0  0.4705418E-002  0.4767392E+03  0.7546771E-02  0.1020035E+00
         21   -1    0    0  502  501  0.00000000000E+00  0.00000000000E+00  0.61438437449E+03  0.61438437449E+03  0.00000000000E+00 0.  1.
         21   -1    0    0  501  502 -0.00000000000E+00 -0.00000000000E+00 -0.92482928076E+02  0.92482928076E+02  0.00000000000E+00 0.  1.
      99926    2    1    2    0    0  0.00000000000E+00  0.00000000000E+00  0.52190144642E+03  0.70686730257E+03  0.47673919880E+03 0.  0.
      99925    2    3    3    0    0  0.88895480164E+02 -0.66022640484E+02  0.43062270550E+03  0.51649736772E+03  0.26281594496E+03 0.  0.
         25    1    4    4    0    0  0.63416121286E+02 -0.68288642443E+02  0.26309415354E+03  0.30586105481E+03  0.12509000000E+03 0.  0.
         25    1    4    4    0    0  0.25479358878E+02  0.22660019590E+01  0.16752855196E+03  0.21063631291E+03  0.12509000000E+03 0.  0.
         25    1    3    3    0    0 -0.88895480164E+02  0.66022640484E+02  0.91278740921E+02  0.19036993485E+03  0.12509000000E+03 0.  0.
<mgrwt>
<rscale>  2 0.47673920E+03</rscale>
<asrwt>0</asrwt>
<pdfrwt beam="1">  1       21 0.90350641E-01 0.47673920E+03</pdfrwt>
<pdfrwt beam="2">  1       21 0.13600431E-01 0.47673920E+03</pdfrwt>
<totfact> 0.44426316E+04</totfact>
</mgrwt>
</event>
<event>
 7    0  0.4705418E-002  0.4367651E+03  0.7546771E-02  0.1031744E+00
         21   -1    0    0  502  501  0.00000000000E+00  0.00000000000E+00  0.51824390567E+02  0.51824390567E+02  0.00000000000E+00 0. -1.
         21   -1    0    0  501  502 -0.00000000000E+00 -0.00000000000E+00 -0.92024120261E+03  0.92024120261E+03  0.00000000000E+00 0. -1.
      99926    2    1    2    0    0  0.00000000000E+00  0.00000000000E+00 -0.86841681204E+03  0.97206559318E+03  0.43676510621E+03 0.  0.
      99925    2    3    3    0    0  0.33716985259E+02  0.77461451999E+02 -0.65314111554E+03  0.70914308512E+03  0.26297050541E+03 0.  0.
         25    1    3    3    0    0 -0.33716985259E+02 -0.77461451999E+02 -0.21527569650E+03  0.26292250806E+03  0.12509000000E+03 0.  0.
         25    1    4    4    0    0 -0.18655963435E+02  0.23424471786E+02 -0.26810930826E+03  0.29736654170E+03  0.12509000000E+03 0.  0.
         25    1    4    4    0    0  0.52372948694E+02  0.54036980214E+02 -0.38503180728E+03  0.41177654341E+03  0.12509000000E+03 0.  0.
<mgrwt>
<rscale>  2 0.43676511E+03</rscale>
<asrwt>0</asrwt>
<pdfrwt beam="1">  1       21 0.76212345E-02 0.43676511E+03</pdfrwt>
<pdfrwt beam="2">  1       21 0.13532958E+00 0.43676511E+03</pdfrwt>
<totfact> 0.46549931E+04</totfact>
</mgrwt>
</event>
<event>
 7    0  0.4705418E-002  0.4613511E+03  0.7546771E-02  0.1024390E+00
         21   -1    0    0  502  501  0.00000000000E+00  0.00000000000E+00  0.51276343707E+03  0.51276343707E+03  0.00000000000E+00 0. -1.
         21   -1    0    0  501  502 -0.00000000000E+00 -0.00000000000E+00 -0.10377338991E+03  0.10377338991E+03  0.00000000000E+00 0. -1.
      99926    2    1    2    0    0  0.71054273576E-14  0.71054273576E-14  0.40899004716E+03  0.61653682698E+03  0.46135105977E+03 0.  0.
      99925    2    3    3    0    0  0.48533740664E+02  0.42817238768E+02  0.38947408558E+03  0.47434955338E+03  0.26292317420E+03 0.  0.
         25    1    4    4    0    0  0.18663414722E+02  0.77614737280E+01  0.12401136744E+03  0.17729887444E+03  0.12509000000E+03 0.  0.
         25    1    3    3    0    0 -0.48533740664E+02 -0.42817238768E+02  0.19515961575E+02  0.14218727360E+03  0.12509000000E+03 0.  0.
         25    1    4    4    0    0  0.29870325942E+02  0.35055765040E+02  0.26546271815E+03  0.29705067894E+03  0.12509000000E+03 0.  0.
<mgrwt>
<rscale>  2 0.46135106E+03</rscale>
<asrwt>0</asrwt>
<pdfrwt beam="1">  1       21 0.75406387E-01 0.46135106E+03</pdfrwt>
<pdfrwt beam="2">  1       21 0.15260793E-01 0.46135106E+03</pdfrwt>
<totfact> 0.54867457E+04</totfact>
</mgrwt>
</event>
<event>
 7    0  0.4705418E-002  0.4485952E+03  0.7546771E-02  0.1028142E+00
         21   -1    0    0  502  501  0.00000000000E+00  0.00000000000E+00  0.83276311851E+02  0.83276311851E+02  0.00000000000E+00 0. -1.
         21   -1    0    0  501  502 -0.00000000000E+00 -0.00000000000E+00 -0.60412632427E+03  0.60412632427E+03  0.00000000000E+00 0. -1.
      99926    2    1    2    0    0  0.00000000000E+00  0.00000000000E+00 -0.52085001241E+03  0.68740263612E+03  0.44859519470E+03 0.  0.
      99925    2    3    3    0    0  0.41334418137E+02 -0.80610800629E+02 -0.41713859095E+03  0.50136446169E+03  0.26297354256E+03 0.  0.
         25    1    3    3    0    0 -0.41334418137E+02  0.80610800629E+02 -0.10371142147E+03  0.18603817443E+03  0.12509000000E+03 0.  0.
         25    1    4    4    0    0  0.60911566804E+02 -0.43978092793E+02 -0.20543099159E+03  0.25197954683E+03  0.12509000000E+03 0.  0.
         25    1    4    4    0    0 -0.19577148666E+02 -0.36632707836E+02 -0.21170759936E+03  0.24938491486E+03  0.12509000000E+03 0.  0.
<mgrwt>
<rscale>  2 0.44859519E+03</rscale>
<asrwt>0</asrwt>
<pdfrwt beam="1">  1       21 0.12246516E-01 0.44859519E+03</pdfrwt>
<pdfrwt beam="2">  1       21 0.88842111E-01 0.44859519E+03</pdfrwt>
<totfact> 0.56381937E+04</totfact>
</mgrwt>
</event>
<event>
 7    0  0.4705418E-002  0.4574306E+03  0.7546771E-02  0.1025529E+00
         21   -1    0    0  502  501  0.00000000000E+00  0.00000000000E+00  0.69654010509E+02  0.69654010509E+02  0.00000000000E+00 0. -1.
         21   -1    0    0  501  502 -0.00000000000E+00 -0.00000000000E+00 -0.75100768825E+03  0.75100768825E+03  0.00000000000E+00 0. -1.
      99926    2    1    2    0    0  0.00000000000E+00 -0.88817841970E-15 -0.68135367774E+03  0.82066169876E+03  0.45743063916E+03 0.  0.
      99925    2    3    3    0    0  0.67780231286E+02 -0.62905400805E+01 -0.59511266304E+03  0.65417220550E+03  0.26296095166E+03 0.  0.
         25    1    4    4    0    0  0.41703307183E+02  0.35233517964E+02 -0.27499704897E+03  0.30700399291E+03  0.12509000000E+03 0.  0.
         25    1    4    4    0    0  0.26076924103E+02 -0.41524058044E+02 -0.32011561406E+03  0.34716821259E+03  0.12509000000E+03 0.  0.
         25    1    3    3    0    0 -0.67780231286E+02  0.62905400805E+01 -0.86241014702E+02  0.16648949326E+03  0.12509000000E+03 0.  0.
<mgrwt>
<rscale>  2 0.45743064E+03</rscale>
<asrwt>0</asrwt>
<pdfrwt beam="1">  1       21 0.10243238E-01 0.45743064E+03</pdfrwt>
<pdfrwt beam="2">  1       21 0.11044230E+00 0.45743064E+03</pdfrwt>
<totfact> 0.45899921E+04</totfact>
</mgrwt>
</event>
<event>
 7    0  0.4705418E-002  0.4524813E+03  0.7546771E-02  0.1026985E+00
         21   -1    0    0  502  501  0.00000000000E+00  0.00000000000E+00  0.13892389565E+03  0.13892389565E+03  0.00000000000E+00 0. -1.
         21   -1    0    0  501  502 -0.00000000000E+00 -0.00000000000E+00 -0.36843790643E+03  0.36843790643E+03  0.00000000000E+00 0. -1.
      99926    2    1    2    0    0  0.00000000000E+00  0.10547118734E-14 -0.22951401078E+03  0.50736180209E+03  0.45248128920E+03 0.  0.
      99925    2    3    3    0    0 -0.97329588475E+02 -0.43488679425E+00 -0.85367604427E+02  0.29312144062E+03  0.26298158328E+03 0.  0.
         25    1    4    4    0    0 -0.12092489841E+02 -0.11747132415E+02 -0.19762936946E+02  0.12775877742E+03  0.12509000000E+03 0.  0.
         25    1    4    4    0    0 -0.85237098634E+02  0.11312245621E+02 -0.65604667481E+02  0.16536266320E+03  0.12509000000E+03 0.  0.
         25    1    3    3    0    0  0.97329588475E+02  0.43488679425E+00 -0.14414640635E+03  0.21424036147E+03  0.12509000000E+03 0.  0.
<mgrwt>
<rscale>  2 0.45248129E+03</rscale>
<asrwt>0</asrwt>
<pdfrwt beam="1">  1       21 0.20429985E-01 0.45248129E+03</pdfrwt>
<pdfrwt beam="2">  1       21 0.54182045E-01 0.45248129E+03</pdfrwt>
<totfact> 0.66067337E+04</totfact>
</mgrwt>
</event>
<event>
 7    0  0.4705418E-002  0.4532032E+03  0.7546771E-02  0.1026771E+00
         21   -1    0    0  502  501  0.00000000000E+00  0.00000000000E+00  0.54096856231E+03  0.54096856231E+03  0.00000000000E+00 0.  1.
         21   -1    0    0  501  502 -0.00000000000E+00 -0.00000000000E+00 -0.94919151322E+02  0.94919151322E+02  0.00000000000E+00 0.  1.
      99926    2    1    2    0    0 -0.35527136788E-14 -0.17763568394E-14  0.44604941099E+03  0.63588771363E+03  0.45320316339E+03 0.  0.
      99925    2    3    3    0    0 -0.17771449910E+02 -0.34832025878E+01  0.12684316196E+03  0.29256848223E+03  0.26301933755E+03 0.  0.
         25    1    4    4    0    0  0.19171958991E+02  0.26921323961E+02  0.69660380467E+02  0.14694352113E+03  0.12509000000E+03 0.  0.
         25    1    3    3    0    0  0.17771449910E+02  0.34832025878E+01  0.31920624903E+03  0.34331923141E+03  0.12509000000E+03 0.  0.
         25    1    4    4    0    0 -0.36943408901E+02 -0.30404526549E+02  0.57182781492E+02  0.14562496110E+03  0.12509000000E+03 0.  0.
<mgrwt>
<rscale>  2 0.45320316E+03</rscale>
<asrwt>0</asrwt>
<pdfrwt beam="1">  1       21 0.79554199E-01 0.45320316E+03</pdfrwt>
<pdfrwt beam="2">  1       21 0.13958699E-01 0.45320316E+03</pdfrwt>
<totfact> 0.57330628E+04</totfact>
</mgrwt>
</event>
<event>
 7    0  0.4705418E-002  0.4554149E+03  0.7546771E-02  0.1026119E+00
         21   -1    0    0  502  501  0.00000000000E+00  0.00000000000E+00  0.55315703430E+02  0.55315703430E+02  0.00000000000E+00 0. -1.
         21   -1    0    0  501  502 -0.00000000000E+00 -0.00000000000E+00 -0.93735908498E+03  0.93735908498E+03  0.00000000000E+00 0. -1.
      99926    2    1    2    0    0  0.00000000000E+00  0.00000000000E+00 -0.88204338155E+03  0.99267478841E+03  0.45541487526E+03 0.  0.
      99925    2    3    3    0    0  0.96661652224E+02  0.57403700880E+02 -0.59141809530E+03  0.65689327464E+03  0.26285880417E+03 0.  0.
         25    1    4    4    0    0  0.65420339424E+02  0.26197773041E+00 -0.34851152335E+03  0.37601553086E+03  0.12509000000E+03 0.  0.
         25    1    4    4    0    0  0.31241312800E+02  0.57141723150E+02 -0.24290657195E+03  0.28087774378E+03  0.12509000000E+03 0.  0.
         25    1    3    3    0    0 -0.96661652224E+02 -0.57403700880E+02 -0.29062528625E+03  0.33578151378E+03  0.12509000000E+03 0.  0.
<mgrwt>
<rscale>  2 0.45541488E+03</rscale>
<asrwt>0</asrwt>
<pdfrwt beam="1">  1       21 0.81346626E-02 0.45541488E+03</pdfrwt>
<pdfrwt beam="2">  1       21 0.13784692E+00 0.45541488E+03</pdfrwt>
<totfact> 0.39325314E+04</totfact>
</mgrwt>
</event>
<event>
 7    0  0.4705418E-002  0.4545523E+03  0.7546771E-02  0.1026373E+00
         21   -1    0    0  502  501  0.00000000000E+00  0.00000000000E+00  0.35422240092E+03  0.35422240092E+03  0.00000000000E+00 0. -1.
         21   -1    0    0  501  502 -0.00000000000E+00 -0.00000000000E+00 -0.14582488508E+03  0.14582488508E+03  0.00000000000E+00 0. -1.
      99926    2    1    2    0    0  0.00000000000E+00  0.00000000000E+00  0.20839751584E+03  0.50004728600E+03  0.45455226722E+03 0.  0.
      99925    2    3    3    0    0  0.78940510089E+02 -0.78652854015E+02  0.15004512851E+03  0.32264834355E+03  0.26300292285E+03 0.  0.
         25    1    3    3    0    0 -0.78940510089E+02  0.78652854015E+02  0.58352387327E+02  0.17739894246E+03  0.12509000000E+03 0.  0.
         25    1    4    4    0    0  0.40976093493E+02  0.26852209434E+01  0.70858903501E+02  0.14951502585E+03  0.12509000000E+03 0.  0.
         25    1    4    4    0    0  0.37964416596E+02 -0.81338074958E+02  0.79186225012E+02  0.17313331770E+03  0.12509000000E+03 0.  0.
<mgrwt>
<rscale>  2 0.45455227E+03</rscale>
<asrwt>0</asrwt>
<pdfrwt beam="1">  1       21 0.52091530E-01 0.45455227E+03</pdfrwt>
<pdfrwt beam="2">  1       21 0.21444836E-01 0.45455227E+03</pdfrwt>
<totfact> 0.65499823E+04</totfact>
</mgrwt>
</event>
<event>
 7    0  0.4705418E-002  0.4543188E+03  0.7546771E-02  0.1026442E+00
         21   -1    0    0  502  501  0.00000000000E+00  0.00000000000E+00  0.33743735056E+03  0.33743735056E+03  0.00000000000E+00 0. -1.
         21   -1    0    0  501  502 -0.00000000000E+00 -0.00000000000E+00 -0.15292141046E+03  0.15292141046E+03  0.00000000000E+00 0. -1.
      99926    2    1    2    0    0  0.00000000000E+00  0.00000000000E+00  0.18451594010E+03  0.49035876102E+03  0.45431881136E+03 0.  0.
      99925    2    3    3    0    0 -0.29600803040E+02 -0.89232549725E+02  0.49307286551E+02  0.28355560929E+03  0.26293329873E+03 0.  0.
         25    1    4    4    0    0 -0.49762244772E+01 -0.39520488875E+02 -0.15416174535E+02  0.13218093050E+03  0.12509000000E+03 0.  0.
         25    1    4    4    0    0 -0.24624578563E+02 -0.49712060850E+02  0.64723461086E+02  0.15137467879E+03  0.12509000000E+03 0.  0.
         25    1    3    3    0    0  0.29600803040E+02  0.89232549725E+02  0.13520865355E+03  0.20680315173E+03  0.12509000000E+03 0.  0.
<mgrwt>
<rscale>  2 0.45431881E+03</rscale>
<asrwt>0</asrwt>
<pdfrwt beam="1">  1       21 0.49623140E-01 0.45431881E+03</pdfrwt>
<pdfrwt beam="2">  1       21 0.22488443E-01 0.45431881E+03</pdfrwt>
<totfact> 0.66311306E+04</totfact>
</mgrwt>
</event>
<event>
 7    0  0.4705418E-002  0.4545245E+03  0.7546771E-02  0.1026381E+00
         21   -1    0    0  502  501  0.00000000000E+00  0.00000000000E+00  0.14911978547E+03  0.14911978547E+03  0.00000000000E+00 0.  1.
         21   -1    0    0  501  502 -0.00000000000E+00 -0.00000000000E+00 -0.34635332108E+03  0.34635332108E+03  0.00000000000E+00 0.  1.
      99926    2    1    2    0    0  0.00000000000E+00  0.00000000000E+00 -0.19723353561E+03  0.49547310654E+03  0.45452451170E+03 0.  0.
      99925    2    3    3    0    0 -0.88964379802E+02 -0.32448927352E+02 -0.19070523413E+03  0.33844533645E+03  0.26307634953E+03 0.  0.
         25    1    4    4    0    0 -0.10468855906E+02  0.71975601348E+01 -0.10005757794E+03  0.16068736360E+03  0.12509000000E+03 0.  0.
         25    1    3    3    0    0  0.88964379802E+02  0.32448927352E+02 -0.65283014829E+01  0.15702777009E+03  0.12509000000E+03 0.  0.
         25    1    4    4    0    0 -0.78495523895E+02 -0.39646487487E+02 -0.90647656182E+02  0.17775797285E+03  0.12509000000E+03 0.  0.
<mgrwt>
<rscale>  2 0.45452451E+03</rscale>
<asrwt>0</asrwt>
<pdfrwt beam="1">  1       21 0.21929381E-01 0.45452451E+03</pdfrwt>
<pdfrwt beam="2">  1       21 0.50934311E-01 0.45452451E+03</pdfrwt>
<totfact> 0.65838034E+04</totfact>
</mgrwt>
</event>
<event>
 7    0  0.4705418E-002  0.4166753E+03  0.7546771E-02  0.1038154E+00
         21   -1    0    0  502  501  0.00000000000E+00  0.00000000000E+00  0.80939588866E+02  0.80939588866E+02  0.00000000000E+00 0.  1.
         21   -1    0    0  501  502 -0.00000000000E+00 -0.00000000000E+00 -0.53625891209E+03  0.53625891209E+03  0.00000000000E+00 0.  1.
      99926    2    1    2    0    0  0.00000000000E+00  0.00000000000E+00 -0.45531932322E+03  0.61719850095E+03  0.41667529742E+03 0.  0.
      99925    2    3    3    0    0 -0.54780312755E+02 -0.17859742308E+02 -0.36071312537E+03  0.45011261336E+03  0.26299724871E+03 0.  0.
         25    1    4    4    0    0 -0.52616708413E+02 -0.39465467549E+02 -0.20877425824E+03  0.25211156288E+03  0.12509000000E+03 0.  0.
         25    1    4    4    0    0 -0.21636043413E+01  0.21605725241E+02 -0.15193886713E+03  0.19800105048E+03  0.12509000000E+03 0.  0.
         25    1    3    3    0    0  0.54780312755E+02  0.17859742308E+02 -0.94606197851E+02  0.16708588759E+03  0.12509000000E+03 0.  0.
<mgrwt>
<rscale>  2 0.41667530E+03</rscale>
<asrwt>0</asrwt>
<pdfrwt beam="1">  1       21 0.11902881E-01 0.41667530E+03</pdfrwt>
<pdfrwt beam="2">  1       21 0.78861603E-01 0.41667530E+03</pdfrwt>
<totfact> 0.78934464E+04</totfact>
</mgrwt>
</event>
<event>
 7    0  0.4705418E-002  0.4544273E+03  0.7546771E-02  0.1026410E+00
         21   -1    0    0  502  501  0.00000000000E+00  0.00000000000E+00  0.16250855391E+03  0.16250855391E+03  0.00000000000E+00 0.  1.
         21   -1    0    0  501  502 -0.00000000000E+00 -0.00000000000E+00 -0.31768193734E+03  0.31768193734E+03  0.00000000000E+00 0.  1.
      99926    2    1    2    0    0  0.00000000000E+00  0.00000000000E+00 -0.15517338343E+03  0.48019049125E+03  0.45442725376E+03 0.  0.
      99925    2    3    3    0    0  0.16762853584E+02 -0.64224786721E+02 -0.19389610991E+03  0.33338186026E+03  0.26294856307E+03 0.  0.
         25    1    3    3    0    0 -0.16762853584E+02  0.64224786721E+02  0.38722726473E+02  0.14680863100E+03  0.12509000000E+03 0.  0.
         25    1    4    4    0    0  0.26674245976E+02 -0.69544618248E+02 -0.10231825818E+03  0.17794522579E+03  0.12509000000E+03 0.  0.
         25    1    4    4    0    0 -0.99113923915E+01  0.53198315276E+01 -0.91577851727E+02  0.15543663446E+03  0.12509000000E+03 0.  0.
<mgrwt>
<rscale>  2 0.45442725E+03</rscale>
<asrwt>0</asrwt>
<pdfrwt beam="1">  1       21 0.23898317E-01 0.45442725E+03</pdfrwt>
<pdfrwt beam="2">  1       21 0.46717932E-01 0.45442725E+03</pdfrwt>
<totfact> 0.66990269E+04</totfact>
</mgrwt>
</event>
<event>
 7    0  0.4705418E-002  0.4575950E+03  0.7546771E-02  0.1025481E+00
         21   -1    0    0  502  501  0.00000000000E+00  0.00000000000E+00  0.31737244613E+03  0.31737244613E+03  0.00000000000E+00 0. -1.
         21   -1    0    0  501  502 -0.00000000000E+00 -0.00000000000E+00 -0.16494277140E+03  0.16494277140E+03  0.00000000000E+00 0. -1.
      99926    2    1    2    0    0 -0.14210854715E-13 -0.14210854715E-13  0.15242967472E+03  0.48231521753E+03  0.45759497738E+03 0.  0.
      99925    2    3    3    0    0  0.80454353611E+02  0.69111662047E+02  0.14397556211E+03  0.31809492352E+03  0.26307050963E+03 0.  0.
         25    1    3    3    0    0 -0.80454353611E+02 -0.69111662047E+02  0.84541126103E+01  0.16422029401E+03  0.12509000000E+03 0.  0.
         25    1    4    4    0    0  0.49731759369E+02  0.71379252522E+02  0.98705820303E+02  0.18154501547E+03  0.12509000000E+03 0.  0.
         25    1    4    4    0    0  0.30722594241E+02 -0.22675904745E+01  0.45269741809E+02  0.13654990804E+03  0.12509000000E+03 0.  0.
<mgrwt>
<rscale>  2 0.45759498E+03</rscale>
<asrwt>0</asrwt>
<pdfrwt beam="1">  1       21 0.46672419E-01 0.45759498E+03</pdfrwt>
<pdfrwt beam="2">  1       21 0.24256290E-01 0.45759498E+03</pdfrwt>
<totfact> 0.65179013E+04</totfact>
</mgrwt>
</event>
<event>
 7    0  0.4705418E-002  0.4558117E+03  0.7546771E-02  0.1026003E+00
         21   -1    0    0  502  501  0.00000000000E+00  0.00000000000E+00  0.20883758780E+03  0.20883758780E+03  0.00000000000E+00 0. -1.
         21   -1    0    0  501  502 -0.00000000000E+00 -0.00000000000E+00 -0.24871520451E+03  0.24871520451E+03  0.00000000000E+00 0. -1.
      99926    2    1    2    0    0  0.00000000000E+00  0.00000000000E+00 -0.39877616718E+02  0.45755279231E+03  0.45581173025E+03 0.  0.
      99925    2    3    3    0    0  0.44550175086E+02 -0.84688403496E+02 -0.87762742091E+02  0.29294010410E+03  0.26259238737E+03 0.  0.
         25    1    4    4    0    0 -0.11158225860E+02 -0.22993081721E+02 -0.56061248104E+02  0.13944016441E+03  0.12509000000E+03 0.  0.
         25    1    4    4    0    0  0.55708400946E+02 -0.61695321774E+02 -0.31701493987E+02  0.15349993969E+03  0.12509000000E+03 0.  0.
         25    1    3    3    0    0 -0.44550175086E+02  0.84688403496E+02  0.47885125373E+02  0.16461268821E+03  0.12509000000E+03 0.  0.
<mgrwt>
<rscale>  2 0.45581173E+03</rscale>
<asrwt>0</asrwt>
<pdfrwt beam="1">  1       21 0.30711410E-01 0.45581173E+03</pdfrwt>
<pdfrwt beam="2">  1       21 0.36575765E-01 0.45581173E+03</pdfrwt>
<totfact> 0.67918263E+04</totfact>
</mgrwt>
</event>
<event>
 7    0  0.4705418E-002  0.4546429E+03  0.7546771E-02  0.1026346E+00
         21   -1    0    0  502  501  0.00000000000E+00  0.00000000000E+00  0.33184843671E+03  0.33184843671E+03  0.00000000000E+00 0.  1.
         21   -1    0    0  501  502 -0.00000000000E+00 -0.00000000000E+00 -0.15571879973E+03  0.15571879973E+03  0.00000000000E+00 0.  1.
      99926    2    1    2    0    0  0.00000000000E+00  0.00000000000E+00  0.17612963698E+03  0.48756723644E+03  0.45464289396E+03 0.  0.
      99925    2    3    3    0    0 -0.80029431215E+02 -0.56411326203E+02  0.17100585580E+03  0.32863105800E+03  0.26299890110E+03 0.  0.
         25    1    3    3    0    0  0.80029431215E+02  0.56411326203E+02  0.51237811821E+01  0.15893617844E+03  0.12509000000E+03 0.  0.
         25    1    4    4    0    0 -0.12873907384E+02 -0.56798102470E+02  0.72910209829E+02  0.15606142615E+03  0.12509000000E+03 0.  0.
         25    1    4    4    0    0 -0.67155523831E+02  0.38677626629E+00  0.98095645971E+02  0.17256963185E+03  0.12509000000E+03 0.  0.
<mgrwt>
<rscale>  2 0.45464289E+03</rscale>
<asrwt>0</asrwt>
<pdfrwt beam="1">  1       21 0.48801241E-01 0.45464289E+03</pdfrwt>
<pdfrwt beam="2">  1       21 0.22899823E-01 0.45464289E+03</pdfrwt>
<totfact> 0.66341124E+04</totfact>
</mgrwt>
</event>
<event>
 7    0  0.4705418E-002  0.4507449E+03  0.7546771E-02  0.1027500E+00
         21   -1    0    0  502  501  0.00000000000E+00  0.00000000000E+00  0.62443340612E+03  0.62443340612E+03  0.00000000000E+00 0.  1.
         21   -1    0    0  501  502 -0.00000000000E+00 -0.00000000000E+00 -0.81342130961E+02  0.81342130961E+02  0.00000000000E+00 0.  1.
      99926    2    1    2    0    0  0.71054273576E-14  0.00000000000E+00  0.54309127516E+03  0.70577553708E+03  0.45074491188E+03 0.  0.
      99925    2    3    3    0    0 -0.61713448683E+02  0.90178929861E+02  0.34363031434E+03  0.44621249632E+03  0.26283646969E+03 0.  0.
         25    1    3    3    0    0  0.61713448683E+02 -0.90178929861E+02  0.19946096082E+03  0.25956304076E+03  0.12509000000E+03 0.  0.
         25    1    4    4    0    0 -0.65407997859E+02  0.32463747536E+02  0.20236489006E+03  0.24885971534E+03  0.12509000000E+03 0.  0.
         25    1    4    4    0    0  0.36945491766E+01  0.57715182325E+02  0.14126542428E+03  0.19735278098E+03  0.12509000000E+03 0.  0.
<mgrwt>
<rscale>  2 0.45074491E+03</rscale>
<asrwt>0</asrwt>
<pdfrwt beam="1">  1       21 0.91828439E-01 0.45074491E+03</pdfrwt>
<pdfrwt beam="2">  1       21 0.11962078E-01 0.45074491E+03</pdfrwt>
<totfact> 0.54388752E+04</totfact>
</mgrwt>
</event>
<event>
 7    0  0.4705418E-002  0.4283488E+03  0.7546771E-02  0.1034383E+00
         21   -1    0    0  502  501  0.00000000000E+00  0.00000000000E+00  0.73622697236E+02  0.73622697236E+02  0.00000000000E+00 0.  1.
         21   -1    0    0  501  502 -0.00000000000E+00 -0.00000000000E+00 -0.62305069359E+03  0.62305069359E+03  0.00000000000E+00 0.  1.
      99926    2    1    2    0    0  0.00000000000E+00  0.00000000000E+00 -0.54942799635E+03  0.69667339082E+03  0.42834879515E+03 0.  0.
      99925    2    3    3    0    0 -0.36309931399E+02 -0.76612434354E+02 -0.33382190110E+03  0.43338386838E+03  0.26305254134E+03 0.  0.
         25    1    4    4    0    0  0.15942992631E+02 -0.32243730620E+02 -0.19418761231E+03  0.23377376682E+03  0.12509000000E+03 0.  0.
         25    1    3    3    0    0  0.36309931399E+02  0.76612434354E+02 -0.21560609526E+03  0.26328952244E+03  0.12509000000E+03 0.  0.
         25    1    4    4    0    0 -0.52252924030E+02 -0.44368703735E+02 -0.13963428878E+03  0.19961010156E+03  0.12509000000E+03 0.  0.
<mgrwt>
<rscale>  2 0.42834880E+03</rscale>
<asrwt>0</asrwt>
<pdfrwt beam="1">  1       21 0.10826867E-01 0.42834880E+03</pdfrwt>
<pdfrwt beam="2">  1       21 0.91625106E-01 0.42834880E+03</pdfrwt>
<totfact> 0.65846250E+04</totfact>
</mgrwt>
</event>
<event>
 7    0  0.4705418E-002  0.4563567E+03  0.7546771E-02  0.1025843E+00
         21   -1    0    0  502  501  0.00000000000E+00  0.00000000000E+00  0.31187926798E+03  0.31187926798E+03  0.00000000000E+00 0. -1.
         21   -1    0    0  501  502 -0.00000000000E+00 -0.00000000000E+00 -0.16694078803E+03  0.16694078803E+03  0.00000000000E+00 0. -1.
      99926    2    1    2    0    0  0.00000000000E+00  0.88817841970E-15  0.14493847995E+03  0.47882005601E+03  0.45635674978E+03 0.  0.
      99925    2    3    3    0    0 -0.11313320562E+03 -0.29482119938E+01  0.74640975494E+02  0.29607142701E+03  0.26320942328E+03 0.  0.
         25    1    4    4    0    0 -0.26522342553E+02 -0.26952435160E+02  0.17793763910E+02  0.13188629402E+03  0.12509000000E+03 0.  0.
         25    1    3    3    0    0  0.11313320562E+03  0.29482119938E+01  0.70297504457E+02  0.18274862900E+03  0.12509000000E+03 0.  0.
         25    1    4    4    0    0 -0.86610863068E+02  0.24004223166E+02  0.56847211584E+02  0.16418513299E+03  0.12509000000E+03 0.  0.
<mgrwt>
<rscale>  2 0.45635675E+03</rscale>
<asrwt>0</asrwt>
<pdfrwt beam="1">  1       21 0.45864598E-01 0.45635675E+03</pdfrwt>
<pdfrwt beam="2">  1       21 0.24550116E-01 0.45635675E+03</pdfrwt>
<totfact> 0.66071729E+04</totfact>
</mgrwt>
</event>
<event>
 7    0  0.4705418E-002  0.4570531E+03  0.7546771E-02  0.1025639E+00
         21   -1    0    0  502  501  0.00000000000E+00  0.00000000000E+00  0.59377095082E+02  0.59377095082E+02  0.00000000000E+00 0.  1.
         21   -1    0    0  501  502 -0.00000000000E+00 -0.00000000000E+00 -0.87953756928E+03  0.87953756928E+03  0.00000000000E+00 0.  1.
      99926    2    1    2    0    0 -0.19984014443E-14  0.00000000000E+00 -0.82016047420E+03  0.93891466437E+03  0.45705310798E+03 0.  0.
      99925    2    3    3    0    0  0.70772536037E+00  0.35702804828E+02 -0.29037128998E+03  0.39338805734E+03  0.26298951779E+03 0.  0.
         25    1    3    3    0    0 -0.70772536037E+00 -0.35702804828E+02 -0.52978918422E+03  0.54552660702E+03  0.12509000000E+03 0.  0.
         25    1    4    4    0    0 -0.28931863569E+02  0.21183595803E+02 -0.18684733151E+03  0.22769547833E+03  0.12509000000E+03 0.  0.
         25    1    4    4    0    0  0.29639588929E+02  0.14519209025E+02 -0.10352395847E+03  0.16569257901E+03  0.12509000000E+03 0.  0.
<mgrwt>
<rscale>  2 0.45705311E+03</rscale>
<asrwt>0</asrwt>
<pdfrwt beam="1">  1       21 0.87319263E-02 0.45705311E+03</pdfrwt>
<pdfrwt beam="2">  1       21 0.12934375E+00 0.45705311E+03</pdfrwt>
<totfact> 0.40931771E+04</totfact>
</mgrwt>
</event>
<event>
 7    0  0.4705418E-002  0.4549133E+03  0.7546771E-02  0.1026267E+00
         21   -1    0    0  502  501  0.00000000000E+00  0.00000000000E+00  0.38051517907E+03  0.38051517907E+03  0.00000000000E+00 0.  1.
         21   -1    0    0  501  502 -0.00000000000E+00 -0.00000000000E+00 -0.13596442756E+03  0.13596442756E+03  0.00000000000E+00 0.  1.
      99926    2    1    2    0    0 -0.14210854715E-13  0.00000000000E+00  0.24455075151E+03  0.51647960663E+03  0.45491330383E+03 0.  0.
      99925    2    3    3    0    0  0.84232345000E+02  0.64532089139E+02  0.19819956693E+03  0.34602310519E+03  0.26303886123E+03 0.  0.
         25    1    4    4    0    0  0.13162492765E+02  0.16903612853E+02  0.57873286878E+02  0.13948408073E+03  0.12509000000E+03 0.  0.
         25    1    3    3    0    0 -0.84232345000E+02 -0.64532089139E+02  0.46351184586E+02  0.17045650145E+03  0.12509000000E+03 0.  0.
         25    1    4    4    0    0  0.71069852235E+02  0.47628476285E+02  0.14032628005E+03  0.20653902445E+03  0.12509000000E+03 0.  0.
<mgrwt>
<rscale>  2 0.45491330E+03</rscale>
<asrwt>0</asrwt>
<pdfrwt beam="1">  1       21 0.55958114E-01 0.45491330E+03</pdfrwt>
<pdfrwt beam="2">  1       21 0.19994769E-01 0.45491330E+03</pdfrwt>
<totfact> 0.64171888E+04</totfact>
</mgrwt>
</event>
<event>
 7    0  0.4705418E-002  0.4579455E+03  0.7546771E-02  0.1025379E+00
         21   -1    0    0  502  501  0.00000000000E+00  0.00000000000E+00  0.12677066421E+03  0.12677066421E+03  0.00000000000E+00 0. -1.
         21   -1    0    0  501  502 -0.00000000000E+00 -0.00000000000E+00 -0.41356981697E+03  0.41356981697E+03  0.00000000000E+00 0. -1.
      99926    2    1    2    0    0 -0.14210854715E-13  0.00000000000E+00 -0.28679915275E+03  0.54034048118E+03  0.45794550067E+03 0.  0.
      99925    2    3    3    0    0  0.71877967676E+02  0.62134936159E+02 -0.25834974804E+03  0.38070317584E+03  0.26298882724E+03 0.  0.
         25    1    3    3    0    0 -0.71877967676E+02 -0.62134936159E+02 -0.28449404716E+02  0.15963730534E+03  0.12509000000E+03 0.  0.
         25    1    4    4    0    0  0.37507275678E+01  0.44442569413E+02 -0.15336243540E+03  0.20287127600E+03  0.12509000000E+03 0.  0.
         25    1    4    4    0    0  0.68127240109E+02  0.17692366746E+02 -0.10498731264E+03  0.17783189984E+03  0.12509000000E+03 0.  0.
<mgrwt>
<rscale>  2 0.45794550E+03</rscale>
<asrwt>0</asrwt>
<pdfrwt beam="1">  1       21 0.18642745E-01 0.45794550E+03</pdfrwt>
<pdfrwt beam="2">  1       21 0.60819091E-01 0.45794550E+03</pdfrwt>
<totfact> 0.61073225E+04</totfact>
</mgrwt>
</event>
<event>
 7    0  0.4705418E-002  0.4525108E+03  0.7546771E-02  0.1026976E+00
         21   -1    0    0  502  501  0.00000000000E+00  0.00000000000E+00  0.10252869709E+03  0.10252869709E+03  0.00000000000E+00 0. -1.
         21   -1    0    0  501  502 -0.00000000000E+00 -0.00000000000E+00 -0.49928962800E+03  0.49928962800E+03  0.00000000000E+00 0. -1.
      99926    2    1    2    0    0  0.00000000000E+00  0.00000000000E+00 -0.39676093091E+03  0.60181832509E+03  0.45251083978E+03 0.  0.
      99925    2    3    3    0    0  0.23404264614E+02  0.10054083897E+03 -0.19655844442E+03  0.34416591661E+03  0.26298048630E+03 0.  0.
         25    1    3    3    0    0 -0.23404264614E+02 -0.10054083897E+03 -0.20020248648E+03  0.25765240848E+03  0.12509000000E+03 0.  0.
         25    1    4    4    0    0  0.16785880996E+02  0.90456188399E+02 -0.12651657280E+03  0.20029488040E+03  0.12509000000E+03 0.  0.
         25    1    4    4    0    0  0.66183836174E+01  0.10084650573E+02 -0.70041871626E+02  0.14387103621E+03  0.12509000000E+03 0.  0.
<mgrwt>
<rscale>  2 0.45251084E+03</rscale>
<asrwt>0</asrwt>
<pdfrwt beam="1">  1       21 0.15077750E-01 0.45251084E+03</pdfrwt>
<pdfrwt beam="2">  1       21 0.73424945E-01 0.45251084E+03</pdfrwt>
<totfact> 0.59732559E+04</totfact>
</mgrwt>
</event>
<event>
 7    0  0.4705418E-002  0.4551993E+03  0.7546771E-02  0.1026183E+00
         21   -1    0    0  502  501  0.00000000000E+00  0.00000000000E+00  0.25066755910E+02  0.25066755910E+02  0.00000000000E+00 0. -1.
         21   -1    0    0  501  502 -0.00000000000E+00 -0.00000000000E+00 -0.20665457684E+04  0.20665457684E+04  0.00000000000E+00 0. -1.
      99926    2    1    2    0    0  0.00000000000E+00  0.00000000000E+00 -0.20414790125E+04  0.20916125243E+04  0.45519928978E+03 0.  0.
      99925    2    3    3    0    0  0.64079552671E+02 -0.36900250447E+02 -0.88845642453E+03  0.92946949783E+03  0.26285150095E+03 0.  0.
         25    1    4    4    0    0  0.51058191679E+02 -0.32572489908E+01 -0.34237409196E+03  0.36808297374E+03  0.12509000000E+03 0.  0.
         25    1    4    4    0    0  0.13021360993E+02 -0.33643001457E+02 -0.54608233257E+03  0.56138652409E+03  0.12509000000E+03 0.  0.
         25    1    3    3    0    0 -0.64079552671E+02  0.36900250447E+02 -0.11530225879E+04  0.11621430265E+04  0.12509000000E+03 0.  0.
<mgrwt>
<rscale>  2 0.45519929E+03</rscale>
<asrwt>0</asrwt>
<pdfrwt beam="1">  1       21 0.36862874E-02 0.45519929E+03</pdfrwt>
<pdfrwt beam="2">  1       21 0.30390381E+00 0.45519929E+03</pdfrwt>
<totfact> 0.12252183E+04</totfact>
</mgrwt>
</event>
<event>
 7    0  0.4705418E-002  0.4596589E+03  0.7546771E-02  0.1024880E+00
         21   -1    0    0  502  501  0.00000000000E+00  0.00000000000E+00  0.14157421429E+04  0.14157421429E+04  0.00000000000E+00 0. -1.
         21   -1    0    0  501  502 -0.00000000000E+00 -0.00000000000E+00 -0.37310159422E+02  0.37310159422E+02  0.00000000000E+00 0. -1.
      99926    2    1    2    0    0  0.00000000000E+00 -0.71054273576E-14  0.13784319835E+04  0.14530523023E+04  0.45965885198E+03 0.  0.
      99925    2    3    3    0    0  0.10308457248E+03 -0.52137185125E+02  0.93348292005E+03  0.97663663056E+03  0.26283841228E+03 0.  0.
         25    1    4    4    0    0  0.83643670599E+02 -0.11888016366E+01  0.50587867711E+03  0.52778634023E+03  0.12509000000E+03 0.  0.
         25    1    4    4    0    0  0.19440901877E+02 -0.50948383489E+02  0.42760424293E+03  0.44885029032E+03  0.12509000000E+03 0.  0.
         25    1    3    3    0    0 -0.10308457248E+03  0.52137185125E+02  0.44494906342E+03  0.47641567175E+03  0.12509000000E+03 0.  0.
<mgrwt>
<rscale>  2 0.45965885E+03</rscale>
<asrwt>0</asrwt>
<pdfrwt beam="1">  1       21 0.20819734E+00 0.45965885E+03</pdfrwt>
<pdfrwt beam="2">  1       21 0.54867891E-02 0.45965885E+03</pdfrwt>
<totfact> 0.24068805E+04</totfact>
</mgrwt>
</event>
<event>
 7    0  0.4705418E-002  0.4380271E+03  0.7546771E-02  0.1031354E+00
         21   -1    0    0  502  501  0.00000000000E+00  0.00000000000E+00  0.99935902715E+03  0.99935902715E+03  0.00000000000E+00 0. -1.
         21   -1    0    0  501  502 -0.00000000000E+00 -0.00000000000E+00 -0.47997706999E+02  0.47997706999E+02  0.00000000000E+00 0. -1.
      99926    2    1    2    0    0  0.00000000000E+00  0.00000000000E+00  0.95136132015E+03  0.10473567341E+04  0.43802713054E+03 0.  0.
      99925    2    3    3    0    0 -0.20461603660E+02  0.79256232605E+02  0.73040936364E+03  0.78058435398E+03  0.26289516459E+03 0.  0.
         25    1    4    4    0    0  0.16423672908E+02  0.23689099499E+02  0.27226178586E+03  0.30100647602E+03  0.12509000000E+03 0.  0.
         25    1    4    4    0    0 -0.36885276568E+02  0.55567133106E+02  0.45814757777E+03  0.47957787796E+03  0.12509000000E+03 0.  0.
         25    1    3    3    0    0  0.20461603660E+02 -0.79256232605E+02  0.22095195651E+03  0.26677238016E+03  0.12509000000E+03 0.  0.
<mgrwt>
<rscale>  2 0.43802713E+03</rscale>
<asrwt>0</asrwt>
<pdfrwt beam="1">  1       21 0.14696455E+00 0.43802713E+03</pdfrwt>
<pdfrwt beam="2">  1       21 0.70584870E-02 0.43802713E+03</pdfrwt>
<totfact> 0.42765327E+04</totfact>
</mgrwt>
</event>
<event>
 7    0  0.4705418E-002  0.4640600E+03  0.7546771E-02  0.1023610E+00
         21   -1    0    0  502  501  0.00000000000E+00  0.00000000000E+00  0.24253664144E+03  0.24253664144E+03  0.00000000000E+00 0. -1.
         21   -1    0    0  501  502 -0.00000000000E+00 -0.00000000000E+00 -0.22197848714E+03  0.22197848714E+03  0.00000000000E+00 0. -1.
      99926    2    1    2    0    0  0.00000000000E+00  0.00000000000E+00  0.20558154305E+02  0.46451512858E+03  0.46405998208E+03 0.  0.
      99925    2    3    3    0    0 -0.99706157907E+02  0.38087465745E+02  0.70730627782E+02  0.29259433819E+03  0.26309057768E+03 0.  0.
         25    1    4    4    0    0 -0.70020763088E+02  0.22933256510E+02  0.20787407516E+00  0.14517710849E+03  0.12509000000E+03 0.  0.
         25    1    4    4    0    0 -0.29685394819E+02  0.15154209235E+02  0.70522753707E+02  0.14741722970E+03  0.12509000000E+03 0.  0.
         25    1    3    3    0    0  0.99706157907E+02 -0.38087465745E+02 -0.50172473478E+02  0.17192079038E+03  0.12509000000E+03 0.  0.
<mgrwt>
<rscale>  2 0.46405998E+03</rscale>
<asrwt>0</asrwt>
<pdfrwt beam="1">  1       21 0.35667153E-01 0.46405998E+03</pdfrwt>
<pdfrwt beam="2">  1       21 0.32643895E-01 0.46405998E+03</pdfrwt>
<totfact> 0.63163323E+04</totfact>
</mgrwt>
</event>
<event>
 7    0  0.4705418E-002  0.4524984E+03  0.7546771E-02  0.1026980E+00
         21   -1    0    0  502  501  0.00000000000E+00  0.00000000000E+00  0.81749114924E+03  0.81749114924E+03  0.00000000000E+00 0.  1.
         21   -1    0    0  501  502 -0.00000000000E+00 -0.00000000000E+00 -0.62616838633E+02  0.62616838633E+02  0.00000000000E+00 0.  1.
      99926    2    1    2    0    0  0.00000000000E+00  0.00000000000E+00  0.75487431060E+03  0.88010798787E+03  0.45249844807E+03 0.  0.
      99925    2    3    3    0    0 -0.35511145882E+02 -0.61052997005E+02  0.31088996319E+03  0.41346238490E+03  0.26326804703E+03 0.  0.
         25    1    3    3    0    0  0.35511145882E+02  0.61052997005E+02  0.44398434741E+03  0.46664560297E+03  0.12509000000E+03 0.  0.
         25    1    4    4    0    0 -0.12190069348E+02 -0.18954994605E+02  0.92404515945E+02  0.15714322218E+03  0.12509000000E+03 0.  0.
         25    1    4    4    0    0 -0.23321076534E+02 -0.42098002400E+02  0.21848544725E+03  0.25631916272E+03  0.12509000000E+03 0.  0.
<mgrwt>
<rscale>  2 0.45249845E+03</rscale>
<asrwt>0</asrwt>
<pdfrwt beam="1">  1       21 0.12021928E+00 0.45249845E+03</pdfrwt>
<pdfrwt beam="2">  1       21 0.92083591E-02 0.45249845E+03</pdfrwt>
<totfact> 0.44979737E+04</totfact>
</mgrwt>
</event>
<event>
 7    0  0.4705418E-002  0.4432979E+03  0.7546771E-02  0.1029740E+00
         21   -1    0    0  502  501  0.00000000000E+00  0.00000000000E+00  0.54584398975E+03  0.54584398975E+03  0.00000000000E+00 0. -1.
         21   -1    0    0  501  502 -0.00000000000E+00 -0.00000000000E+00 -0.90004203749E+02  0.90004203749E+02  0.00000000000E+00 0. -1.
      99926    2    1    2    0    0 -0.71054273576E-14 -0.17763568394E-14  0.45583978600E+03  0.63584819350E+03  0.44329788481E+03 0.  0.
      99925    2    3    3    0    0  0.41459801368E+02  0.83233884566E+01  0.42285365453E+03  0.49974607414E+03  0.26296906957E+03 0.  0.
         25    1    4    4    0    0  0.34918431897E+02 -0.31505009371E+01  0.14462180223E+03  0.19440215102E+03  0.12509000000E+03 0.  0.
         25    1    3    3    0    0 -0.41459801368E+02 -0.83233884566E+01  0.32986131478E+02  0.13610211936E+03  0.12509000000E+03 0.  0.
         25    1    4    4    0    0  0.65413694711E+01  0.11473889394E+02  0.27823185230E+03  0.30534392312E+03  0.12509000000E+03 0.  0.
<mgrwt>
<rscale>  2 0.44329788E+03</rscale>
<asrwt>0</asrwt>
<pdfrwt beam="1">  1       21 0.80271174E-01 0.44329788E+03</pdfrwt>
<pdfrwt beam="2">  1       21 0.13235913E-01 0.44329788E+03</pdfrwt>
<totfact> 0.62060048E+04</totfact>
</mgrwt>
</event>
<event>
 7    0  0.4705418E-002  0.4544277E+03  0.7546771E-02  0.1026410E+00
         21   -1    0    0  502  501  0.00000000000E+00  0.00000000000E+00  0.33500218353E+03  0.33500218353E+03  0.00000000000E+00 0.  1.
         21   -1    0    0  501  502 -0.00000000000E+00 -0.00000000000E+00 -0.15410685344E+03  0.15410685344E+03  0.00000000000E+00 0.  1.
      99926    2    1    2    0    0  0.00000000000E+00  0.00000000000E+00  0.18089533009E+03  0.48910903697E+03  0.45442769458E+03 0.  0.
      99925    2    3    3    0    0 -0.47091923785E+02  0.89556413750E+02  0.16706663702E+03  0.32762609242E+03  0.26303915050E+03 0.  0.
         25    1    4    4    0    0 -0.48551108598E+02  0.51619628823E+02  0.12439295787E+03  0.19011289355E+03  0.12509000000E+03 0.  0.
         25    1    4    4    0    0  0.14591848138E+01  0.37936784928E+02  0.42673679156E+02  0.13751319887E+03  0.12509000000E+03 0.  0.
         25    1    3    3    0    0  0.47091923785E+02 -0.89556413750E+02  0.13828693067E+02  0.16148294455E+03  0.12509000000E+03 0.  0.
<mgrwt>
<rscale>  2 0.45442769E+03</rscale>
<asrwt>0</asrwt>
<pdfrwt beam="1">  1       21 0.49265027E-01 0.45442769E+03</pdfrwt>
<pdfrwt beam="2">  1       21 0.22662772E-01 0.45442769E+03</pdfrwt>
<totfact> 0.66343678E+04</totfact>
</mgrwt>
</event>
<event>
 7    0  0.4705418E-002  0.4576640E+03  0.7546771E-02  0.1025461E+00
         21   -1    0    0  502  501  0.00000000000E+00  0.00000000000E+00  0.20048462799E+03  0.20048462799E+03  0.00000000000E+00 0.  1.
         21   -1    0    0  501  502 -0.00000000000E+00 -0.00000000000E+00 -0.26118747055E+03  0.26118747055E+03  0.00000000000E+00 0.  1.
      99926    2    1    2    0    0  0.00000000000E+00  0.17763568394E-14 -0.60702842551E+02  0.46167209854E+03  0.45766395038E+03 0.  0.
      99925    2    3    3    0    0  0.84412054462E+02  0.14796826757E+02  0.40146281056E+02  0.27956664872E+03  0.26306167751E+03 0.  0.
         25    1    4    4    0    0  0.46133990746E+02 -0.21994859250E+01 -0.19555541604E+02  0.13477058339E+03  0.12509000000E+03 0.  0.
         25    1    3    3    0    0 -0.84412054462E+02 -0.14796826757E+02 -0.10084912361E+03  0.18210544982E+03  0.12509000000E+03 0.  0.
         25    1    4    4    0    0  0.38278063716E+02  0.16996312682E+02  0.59701822660E+02  0.14479606533E+03  0.12509000000E+03 0.  0.
<mgrwt>
<rscale>  2 0.45766395E+03</rscale>
<asrwt>0</asrwt>
<pdfrwt beam="1">  1       21 0.29483034E-01 0.45766395E+03</pdfrwt>
<pdfrwt beam="2">  1       21 0.38409922E-01 0.45766395E+03</pdfrwt>
<totfact> 0.66632017E+04</totfact>
</mgrwt>
</event>
<event>
 7    0  0.4705418E-002  0.4525330E+03  0.7546771E-02  0.1026969E+00
         21   -1    0    0  502  501  0.00000000000E+00  0.00000000000E+00  0.21137015506E+03  0.21137015506E+03  0.00000000000E+00 0.  1.
         21   -1    0    0  501  502 -0.00000000000E+00 -0.00000000000E+00 -0.24221263863E+03  0.24221263863E+03  0.00000000000E+00 0.  1.
      99926    2    1    2    0    0  0.00000000000E+00  0.00000000000E+00 -0.30842483565E+02  0.45358279369E+03  0.45253297331E+03 0.  0.
      99925    2    3    3    0    0  0.16039736296E+02 -0.94431055409E+02 -0.75438239742E+02  0.28984279572E+03  0.26295136594E+03 0.  0.
         25    1    3    3    0    0 -0.16039736296E+02  0.94431055409E+02  0.44595756177E+02  0.16373999797E+03  0.12509000000E+03 0.  0.
         25    1    4    4    0    0  0.32371259911E+01 -0.84754090856E+02 -0.21411390085E+02  0.15264236184E+03  0.12509000000E+03 0.  0.
         25    1    4    4    0    0  0.12802610305E+02 -0.96769645531E+01 -0.54026849657E+02  0.13720043388E+03  0.12509000000E+03 0.  0.
<mgrwt>
<rscale>  2 0.45253297E+03</rscale>
<asrwt>0</asrwt>
<pdfrwt beam="1">  1       21 0.31083846E-01 0.45253297E+03</pdfrwt>
<pdfrwt beam="2">  1       21 0.35619506E-01 0.45253297E+03</pdfrwt>
<totfact> 0.70017882E+04</totfact>
</mgrwt>
</event>
<event>
 7    0  0.4705418E-002  0.4563584E+03  0.7546771E-02  0.1025843E+00
         21   -1    0    0  502  501  0.00000000000E+00  0.00000000000E+00  0.36931291938E+02  0.36931291938E+02  0.00000000000E+00 0.  1.
         21   -1    0    0  501  502 -0.00000000000E+00 -0.00000000000E+00 -0.14098001320E+04  0.14098001320E+04  0.00000000000E+00 0.  1.
      99926    2    1    2    0    0 -0.44408920985E-15  0.00000000000E+00 -0.13728688400E+04  0.14467314239E+04  0.45635836904E+03 0.  0.
      99925    2    3    3    0    0 -0.35614467938E+01  0.77913845239E+02 -0.59436561551E+03  0.65439435556E+03  0.26244663554E+03 0.  0.
         25    1    3    3    0    0  0.35614467938E+01 -0.77913845239E+02 -0.77850322453E+03  0.79233706836E+03  0.12509000000E+03 0.  0.
         25    1    4    4    0    0 -0.13006871660E+02  0.69507026773E+02 -0.25827479712E+03  0.29555673636E+03  0.12509000000E+03 0.  0.
         25    1    4    4    0    0  0.94454248663E+01  0.84068184666E+01 -0.33609081839E+03  0.35883761920E+03  0.12509000000E+03 0.  0.
<mgrwt>
<rscale>  2 0.45635837E+03</rscale>
<asrwt>0</asrwt>
<pdfrwt beam="1">  1       21 0.54310712E-02 0.45635837E+03</pdfrwt>
<pdfrwt beam="2">  1       21 0.20732359E+00 0.45635837E+03</pdfrwt>
<totfact> 0.24849554E+04</totfact>
</mgrwt>
</event>
<event>
 7    0  0.4705418E-002  0.4432567E+03  0.7546771E-02  0.1029752E+00
         21   -1    0    0  502  501  0.00000000000E+00  0.00000000000E+00  0.24748613438E+03  0.24748613438E+03  0.00000000000E+00 0. -1.
         21   -1    0    0  501  502 -0.00000000000E+00 -0.00000000000E+00 -0.19847219268E+03  0.19847219268E+03  0.00000000000E+00 0. -1.
      99926    2    1    2    0    0  0.00000000000E+00  0.00000000000E+00  0.49013941703E+02  0.44595832707E+03  0.44325665590E+03 0.  0.
      99925    2    3    3    0    0 -0.24082654755E+02  0.57712208557E+02 -0.49702965480E+02  0.27477652564E+03  0.26290888343E+03 0.  0.
         25    1    4    4    0    0 -0.46495785775E+02  0.84657220116E+01 -0.18905644059E+02  0.13504983533E+03  0.12509000000E+03 0.  0.
         25    1    4    4    0    0  0.22413131020E+02  0.49246486545E+02 -0.30797321421E+02  0.13972669031E+03  0.12509000000E+03 0.  0.
         25    1    3    3    0    0  0.24082654755E+02 -0.57712208557E+02  0.98716907183E+02  0.17118180143E+03  0.12509000000E+03 0.  0.
<mgrwt>
<rscale>  2 0.44325666E+03</rscale>
<asrwt>0</asrwt>
<pdfrwt beam="1">  1       21 0.36395020E-01 0.44325666E+03</pdfrwt>
<pdfrwt beam="2">  1       21 0.29187087E-01 0.44325666E+03</pdfrwt>
<totfact> 0.76097028E+04</totfact>
</mgrwt>
</event>
<event>
 7    0  0.4705418E-002  0.4494440E+03  0.7546771E-02  0.1027888E+00
         21   -1    0    0  502  501  0.00000000000E+00  0.00000000000E+00  0.62275116398E+03  0.62275116398E+03  0.00000000000E+00 0.  1.
         21   -1    0    0  501  502 -0.00000000000E+00 -0.00000000000E+00 -0.81091754431E+02  0.81091754431E+02  0.00000000000E+00 0.  1.
      99926    2    1    2    0    0  0.00000000000E+00  0.00000000000E+00  0.54165940955E+03  0.70384291841E+03  0.44944403194E+03 0.  0.
      99925    2    3    3    0    0 -0.33091004773E+02  0.10257825557E+03  0.33546136542E+03  0.43967922936E+03  0.26299464619E+03 0.  0.
         25    1    3    3    0    0  0.33091004773E+02 -0.10257825557E+03  0.20619804412E+03  0.26416368905E+03  0.12509000000E+03 0.  0.
         25    1    4    4    0    0 -0.83028740239E+01  0.61376979544E+02  0.11135242515E+03  0.17855795144E+03  0.12509000000E+03 0.  0.
         25    1    4    4    0    0 -0.24788130750E+02  0.41201276026E+02  0.22410894027E+03  0.26112127792E+03  0.12509000000E+03 0.  0.
<mgrwt>
<rscale>  2 0.44944403E+03</rscale>
<asrwt>0</asrwt>
<pdfrwt beam="1">  1       21 0.91581051E-01 0.44944403E+03</pdfrwt>
<pdfrwt beam="2">  1       21 0.11925258E-01 0.44944403E+03</pdfrwt>
<totfact> 0.55062913E+04</totfact>
</mgrwt>
</event>
<event>
 7    0  0.4705418E-002  0.4520661E+03  0.7546771E-02  0.1027108E+00
         21   -1    0    0  502  501  0.00000000000E+00  0.00000000000E+00  0.64111430890E+02  0.64111430890E+02  0.00000000000E+00 0. -1.
         21   -1    0    0  501  502 -0.00000000000E+00 -0.00000000000E+00 -0.79690858671E+03  0.79690858671E+03  0.00000000000E+00 0. -1.
      99926    2    1    2    0    0  0.00000000000E+00  0.00000000000E+00 -0.73279715582E+03  0.86102001760E+03  0.45206614464E+03 0.  0.
      99925    2    3    3    0    0  0.84450890813E+02  0.48471210911E+02 -0.36383528192E+03  0.45944588529E+03  0.26312164087E+03 0.  0.
         25    1    4    4    0    0  0.56012140551E+02 -0.12415636401E+02 -0.19791065764E+03  0.24105527255E+03  0.12509000000E+03 0.  0.
         25    1    4    4    0    0  0.28438750262E+02  0.60886847312E+02 -0.16592462428E+03  0.21839061275E+03  0.12509000000E+03 0.  0.
         25    1    3    3    0    0 -0.84450890813E+02 -0.48471210911E+02 -0.36896187390E+03  0.40157413231E+03  0.12509000000E+03 0.  0.
<mgrwt>
<rscale>  2 0.45206614E+03</rscale>
<asrwt>0</asrwt>
<pdfrwt beam="1">  1       21 0.94281516E-02 0.45206614E+03</pdfrwt>
<pdfrwt beam="2">  1       21 0.11719244E+00 0.45206614E+03</pdfrwt>
<totfact> 0.45999738E+04</totfact>
</mgrwt>
</event>
<event>
 7    0  0.4705418E-002  0.4532165E+03  0.7546771E-02  0.1026767E+00
         21   -1    0    0  502  501  0.00000000000E+00  0.00000000000E+00  0.12455251902E+03  0.12455251902E+03  0.00000000000E+00 0.  1.
         21   -1    0    0  501  502 -0.00000000000E+00 -0.00000000000E+00 -0.41228633248E+03  0.41228633248E+03  0.00000000000E+00 0.  1.
      99926    2    1    2    0    0  0.00000000000E+00  0.00000000000E+00 -0.28773381347E+03  0.53683885150E+03  0.45321651014E+03 0.  0.
      99925    2    3    3    0    0 -0.26840182968E+02 -0.52277094181E+02 -0.69008615058E+02  0.27810827635E+03  0.26292343833E+03 0.  0.
         25    1    4    4    0    0 -0.48028090782E+02 -0.39323109126E+02 -0.53898725112E+02  0.14968495276E+03  0.12509000000E+03 0.  0.
         25    1    3    3    0    0  0.26840182968E+02  0.52277094181E+02 -0.21872519841E+03  0.25873057515E+03  0.12509000000E+03 0.  0.
         25    1    4    4    0    0  0.21187907814E+02 -0.12953985055E+02 -0.15109889946E+02  0.12842332358E+03  0.12509000000E+03 0.  0.
<mgrwt>
<rscale>  2 0.45321651E+03</rscale>
<asrwt>0</asrwt>
<pdfrwt beam="1">  1       21 0.18316547E-01 0.45321651E+03</pdfrwt>
<pdfrwt beam="2">  1       21 0.60630341E-01 0.45321651E+03</pdfrwt>
<totfact> 0.63638218E+04</totfact>
</mgrwt>
</event>
<event>
 7    0  0.4705418E-002  0.4530802E+03  0.7546771E-02  0.1026807E+00
         21   -1    0    0  502  501  0.00000000000E+00  0.00000000000E+00  0.88228672096E+03  0.88228672096E+03  0.00000000000E+00 0.  1.
         21   -1    0    0  501  502 -0.00000000000E+00 -0.00000000000E+00 -0.58167492905E+02  0.58167492905E+02  0.00000000000E+00 0.  1.
      99926    2    1    2    0    0  0.44408920985E-14  0.00000000000E+00  0.82411922806E+03  0.94045421387E+03  0.45308015442E+03 0.  0.
      99925    2    3    3    0    0  0.29458247472E+01 -0.10054746851E+03  0.61823655870E+03  0.67939166782E+03  0.26313138255E+03 0.  0.
         25    1    4    4    0    0  0.34989329126E+02 -0.44413281759E+02  0.25097344596E+03  0.28606288020E+03  0.12509000000E+03 0.  0.
         25    1    4    4    0    0 -0.32043504379E+02 -0.56134186750E+02  0.36726311273E+03  0.39332878762E+03  0.12509000000E+03 0.  0.
         25    1    3    3    0    0 -0.29458247472E+01  0.10054746851E+03  0.20588266936E+03  0.26106254605E+03  0.12509000000E+03 0.  0.
<mgrwt>
<rscale>  2 0.45308015E+03</rscale>
<asrwt>0</asrwt>
<pdfrwt beam="1">  1       21 0.12974804E+00 0.45308015E+03</pdfrwt>
<pdfrwt beam="2">  1       21 0.85540436E-02 0.45308015E+03</pdfrwt>
<totfact> 0.42159215E+04</totfact>
</mgrwt>
</event>
<event>
 7    0  0.4705418E-002  0.4561087E+03  0.7546771E-02  0.1025916E+00
         21   -1    0    0  502  501  0.00000000000E+00  0.00000000000E+00  0.15311972047E+04  0.15311972047E+04  0.00000000000E+00 0. -1.
         21   -1    0    0  501  502 -0.00000000000E+00 -0.00000000000E+00 -0.33966097698E+02  0.33966097698E+02  0.00000000000E+00 0. -1.
      99926    2    1    2    0    0  0.00000000000E+00  0.00000000000E+00  0.14972311070E+04  0.15651633024E+04  0.45610873200E+03 0.  0.
      99925    2    3    3    0    0 -0.63474439769E+02  0.46353107515E+02  0.12250061604E+04  0.12554351236E+04  0.26324825073E+03 0.  0.
         25    1    4    4    0    0 -0.10785029385E+02  0.26197342039E+02  0.75462689783E+03  0.76544880993E+03  0.12509000000E+03 0.  0.
         25    1    3    3    0    0  0.63474439769E+02 -0.46353107515E+02  0.27222494662E+03  0.30972817880E+03  0.12509000000E+03 0.  0.
         25    1    4    4    0    0 -0.52689410385E+02  0.20155765476E+02  0.47037926259E+03  0.48998631371E+03  0.12509000000E+03 0.  0.
<mgrwt>
<rscale>  2 0.45610873E+03</rscale>
<asrwt>0</asrwt>
<pdfrwt beam="1">  1       21 0.22517601E+00 0.45610873E+03</pdfrwt>
<pdfrwt beam="2">  1       21 0.49950154E-02 0.45610873E+03</pdfrwt>
<totfact> 0.22035987E+04</totfact>
</mgrwt>
</event>
