<event>
 6    0  0.2120126E-005  0.6523174E+03  0.7546771E-02  0.9802440E-01
         21   -1    0    0  502  501  0.00000000000E+00  0.00000000000E+00  0.50910611325E+03  0.50910611325E+03  0.00000000000E+00 0.  1.
         21   -1    0    0  501  502 -0.00000000000E+00 -0.00000000000E+00 -0.20895347713E+03  0.20895347713E+03  0.00000000000E+00 0.  1.
      99926    2    1    2    0    0  0.12739856272E+03  0.41494648782E+02  0.22830120224E+03  0.52117806176E+03  0.44894647059E+03 0.  0.
         25    1    3    3    0    0 -0.56911704769E+02 -0.26437399929E+02 -0.58545833354E+02  0.15170036571E+03  0.12509000000E+03 0.  0.
         25    1    1    2    0    0 -0.12739856272E+03 -0.41494648782E+02  0.71851433887E+02  0.19688152862E+03  0.12509000000E+03 0.  0.
         25    1    3    3    0    0  0.18431026749E+03  0.67932048710E+02  0.28684703559E+03  0.36947769604E+03  0.12509000000E+03 0.  0.
<mgrwt>
<rscale>  2 0.65231738E+03</rscale>
<asrwt>0</asrwt>
<pdfrwt beam="1">  1       21 0.74868546E-01 0.65231738E+03</pdfrwt>
<pdfrwt beam="2">  1       21 0.30728452E-01 0.65231738E+03</pdfrwt>
<totfact> 0.13925819E+04</totfact>
</mgrwt>
</event>
<event>
 6    0  0.2120126E-005  0.7218002E+03  0.7546771E-02  0.9680661E-01
         21   -1    0    0  502  501  0.00000000000E+00  0.00000000000E+00  0.10783085364E+03  0.10783085364E+03  0.00000000000E+00 0. -1.
         21   -1    0    0  501  502 -0.00000000000E+00 -0.00000000000E+00 -0.12078998473E+04  0.12078998473E+04  0.00000000000E+00 0.  1.
      99926    2    1    2    0    0  0.16944797449E+03 -0.56161691831E+02 -0.58011393172E+03  0.75193328500E+03  0.44385215965E+03 0.  0.
         25    1    3    3    0    0  0.27711138983E+03 -0.11277343524E+02 -0.41148622151E+03  0.51174829696E+03  0.12509000000E+03 0.  0.
         25    1    3    3    0    0 -0.10766341534E+03 -0.44884348306E+02 -0.16862771021E+03  0.24018498804E+03  0.12509000000E+03 0.  0.
         25    1    1    2    0    0 -0.16944797449E+03  0.56161691831E+02 -0.51995506196E+03  0.56379741597E+03  0.12509000000E+03 0.  0.
<mgrwt>
<rscale>  2 0.72180017E+03</rscale>
<asrwt>0</asrwt>
<pdfrwt beam="1">  1       21 0.15857479E-01 0.72180017E+03</pdfrwt>
<pdfrwt beam="2">  1       21 0.17763233E+00 0.72180017E+03</pdfrwt>
<totfact> 0.53821397E+03</totfact>
</mgrwt>
</event>
<event>
 6    0  0.2120126E-005  0.7481951E+03  0.7546771E-02  0.9638186E-01
         21   -1    0    0  502  501  0.00000000000E+00  0.00000000000E+00  0.18315929881E+03  0.18315929881E+03  0.00000000000E+00 0.  1.
         21   -1    0    0  501  502 -0.00000000000E+00 -0.00000000000E+00 -0.76408344629E+03  0.76408344629E+03  0.00000000000E+00 0.  1.
      99926    2    1    2    0    0 -0.19403726423E+03  0.74125628558E+02 -0.44625081195E+03  0.66988109649E+03  0.45437410528E+03 0.  0.
         25    1    3    3    0    0 -0.11436032472E+03  0.16035221362E+03 -0.44020996733E+03  0.49822027229E+03  0.12509000000E+03 0.  0.
         25    1    3    3    0    0 -0.79676939509E+02 -0.86226585058E+02 -0.60408446119E+01  0.17166082420E+03  0.12509000000E+03 0.  0.
         25    1    1    2    0    0  0.19403726423E+03 -0.74125628558E+02 -0.13467333554E+03  0.27736164862E+03  0.12509000000E+03 0.  0.
<mgrwt>
<rscale>  2 0.74819513E+03</rscale>
<asrwt>0</asrwt>
<pdfrwt beam="1">  1       21 0.26935191E-01 0.74819513E+03</pdfrwt>
<pdfrwt beam="2">  1       21 0.11236521E+00 0.74819513E+03</pdfrwt>
<totfact> 0.66883313E+03</totfact>
</mgrwt>
</event>
<event>
 6    0  0.2120126E-005  0.8083527E+03  0.7546771E-02  0.9548005E-01
         21   -1    0    0  502  501  0.00000000000E+00  0.00000000000E+00  0.27068173964E+03  0.27068173964E+03  0.00000000000E+00 0. -1.
         21   -1    0    0  501  502 -0.00000000000E+00 -0.00000000000E+00 -0.60350771591E+03  0.60350771591E+03  0.00000000000E+00 0.  1.
      99926    2    1    2    0    0 -0.19179377192E+03 -0.19202457240E+03 -0.19977273064E+03  0.54706721291E+03  0.43094675331E+03 0.  0.
         25    1    1    2    0    0  0.19179377192E+03  0.19202457240E+03 -0.13305324563E+03  0.32712224263E+03  0.12509000000E+03 0.  0.
         25    1    3    3    0    0  0.66062450635E+02  0.32239164573E+02 -0.65264157356E+02  0.15909283281E+03  0.12509000000E+03 0.  0.
         25    1    3    3    0    0 -0.25785622256E+03 -0.22426373697E+03 -0.13450857328E+03  0.38797438010E+03  0.12509000000E+03 0.  0.
<mgrwt>
<rscale>  2 0.80835269E+03</rscale>
<asrwt>0</asrwt>
<pdfrwt beam="1">  1       21 0.39806138E-01 0.80835269E+03</pdfrwt>
<pdfrwt beam="2">  1       21 0.88751135E-01 0.80835269E+03</pdfrwt>
<totfact> 0.53510925E+03</totfact>
</mgrwt>
</event>
<event>
 6    0  0.2120126E-005  0.6029721E+03  0.7546771E-02  0.9899259E-01
         21   -1    0    0  502  501  0.00000000000E+00  0.00000000000E+00  0.94872258153E+03  0.94872258153E+03  0.00000000000E+00 0.  1.
         21   -1    0    0  501  502 -0.00000000000E+00 -0.00000000000E+00 -0.95806549394E+02  0.95806549394E+02  0.00000000000E+00 0.  1.
      99926    2    1    2    0    0  0.51580792778E+02  0.50299041735E+02  0.64607784102E+03  0.79229884490E+03  0.45291313868E+03 0.  0.
         25    1    3    3    0    0 -0.12575070300E+03  0.27794011685E+02  0.49599058681E+03  0.52748451796E+03  0.12509000000E+03 0.  0.
         25    1    1    2    0    0 -0.51580792778E+02 -0.50299041735E+02  0.20683819111E+03  0.25223028602E+03  0.12509000000E+03 0.  0.
         25    1    3    3    0    0  0.17733149578E+03  0.22505030050E+02  0.15008725421E+03  0.26481432694E+03  0.12509000000E+03 0.  0.
<mgrwt>
<rscale>  2 0.60297210E+03</rscale>
<asrwt>0</asrwt>
<pdfrwt beam="1">  1       21 0.13951802E+00 0.60297210E+03</pdfrwt>
<pdfrwt beam="2">  1       21 0.14089199E-01 0.60297210E+03</pdfrwt>
<totfact> 0.13577969E+04</totfact>
</mgrwt>
</event>
<event>
 6    0  0.2120126E-005  0.5836134E+03  0.7546771E-02  0.9939999E-01
         21   -1    0    0  502  501  0.00000000000E+00  0.00000000000E+00  0.54696774511E+03  0.54696774511E+03  0.00000000000E+00 0. -1.
         21   -1    0    0  501  502 -0.00000000000E+00 -0.00000000000E+00 -0.15567855135E+03  0.15567855135E+03  0.00000000000E+00 0. -1.
      99926    2    1    2    0    0 -0.30297637021E+02  0.23520038036E+02  0.33688218245E+03  0.56094671996E+03  0.44687859513E+03 0.  0.
         25    1    3    3    0    0  0.89285392870E+02  0.76875278378E+02 -0.73377057497E+01  0.17199720879E+03  0.12509000000E+03 0.  0.
         25    1    1    2    0    0  0.30297637021E+02 -0.23520038036E+02  0.54407011315E+02  0.14169957649E+03  0.12509000000E+03 0.  0.
         25    1    3    3    0    0 -0.11958302989E+03 -0.53355240342E+02  0.34421988820E+03  0.38894951117E+03  0.12509000000E+03 0.  0.
<mgrwt>
<rscale>  2 0.58361339E+03</rscale>
<asrwt>0</asrwt>
<pdfrwt beam="1">  1       21 0.80436432E-01 0.58361339E+03</pdfrwt>
<pdfrwt beam="2">  1       21 0.22893905E-01 0.58361339E+03</pdfrwt>
<totfact> 0.21358299E+04</totfact>
</mgrwt>
</event>
<event>
 6    0  0.7700495E-005  0.6209278E+03  0.7546771E-02  0.9862914E-01
         21   -1    0    0  502  501  0.00000000000E+00  0.00000000000E+00  0.24517087738E+03  0.24517087738E+03  0.00000000000E+00 0. -1.
         21   -1    0    0  501  502 -0.00000000000E+00 -0.00000000000E+00 -0.39314553352E+03  0.39314553352E+03  0.00000000000E+00 0.  1.
      99926    2    1    2    0    0 -0.16671937201E+02 -0.84268147818E+02 -0.18962577471E+03  0.48095886261E+03  0.43357169979E+03 0.  0.
         25    1    3    3    0    0  0.21125721684E+02 -0.20664068704E+03 -0.17942242105E+03  0.30163982319E+03  0.12509000000E+03 0.  0.
         25    1    3    3    0    0 -0.37797658886E+02  0.12237253922E+03 -0.10203353663E+02  0.17931903942E+03  0.12509000000E+03 0.  0.
         25    1    1    2    0    0  0.16671937201E+02  0.84268147818E+02  0.41651118572E+02  0.15735754829E+03  0.12509000000E+03 0.  0.
<mgrwt>
<rscale>  2 0.62092781E+03</rscale>
<asrwt>0</asrwt>
<pdfrwt beam="1">  1       21 0.36054541E-01 0.62092781E+03</pdfrwt>
<pdfrwt beam="2">  1       21 0.57815519E-01 0.62092781E+03</pdfrwt>
<totfact> 0.18103925E+04</totfact>
</mgrwt>
</event>
<event>
 6    0  0.2120126E-005  0.7061215E+03  0.7546771E-02  0.9706821E-01
         21   -1    0    0  502  501  0.00000000000E+00  0.00000000000E+00  0.11101097578E+04  0.11101097578E+04  0.00000000000E+00 0.  1.
         21   -1    0    0  501  502 -0.00000000000E+00 -0.00000000000E+00 -0.11228789355E+03  0.11228789355E+03  0.00000000000E+00 0.  1.
      99926    2    1    2    0    0 -0.85114977806E+02 -0.14782246263E+03  0.78588335548E+03  0.92296238371E+03  0.45293583809E+03 0.  0.
         25    1    3    3    0    0 -0.44243769224E+02 -0.11169826851E+03  0.76559695581E+03  0.78499695614E+03  0.12509000000E+03 0.  0.
         25    1    1    2    0    0  0.85114977806E+02  0.14782246263E+03  0.21193850881E+03  0.29943526766E+03  0.12509000000E+03 0.  0.
         25    1    3    3    0    0 -0.40871208582E+02 -0.36124194122E+02  0.20286399661E+02  0.13796542756E+03  0.12509000000E+03 0.  0.
<mgrwt>
<rscale>  2 0.70612148E+03</rscale>
<asrwt>0</asrwt>
<pdfrwt beam="1">  1       21 0.16325143E+00 0.70612148E+03</pdfrwt>
<pdfrwt beam="2">  1       21 0.16512926E-01 0.70612148E+03</pdfrwt>
<totfact> 0.63921764E+03</totfact>
</mgrwt>
</event>
<event>
 6    0  0.2120126E-005  0.7264345E+03  0.7546771E-02  0.9673064E-01
         21   -1    0    0  502  501  0.00000000000E+00  0.00000000000E+00  0.47155092063E+03  0.47155092063E+03  0.00000000000E+00 0.  1.
         21   -1    0    0  501  502 -0.00000000000E+00 -0.00000000000E+00 -0.27977209004E+03  0.27977209004E+03  0.00000000000E+00 0.  1.
      99926    2    1    2    0    0  0.39531040688E+02  0.19713740937E+03  0.15316565744E+03  0.51139730010E+03  0.44456902566E+03 0.  0.
         25    1    3    3    0    0  0.17091198076E+03  0.37967613519E+02  0.16287214568E+03  0.26986531601E+03  0.12509000000E+03 0.  0.
         25    1    3    3    0    0 -0.13138094007E+03  0.15916979585E+03 -0.97064882368E+01  0.24153198409E+03  0.12509000000E+03 0.  0.
         25    1    1    2    0    0 -0.39531040688E+02 -0.19713740937E+03  0.38613173149E+02  0.23992571057E+03  0.12509000000E+03 0.  0.
<mgrwt>
<rscale>  2 0.72643454E+03</rscale>
<asrwt>0</asrwt>
<pdfrwt beam="1">  1       21 0.69345724E-01 0.72643454E+03</pdfrwt>
<pdfrwt beam="2">  1       21 0.41142954E-01 0.72643454E+03</pdfrwt>
<totfact> 0.90066357E+03</totfact>
</mgrwt>
</event>
<event>
 6    0  0.2120126E-005  0.6061898E+03  0.7546771E-02  0.9892647E-01
         21   -1    0    0  502  501  0.00000000000E+00  0.00000000000E+00  0.21396268896E+03  0.21396268896E+03  0.00000000000E+00 0.  1.
         21   -1    0    0  501  502 -0.00000000000E+00 -0.00000000000E+00 -0.42935763376E+03  0.42935763376E+03  0.00000000000E+00 0.  1.
      99926    2    1    2    0    0  0.17784291484E+02  0.38251645626E+02 -0.21930349628E+03  0.51125119577E+03  0.45989595810E+03 0.  0.
         25    1    3    3    0    0 -0.81463045149E+02  0.81065490332E+02  0.65405346207E+02  0.18202529731E+03  0.12509000000E+03 0.  0.
         25    1    1    2    0    0 -0.17784291484E+02 -0.38251645626E+02  0.39085514840E+01  0.13206912694E+03  0.12509000000E+03 0.  0.
         25    1    3    3    0    0  0.99247336633E+02 -0.42813844706E+02 -0.28470884249E+03  0.32922589847E+03  0.12509000000E+03 0.  0.
<mgrwt>
<rscale>  2 0.60618978E+03</rscale>
<asrwt>0</asrwt>
<pdfrwt beam="1">  1       21 0.31465101E-01 0.60618978E+03</pdfrwt>
<pdfrwt beam="2">  1       21 0.63140828E-01 0.60618978E+03</pdfrwt>
<totfact> 0.19692681E+04</totfact>
</mgrwt>
</event>
<event>
 6    0  0.2120126E-005  0.9577990E+03  0.7546771E-02  0.9356081E-01
         21   -1    0    0  502  501  0.00000000000E+00  0.00000000000E+00  0.12371286419E+04  0.12371286419E+04  0.00000000000E+00 0. -1.
         21   -1    0    0  501  502 -0.00000000000E+00 -0.00000000000E+00 -0.18538470507E+03  0.18538470507E+03  0.00000000000E+00 0.  1.
      99926    2    1    2    0    0  0.16663283493E+03 -0.30536227071E+03  0.49473524447E+03  0.75399348228E+03  0.45025613948E+03 0.  0.
         25    1    1    2    0    0 -0.16663283493E+03  0.30536227071E+03  0.55700869240E+03  0.66851986474E+03  0.12509000000E+03 0.  0.
         25    1    3    3    0    0  0.11357530086E+03 -0.37662682167E+03  0.39261047512E+03  0.56968202099E+03  0.12509000000E+03 0.  0.
         25    1    3    3    0    0  0.53057534069E+02  0.71264550962E+02  0.10212476935E+03  0.18431146128E+03  0.12509000000E+03 0.  0.
<mgrwt>
<rscale>  2 0.95779899E+03</rscale>
<asrwt>0</asrwt>
<pdfrwt beam="1">  1       21 0.18193068E+00 0.95779899E+03</pdfrwt>
<pdfrwt beam="2">  1       21 0.27262457E-01 0.95779899E+03</pdfrwt>
<totfact> 0.16749832E+03</totfact>
</mgrwt>
</event>
<event>
 6    0  0.2120126E-005  0.5979948E+03  0.7546771E-02  0.9909575E-01
         21   -1    0    0  502  501  0.00000000000E+00  0.00000000000E+00  0.14701558592E+03  0.14701558592E+03  0.00000000000E+00 0.  1.
         21   -1    0    0  501  502 -0.00000000000E+00 -0.00000000000E+00 -0.60809491891E+03  0.60809491891E+03  0.00000000000E+00 0.  1.
      99926    2    1    2    0    0 -0.26382426266E+02  0.76446721942E+02 -0.38104635466E+03  0.58601609502E+03  0.43781092438E+03 0.  0.
         25    1    1    2    0    0  0.26382426266E+02 -0.76446721942E+02 -0.80032978326E+02  0.16909440982E+03  0.12509000000E+03 0.  0.
         25    1    3    3    0    0  0.15891280701E+03  0.86710761027E+02 -0.16594134219E+03  0.27560129437E+03  0.12509000000E+03 0.  0.
         25    1    3    3    0    0 -0.18529523328E+03 -0.10264039085E+02 -0.21510501247E+03  0.31041480065E+03  0.12509000000E+03 0.  0.
<mgrwt>
<rscale>  2 0.59799475E+03</rscale>
<asrwt>0</asrwt>
<pdfrwt beam="1">  1       21 0.21619939E-01 0.59799475E+03</pdfrwt>
<pdfrwt beam="2">  1       21 0.89425722E-01 0.59799475E+03</pdfrwt>
<totfact> 0.18538467E+04</totfact>
</mgrwt>
</event>
<event>
 6    0  0.2120126E-005  0.1271016E+04  0.7546771E-02  0.9052871E-01
         21   -1    0    0  502  501  0.00000000000E+00  0.00000000000E+00  0.12865912481E+04  0.12865912481E+04  0.00000000000E+00 0.  1.
         21   -1    0    0  501  502 -0.00000000000E+00 -0.00000000000E+00 -0.31390736728E+03  0.31390736728E+03  0.00000000000E+00 0. -1.
      99926    2    1    2    0    0  0.52366424500E+02 -0.48327883448E+03  0.86734507257E+03  0.10876200266E+04  0.44082782693E+03 0.  0.
         25    1    3    3    0    0  0.11845204159E+03 -0.48419892053E+03  0.70180711772E+03  0.86986218413E+03  0.12509000000E+03 0.  0.
         25    1    1    2    0    0 -0.52366424500E+02  0.48327883448E+03  0.10533880828E+03  0.51287858885E+03  0.12509000000E+03 0.  0.
         25    1    3    3    0    0 -0.66085617091E+02  0.92008605081E+00  0.16553795485E+03  0.21775784243E+03  0.12509000000E+03 0.  0.
<mgrwt>
<rscale>  2 0.12710161E+04</rscale>
<asrwt>0</asrwt>
<pdfrwt beam="1">  1       21 0.18920459E+00 0.12710161E+04</pdfrwt>
<pdfrwt beam="2">  1       21 0.46162849E-01 0.12710161E+04</pdfrwt>
<totfact> 0.47445244E+02</totfact>
</mgrwt>
</event>
