<event>
 7    0  0.4750554E-002  0.4754841E+03  0.7546771E-02  0.1020384E+00
         21   -1    0    0  502  501  0.00000000000E+00  0.00000000000E+00  0.95466350544E+03  0.95466350544E+03  0.00000000000E+00 0.  1.
         21   -1    0    0  501  502 -0.00000000000E+00 -0.00000000000E+00 -0.59205440606E+02  0.59205440606E+02  0.00000000000E+00 0.  1.
      99926    2    1    2    0    0  0.14210854715E-13  0.00000000000E+00  0.89545806483E+03  0.10138689460E+04  0.47548406270E+03 0.  0.
      99925    2    3    3    0    0 -0.91719979118E+02 -0.92480644570E+02  0.51816084417E+03  0.59557966217E+03  0.26317152081E+03 0.  0.
         25    1    4    4    0    0 -0.10629944162E+02 -0.46706810330E+02  0.28722009399E+03  0.31691862100E+03  0.12509000000E+03 0.  0.
         25    1    4    4    0    0 -0.81090034956E+02 -0.45773834240E+02  0.23094075019E+03  0.27866104117E+03  0.12509000000E+03 0.  0.
         25    1    3    3    0    0  0.91719979118E+02  0.92480644570E+02  0.37729722066E+03  0.41828928388E+03  0.12509000000E+03 0.  0.
<mgrwt>
<rscale>  2 0.47548406E+03</rscale>
<asrwt>0</asrwt>
<pdfrwt beam="1">  1       21 0.14039168E+00 0.47548406E+03</pdfrwt>
<pdfrwt beam="2">  1       21 0.87066831E-02 0.47548406E+03</pdfrwt>
<totfact> 0.33024410E+04</totfact>
</mgrwt>
</event>
<event>
 7    0  0.4750554E-002  0.4556774E+03  0.7546771E-02  0.1026042E+00
         21   -1    0    0  502  501  0.00000000000E+00  0.00000000000E+00  0.30982728726E+02  0.30982728726E+02  0.00000000000E+00 0.  1.
         21   -1    0    0  501  502 -0.00000000000E+00 -0.00000000000E+00 -0.16754647977E+04  0.16754647977E+04  0.00000000000E+00 0.  1.
      99926    2    1    2    0    0  0.00000000000E+00  0.00000000000E+00 -0.16444820690E+04  0.17064475265E+04  0.45567739167E+03 0.  0.
      99925    2    3    3    0    0  0.54805848254E+02  0.40718764080E+02 -0.69310993440E+03  0.74446096452E+03  0.26298107874E+03 0.  0.
         25    1    3    3    0    0 -0.54805848254E+02 -0.40718764080E+02 -0.95137213460E+03  0.96198656194E+03  0.12509000000E+03 0.  0.
         25    1    4    4    0    0  0.60128210325E+02  0.14854221916E+02 -0.29562295674E+03  0.32691969998E+03  0.12509000000E+03 0.  0.
         25    1    4    4    0    0 -0.53223620708E+01  0.25864542164E+02 -0.39748697767E+03  0.41754126454E+03  0.12509000000E+03 0.  0.
<mgrwt>
<rscale>  2 0.45567739E+03</rscale>
<asrwt>0</asrwt>
<pdfrwt beam="1">  1       21 0.45562843E-02 0.45567739E+03</pdfrwt>
<pdfrwt beam="2">  1       21 0.24639185E+00 0.45567739E+03</pdfrwt>
<totfact> 0.19027668E+04</totfact>
</mgrwt>
</event>
<event>
 7    0  0.4750554E-002  0.4429778E+03  0.7546771E-02  0.1029837E+00
         21   -1    0    0  502  501  0.00000000000E+00  0.00000000000E+00  0.18189624250E+03  0.18189624250E+03  0.00000000000E+00 0. -1.
         21   -1    0    0  501  502 -0.00000000000E+00 -0.00000000000E+00 -0.26969954287E+03  0.26969954287E+03  0.00000000000E+00 0. -1.
      99926    2    1    2    0    0 -0.14210854715E-13  0.00000000000E+00 -0.87803300362E+02  0.45159578537E+03  0.44297780284E+03 0.  0.
      99925    2    3    3    0    0 -0.75765619460E+02  0.38295102001E+02  0.88471447146E+00  0.27632452131E+03  0.26295914973E+03 0.  0.
         25    1    4    4    0    0 -0.59049310443E+02 -0.11695753005E+02  0.16015849993E+02  0.13974128686E+03  0.12509000000E+03 0.  0.
         25    1    3    3    0    0  0.75765619460E+02 -0.38295102001E+02 -0.88688014834E+02  0.17527126406E+03  0.12509000000E+03 0.  0.
         25    1    4    4    0    0 -0.16716309017E+02  0.49990855006E+02 -0.15131135522E+02  0.13658323445E+03  0.12509000000E+03 0.  0.
<mgrwt>
<rscale>  2 0.44297780E+03</rscale>
<asrwt>0</asrwt>
<pdfrwt beam="1">  1       21 0.26749448E-01 0.44297780E+03</pdfrwt>
<pdfrwt beam="2">  1       21 0.39661697E-01 0.44297780E+03</pdfrwt>
<totfact> 0.75804683E+04</totfact>
</mgrwt>
</event>
<event>
 7    0  0.4750554E-002  0.4583811E+03  0.7546771E-02  0.1025252E+00
         21   -1    0    0  502  501  0.00000000000E+00  0.00000000000E+00  0.24496357147E+03  0.24496357147E+03  0.00000000000E+00 0.  1.
         21   -1    0    0  501  502 -0.00000000000E+00 -0.00000000000E+00 -0.21443315786E+03  0.21443315786E+03  0.00000000000E+00 0.  1.
      99926    2    1    2    0    0  0.00000000000E+00  0.00000000000E+00  0.30530413614E+02  0.45939672933E+03  0.45838111737E+03 0.  0.
      99925    2    3    3    0    0  0.11217772627E+03 -0.18968190843E+02  0.42863602098E+02  0.28985838508E+03  0.26312917071E+03 0.  0.
         25    1    4    4    0    0  0.78029403167E+02  0.11776575005E+02 -0.57312983325E+01  0.14801226759E+03  0.12509000000E+03 0.  0.
         25    1    3    3    0    0 -0.11217772627E+03  0.18968190843E+02 -0.12333188484E+02  0.16953834425E+03  0.12509000000E+03 0.  0.
         25    1    4    4    0    0  0.34148323099E+02 -0.30744765848E+02  0.48594900430E+02  0.14184611748E+03  0.12509000000E+03 0.  0.
<mgrwt>
<rscale>  2 0.45838112E+03</rscale>
<asrwt>0</asrwt>
<pdfrwt beam="1">  1       21 0.36024055E-01 0.45838112E+03</pdfrwt>
<pdfrwt beam="2">  1       21 0.31534288E-01 0.45838112E+03</pdfrwt>
<totfact> 0.66415063E+04</totfact>
</mgrwt>
</event>
<event>
 7    0  0.4750554E-002  0.4509294E+03  0.7546771E-02  0.1027445E+00
         21   -1    0    0  502  501  0.00000000000E+00  0.00000000000E+00  0.62702267436E+02  0.62702267436E+02  0.00000000000E+00 0. -1.
         21   -1    0    0  501  502 -0.00000000000E+00 -0.00000000000E+00 -0.81072567483E+03  0.81072567483E+03  0.00000000000E+00 0. -1.
      99926    2    1    2    0    0  0.88817841970E-15 -0.14210854715E-13 -0.74802340740E+03  0.87342794227E+03  0.45092943164E+03 0.  0.
      99925    2    3    3    0    0  0.79156831723E+01 -0.97744856100E+02 -0.56617808356E+03  0.63190787098E+03  0.26293196871E+03 0.  0.
         25    1    3    3    0    0 -0.79156831723E+01  0.97744856100E+02 -0.18184532384E+03  0.24152007129E+03  0.12509000000E+03 0.  0.
         25    1    4    4    0    0 -0.35017945875E+01 -0.32255672800E+02 -0.35341679407E+03  0.37630257696E+03  0.12509000000E+03 0.  0.
         25    1    4    4    0    0  0.11417477760E+02 -0.65489183300E+02 -0.21276128949E+03  0.25560529402E+03  0.12509000000E+03 0.  0.
<mgrwt>
<rscale>  2 0.45092943E+03</rscale>
<asrwt>0</asrwt>
<pdfrwt beam="1">  1       21 0.92209216E-02 0.45092943E+03</pdfrwt>
<pdfrwt beam="2">  1       21 0.11922437E+00 0.45092943E+03</pdfrwt>
<totfact> 0.45846929E+04</totfact>
</mgrwt>
</event>
<event>
 7    0  0.4750554E-002  0.4658957E+03  0.7546771E-02  0.1023085E+00
         21   -1    0    0  502  501  0.00000000000E+00  0.00000000000E+00  0.23785233158E+03  0.23785233158E+03  0.00000000000E+00 0.  1.
         21   -1    0    0  501  502 -0.00000000000E+00 -0.00000000000E+00 -0.22814448354E+03  0.22814448354E+03  0.00000000000E+00 0.  1.
      99926    2    1    2    0    0  0.00000000000E+00  0.00000000000E+00  0.97078480468E+01  0.46599681512E+03  0.46589568509E+03 0.  0.
      99925    2    3    3    0    0  0.81332113243E+02  0.35896593720E+02 -0.79226236905E+02  0.28862641835E+03  0.26291621226E+03 0.  0.
         25    1    4    4    0    0  0.35523347331E+02  0.25192120993E+02 -0.80460762456E+02  0.15497739694E+03  0.12509000000E+03 0.  0.
         25    1    3    3    0    0 -0.81332113243E+02 -0.35896593720E+02  0.88934084951E+02  0.17737039677E+03  0.12509000000E+03 0.  0.
         25    1    4    4    0    0  0.45808765912E+02  0.10704472727E+02  0.12345255514E+01  0.13364902141E+03  0.12509000000E+03 0.  0.
<mgrwt>
<rscale>  2 0.46589569E+03</rscale>
<asrwt>0</asrwt>
<pdfrwt beam="1">  1       21 0.34978284E-01 0.46589569E+03</pdfrwt>
<pdfrwt beam="2">  1       21 0.33550659E-01 0.46589569E+03</pdfrwt>
<totfact> 0.62164863E+04</totfact>
</mgrwt>
</event>
<event>
 7    0  0.4750554E-002  0.4554850E+03  0.7546771E-02  0.1026099E+00
         21   -1    0    0  502  501  0.00000000000E+00  0.00000000000E+00  0.67101061866E+03  0.67101061866E+03  0.00000000000E+00 0.  1.
         21   -1    0    0  501  502 -0.00000000000E+00 -0.00000000000E+00 -0.77296305572E+02  0.77296305572E+02  0.00000000000E+00 0.  1.
      99926    2    1    2    0    0  0.00000000000E+00  0.00000000000E+00  0.59371431309E+03  0.74830692423E+03  0.45548498031E+03 0.  0.
      99925    2    3    3    0    0  0.40292117515E+02 -0.83210032223E+02  0.26452556699E+03  0.38421888151E+03  0.26287451212E+03 0.  0.
         25    1    4    4    0    0  0.27336117876E+02 -0.82960342679E+02  0.13566751444E+03  0.20416381749E+03  0.12509000000E+03 0.  0.
         25    1    3    3    0    0 -0.40292117515E+02  0.83210032223E+02  0.32918874609E+03  0.36408804272E+03  0.12509000000E+03 0.  0.
         25    1    4    4    0    0  0.12955999639E+02 -0.24968954449E+00  0.12885805256E+03  0.18005506402E+03  0.12509000000E+03 0.  0.
<mgrwt>
<rscale>  2 0.45548498E+03</rscale>
<asrwt>0</asrwt>
<pdfrwt beam="1">  1       21 0.98678029E-01 0.45548498E+03</pdfrwt>
<pdfrwt beam="2">  1       21 0.11367104E-01 0.45548498E+03</pdfrwt>
<totfact> 0.50165934E+04</totfact>
</mgrwt>
</event>
<event>
 7    0  0.4750554E-002  0.4489770E+03  0.7546771E-02  0.1028028E+00
         21   -1    0    0  502  501  0.00000000000E+00  0.00000000000E+00  0.81458044454E+03  0.81458044454E+03  0.00000000000E+00 0. -1.
         21   -1    0    0  501  502 -0.00000000000E+00 -0.00000000000E+00 -0.61866308764E+02  0.61866308764E+02  0.00000000000E+00 0. -1.
      99926    2    1    2    0    0  0.88817841970E-15  0.00000000000E+00  0.75271413578E+03  0.87644675331E+03  0.44897699405E+03 0.  0.
      99925    2    3    3    0    0  0.66608037564E+01  0.91139765083E+02  0.36616613064E+03  0.46001225490E+03  0.26302626550E+03 0.  0.
         25    1    4    4    0    0  0.22860358236E+02  0.79178886250E+02  0.17108177669E+03  0.22739475460E+03  0.12509000000E+03 0.  0.
         25    1    3    3    0    0 -0.66608037564E+01 -0.91139765083E+02  0.38654800514E+03  0.41643449841E+03  0.12509000000E+03 0.  0.
         25    1    4    4    0    0 -0.16199554479E+02  0.11960878833E+02  0.19508435395E+03  0.23261750030E+03  0.12509000000E+03 0.  0.
<mgrwt>
<rscale>  2 0.44897699E+03</rscale>
<asrwt>0</asrwt>
<pdfrwt beam="1">  1       21 0.11979124E+00 0.44897699E+03</pdfrwt>
<pdfrwt beam="2">  1       21 0.90979870E-02 0.44897699E+03</pdfrwt>
<totfact> 0.46419099E+04</totfact>
</mgrwt>
</event>
<event>
 7    0  0.4750554E-002  0.4759200E+03  0.7546771E-02  0.1020263E+00
         21   -1    0    0  502  501  0.00000000000E+00  0.00000000000E+00  0.54052793059E+03  0.54052793059E+03  0.00000000000E+00 0.  1.
         21   -1    0    0  501  502 -0.00000000000E+00 -0.00000000000E+00 -0.10475863931E+03  0.10475863931E+03  0.00000000000E+00 0.  1.
      99926    2    1    2    0    0  0.00000000000E+00  0.00000000000E+00  0.43576929128E+03  0.64528656989E+03  0.47592003746E+03 0.  0.
      99925    2    3    3    0    0  0.10053519794E+03 -0.67019212908E+02  0.34298283401E+03  0.44816798712E+03  0.26195117737E+03 0.  0.
         25    1    3    3    0    0 -0.10053519794E+03  0.67019212908E+02  0.92786457269E+02  0.19711858278E+03  0.12509000000E+03 0.  0.
         25    1    4    4    0    0  0.87126250049E+02 -0.23796802672E+02  0.16404519100E+03  0.22520125234E+03  0.12509000000E+03 0.  0.
         25    1    4    4    0    0  0.13408947889E+02 -0.43222410236E+02  0.17893764301E+03  0.22296673477E+03  0.12509000000E+03 0.  0.
<mgrwt>
<rscale>  2 0.47592004E+03</rscale>
<asrwt>0</asrwt>
<pdfrwt beam="1">  1       21 0.79489400E-01 0.47592004E+03</pdfrwt>
<pdfrwt beam="2">  1       21 0.15405683E-01 0.47592004E+03</pdfrwt>
<totfact> 0.47612884E+04</totfact>
</mgrwt>
</event>
<event>
 7    0  0.4750554E-002  0.4569629E+03  0.7546771E-02  0.1025666E+00
         21   -1    0    0  502  501  0.00000000000E+00  0.00000000000E+00  0.30743649961E+03  0.30743649961E+03  0.00000000000E+00 0. -1.
         21   -1    0    0  501  502 -0.00000000000E+00 -0.00000000000E+00 -0.16980344371E+03  0.16980344371E+03  0.00000000000E+00 0. -1.
      99926    2    1    2    0    0  0.00000000000E+00  0.71054273576E-14  0.13763305589E+03  0.47723994332E+03  0.45696291472E+03 0.  0.
      99925    2    3    3    0    0  0.72443004147E+02  0.53883010591E+02  0.16096126908E+03  0.32121724846E+03  0.26290801221E+03 0.  0.
         25    1    3    3    0    0 -0.72443004147E+02 -0.53883010591E+02 -0.23328213185E+02  0.15602269486E+03  0.12509000000E+03 0.  0.
         25    1    4    4    0    0  0.67438659202E+02  0.56061512992E+02  0.88201762445E+02  0.17640273522E+03  0.12509000000E+03 0.  0.
         25    1    4    4    0    0  0.50043449452E+01 -0.21785024006E+01  0.72759506631E+02  0.14481451324E+03  0.12509000000E+03 0.  0.
<mgrwt>
<rscale>  2 0.45696291E+03</rscale>
<asrwt>0</asrwt>
<pdfrwt beam="1">  1       21 0.45211250E-01 0.45696291E+03</pdfrwt>
<pdfrwt beam="2">  1       21 0.24971095E-01 0.45696291E+03</pdfrwt>
<totfact> 0.65869444E+04</totfact>
</mgrwt>
</event>
<event>
 7    0  0.4750554E-002  0.4545207E+03  0.7546771E-02  0.1026382E+00
         21   -1    0    0  502  501  0.00000000000E+00  0.00000000000E+00  0.55509644808E+02  0.55509644808E+02  0.00000000000E+00 0. -1.
         21   -1    0    0  501  502 -0.00000000000E+00 -0.00000000000E+00 -0.93041956006E+03  0.93041956006E+03  0.00000000000E+00 0. -1.
      99926    2    1    2    0    0  0.71054273576E-14 -0.14210854715E-13 -0.87490991525E+03  0.98592920487E+03  0.45452066752E+03 0.  0.
      99925    2    3    3    0    0  0.46332685455E+02 -0.89821270120E+02 -0.44269581358E+03  0.52476641789E+03  0.26303161726E+03 0.  0.
         25    1    4    4    0    0  0.38203330064E+02 -0.79709282396E+02 -0.27971239818E+03  0.31890374398E+03  0.12509000000E+03 0.  0.
         25    1    4    4    0    0  0.81293553901E+01 -0.10111987724E+02 -0.16298341539E+03  0.20586267391E+03  0.12509000000E+03 0.  0.
         25    1    3    3    0    0 -0.46332685455E+02  0.89821270120E+02 -0.43221410168E+03  0.46116278698E+03  0.12509000000E+03 0.  0.
<mgrwt>
<rscale>  2 0.45452067E+03</rscale>
<asrwt>0</asrwt>
<pdfrwt beam="1">  1       21 0.81631832E-02 0.45452067E+03</pdfrwt>
<pdfrwt beam="2">  1       21 0.13682640E+00 0.45452067E+03</pdfrwt>
<totfact> 0.39867515E+04</totfact>
</mgrwt>
</event>
<event>
 7    0  0.4750554E-002  0.4541895E+03  0.7546771E-02  0.1026480E+00
         21   -1    0    0  502  501  0.00000000000E+00  0.00000000000E+00  0.53232094736E+02  0.53232094736E+02  0.00000000000E+00 0.  1.
         21   -1    0    0  501  502 -0.00000000000E+00 -0.00000000000E+00 -0.96881464122E+03  0.96881464122E+03  0.00000000000E+00 0.  1.
      99926    2    1    2    0    0  0.00000000000E+00 -0.88817841970E-15 -0.91558254649E+03  0.10220467360E+04  0.45418953208E+03 0.  0.
      99925    2    3    3    0    0 -0.43249864540E+02  0.56124966785E+01 -0.81002440694E+03  0.85265936977E+03  0.26265264153E+03 0.  0.
         25    1    4    4    0    0 -0.14235237482E+02 -0.91032953567E+01 -0.52062596890E+03  0.53570926776E+03  0.12509000000E+03 0.  0.
         25    1    4    4    0    0 -0.29014627058E+02  0.14715792035E+02 -0.28939843805E+03  0.31695010201E+03  0.12509000000E+03 0.  0.
         25    1    3    3    0    0  0.43249864540E+02 -0.56124966785E+01 -0.10555813954E+03  0.16938736619E+03  0.12509000000E+03 0.  0.
<mgrwt>
<rscale>  2 0.45418953E+03</rscale>
<asrwt>0</asrwt>
<pdfrwt beam="1">  1       21 0.78282487E-02 0.45418953E+03</pdfrwt>
<pdfrwt beam="2">  1       21 0.14247275E+00 0.45418953E+03</pdfrwt>
<totfact> 0.38563524E+04</totfact>
</mgrwt>
</event>
<event>
 7    0  0.4750554E-002  0.4518798E+03  0.7546771E-02  0.1027163E+00
         21   -1    0    0  502  501  0.00000000000E+00  0.00000000000E+00  0.82839041484E+02  0.82839041484E+02  0.00000000000E+00 0.  1.
         21   -1    0    0  501  502 -0.00000000000E+00 -0.00000000000E+00 -0.61624133293E+03  0.61624133293E+03  0.00000000000E+00 0.  1.
      99926    2    1    2    0    0  0.00000000000E+00  0.00000000000E+00 -0.53340229144E+03  0.69908037441E+03  0.45187981297E+03 0.  0.
      99925    2    3    3    0    0 -0.91900823676E+02  0.21834590989E+02 -0.42471929141E+03  0.50833967778E+03  0.26286924650E+03 0.  0.
         25    1    4    4    0    0 -0.59635918620E+02  0.12933393737E+02 -0.14995776939E+03  0.20459363667E+03  0.12509000000E+03 0.  0.
         25    1    3    3    0    0  0.91900823676E+02 -0.21834590989E+02 -0.10868300004E+03  0.19074069664E+03  0.12509000000E+03 0.  0.
         25    1    4    4    0    0 -0.32264905057E+02  0.89011972512E+01 -0.27476152202E+03  0.30374604111E+03  0.12509000000E+03 0.  0.
<mgrwt>
<rscale>  2 0.45187981E+03</rscale>
<asrwt>0</asrwt>
<pdfrwt beam="1">  1       21 0.12182212E-01 0.45187981E+03</pdfrwt>
<pdfrwt beam="2">  1       21 0.90623725E-01 0.45187981E+03</pdfrwt>
<totfact> 0.54273408E+04</totfact>
</mgrwt>
</event>
<event>
 7    0  0.4750554E-002  0.4389037E+03  0.7546771E-02  0.1031084E+00
         21   -1    0    0  502  501  0.00000000000E+00  0.00000000000E+00  0.16516276828E+03  0.16516276828E+03  0.00000000000E+00 0.  1.
         21   -1    0    0  501  502 -0.00000000000E+00 -0.00000000000E+00 -0.29158574406E+03  0.29158574406E+03  0.00000000000E+00 0.  1.
      99926    2    1    2    0    0  0.00000000000E+00  0.00000000000E+00 -0.12642297579E+03  0.45674851234E+03  0.43890367362E+03 0.  0.
      99925    2    3    3    0    0 -0.32358167481E+02 -0.91434108919E+02 -0.72875296655E+02  0.28964941205E+03  0.26301848939E+03 0.  0.
         25    1    3    3    0    0  0.32358167481E+02  0.91434108919E+02 -0.53547679133E+02  0.16709910029E+03  0.12509000000E+03 0.  0.
         25    1    4    4    0    0 -0.37041637106E+02 -0.40547260275E+02 -0.72204137206E+02  0.15452219493E+03  0.12509000000E+03 0.  0.
         25    1    4    4    0    0  0.46834696245E+01 -0.50886848644E+02 -0.67115944855E+00  0.13512721712E+03  0.12509000000E+03 0.  0.
<mgrwt>
<rscale>  2 0.43890367E+03</rscale>
<asrwt>0</asrwt>
<pdfrwt beam="1">  1       21 0.24288643E-01 0.43890367E+03</pdfrwt>
<pdfrwt beam="2">  1       21 0.42880256E-01 0.43890367E+03</pdfrwt>
<totfact> 0.77918214E+04</totfact>
</mgrwt>
</event>
<event>
 7    0  0.4750554E-002  0.4487959E+03  0.7546771E-02  0.1028082E+00
         21   -1    0    0  502  501  0.00000000000E+00  0.00000000000E+00  0.12794941785E+03  0.12794941785E+03  0.00000000000E+00 0. -1.
         21   -1    0    0  501  502 -0.00000000000E+00 -0.00000000000E+00 -0.39354956330E+03  0.39354956330E+03  0.00000000000E+00 0. -1.
      99926    2    1    2    0    0 -0.17763568394E-14  0.00000000000E+00 -0.26560014545E+03  0.52149898115E+03  0.44879588911E+03 0.  0.
      99925    2    3    3    0    0 -0.15051825354E+02 -0.10115217977E+03 -0.20560126986E+03  0.34914558232E+03  0.26300652951E+03 0.  0.
         25    1    4    4    0    0  0.85942076737E+01 -0.29094686070E+02 -0.13564228910E+03  0.18699384978E+03  0.12509000000E+03 0.  0.
         25    1    3    3    0    0  0.15051825354E+02  0.10115217977E+03 -0.59998875594E+02  0.17235339884E+03  0.12509000000E+03 0.  0.
         25    1    4    4    0    0 -0.23646033027E+02 -0.72057493698E+02 -0.69958980753E+02  0.16215173253E+03  0.12509000000E+03 0.  0.
<mgrwt>
<rscale>  2 0.44879589E+03</rscale>
<asrwt>0</asrwt>
<pdfrwt beam="1">  1       21 0.18816091E-01 0.44879589E+03</pdfrwt>
<pdfrwt beam="2">  1       21 0.57874934E-01 0.44879589E+03</pdfrwt>
<totfact> 0.67021707E+04</totfact>
</mgrwt>
</event>
<event>
 7    0  0.4750554E-002  0.4513928E+03  0.7546771E-02  0.1027307E+00
         21   -1    0    0  502  501  0.00000000000E+00  0.00000000000E+00  0.21284114761E+03  0.21284114761E+03  0.00000000000E+00 0. -1.
         21   -1    0    0  501  502 -0.00000000000E+00 -0.00000000000E+00 -0.23932812554E+03  0.23932812554E+03  0.00000000000E+00 0. -1.
      99926    2    1    2    0    0  0.00000000000E+00  0.71054273576E-14 -0.26486977927E+02  0.45216927315E+03  0.45139283511E+03 0.  0.
      99925    2    3    3    0    0 -0.17334120509E+02 -0.53204943039E+02 -0.11120072765E+03  0.29106320502E+03  0.26309874532E+03 0.  0.
         25    1    4    4    0    0 -0.35396047771E+02  0.42919857897E+01 -0.56862263312E+02  0.14195818549E+03  0.12509000000E+03 0.  0.
         25    1    3    3    0    0  0.17334120509E+02  0.53204943039E+02  0.84713749722E+02  0.16110606813E+03  0.12509000000E+03 0.  0.
         25    1    4    4    0    0  0.18061927262E+02 -0.57496928829E+02 -0.54338464337E+02  0.14910501953E+03  0.12509000000E+03 0.  0.
<mgrwt>
<rscale>  2 0.45139284E+03</rscale>
<asrwt>0</asrwt>
<pdfrwt beam="1">  1       21 0.31300169E-01 0.45139284E+03</pdfrwt>
<pdfrwt beam="2">  1       21 0.35195313E-01 0.45139284E+03</pdfrwt>
<totfact> 0.70768662E+04</totfact>
</mgrwt>
</event>
<event>
 7    0  0.4750554E-002  0.4498464E+03  0.7546771E-02  0.1027768E+00
         21   -1    0    0  502  501  0.00000000000E+00  0.00000000000E+00  0.76822840873E+03  0.76822840873E+03  0.00000000000E+00 0. -1.
         21   -1    0    0  501  502 -0.00000000000E+00 -0.00000000000E+00 -0.65853404564E+02  0.65853404564E+02  0.00000000000E+00 0. -1.
      99926    2    1    2    0    0  0.00000000000E+00  0.00000000000E+00  0.70237500417E+03  0.83408181330E+03  0.44984644579E+03 0.  0.
      99925    2    3    3    0    0 -0.70827167508E+02  0.79205242652E+02  0.48474858807E+03  0.56150389195E+03  0.26270795367E+03 0.  0.
         25    1    3    3    0    0  0.70827167508E+02 -0.79205242652E+02  0.21762641610E+03  0.27257792134E+03  0.12509000000E+03 0.  0.
         25    1    4    4    0    0 -0.25778831471E+02  0.38913614676E+02  0.31517173533E+03  0.34228577010E+03  0.12509000000E+03 0.  0.
         25    1    4    4    0    0 -0.45048336037E+02  0.40291627976E+02  0.16957685274E+03  0.21921812185E+03  0.12509000000E+03 0.  0.
<mgrwt>
<rscale>  2 0.44984645E+03</rscale>
<asrwt>0</asrwt>
<pdfrwt beam="1">  1       21 0.11297476E+00 0.44984645E+03</pdfrwt>
<pdfrwt beam="2">  1       21 0.96843247E-02 0.44984645E+03</pdfrwt>
<totfact> 0.48074613E+04</totfact>
</mgrwt>
</event>
<event>
 6    0  0.4750554E-002  0.4506581E+03  0.7546771E-02  0.1027526E+00
         21   -1    0    0  502  501  0.00000000000E+00  0.00000000000E+00  0.17708521929E+03  0.17708521929E+03  0.00000000000E+00 0.  1.
         21   -1    0    0  501  502 -0.00000000000E+00 -0.00000000000E+00 -0.28671608711E+03  0.28671608711E+03  0.00000000000E+00 0.  1.
      99926    2    1    2    0    0 -0.35527136788E-14  0.00000000000E+00 -0.10963086782E+03  0.46380130640E+03  0.45065810172E+03 0.  0.
         25    1    3    3    0    0  0.49220028370E+02 -0.27098845546E+02  0.23242817250E+02  0.13908520869E+03  0.12509000000E+03 0.  0.
         25    1    3    3    0    0 -0.31872106207E+02 -0.43602964288E+02 -0.13152027926E+02  0.13688511090E+03  0.12509000000E+03 0.  0.
         25    1    3    3    0    0 -0.17347922163E+02  0.70701809834E+02 -0.11972165714E+03  0.18783098681E+03  0.12509000000E+03 0.  0.
<mgrwt>
<rscale>  2 0.45065810E+03</rscale>
<asrwt>0</asrwt>
<pdfrwt beam="1">  1       21 0.26041944E-01 0.45065810E+03</pdfrwt>
<pdfrwt beam="2">  1       21 0.42164130E-01 0.45065810E+03</pdfrwt>
<totfact> 0.70289514E+04</totfact>
</mgrwt>
</event>
<event>
 7    0  0.4750554E-002  0.4601484E+03  0.7546771E-02  0.1024738E+00
         21   -1    0    0  502  501  0.00000000000E+00  0.00000000000E+00  0.19800532114E+03  0.19800532114E+03  0.00000000000E+00 0. -1.
         21   -1    0    0  501  502 -0.00000000000E+00 -0.00000000000E+00 -0.26733691212E+03  0.26733691212E+03  0.00000000000E+00 0. -1.
      99926    2    1    2    0    0  0.00000000000E+00  0.00000000000E+00 -0.69331590977E+02  0.46534223326E+03  0.46014837232E+03 0.  0.
      99925    2    3    3    0    0  0.47220819196E+02  0.78184784032E+02 -0.11885593120E+03  0.30272970424E+03  0.26301307045E+03 0.  0.
         25    1    4    4    0    0  0.55607310825E+01  0.41459436809E+02 -0.97920848380E+02  0.16427357450E+03  0.12509000000E+03 0.  0.
         25    1    3    3    0    0 -0.47220819196E+02 -0.78184784032E+02  0.49524340223E+02  0.16261252902E+03  0.12509000000E+03 0.  0.
         25    1    4    4    0    0  0.41660088113E+02  0.36725347223E+02 -0.20935082820E+02  0.13845612974E+03  0.12509000000E+03 0.  0.
<mgrwt>
<rscale>  2 0.46014837E+03</rscale>
<asrwt>0</asrwt>
<pdfrwt beam="1">  1       21 0.29118430E-01 0.46014837E+03</pdfrwt>
<pdfrwt beam="2">  1       21 0.39314252E-01 0.46014837E+03</pdfrwt>
<totfact> 0.65079706E+04</totfact>
</mgrwt>
</event>
<event>
 7    0  0.4750554E-002  0.4520622E+03  0.7546771E-02  0.1027109E+00
         21   -1    0    0  502  501  0.00000000000E+00  0.00000000000E+00  0.40530159942E+03  0.40530159942E+03  0.00000000000E+00 0.  1.
         21   -1    0    0  501  502 -0.00000000000E+00 -0.00000000000E+00 -0.12605442942E+03  0.12605442942E+03  0.00000000000E+00 0.  1.
      99926    2    1    2    0    0  0.71054273576E-14  0.00000000000E+00  0.27924717000E+03  0.53135602884E+03  0.45206221633E+03 0.  0.
      99925    2    3    3    0    0 -0.63710569954E+02  0.81572139269E+02  0.13161117509E+03  0.31190912018E+03  0.26315916707E+03 0.  0.
         25    1    3    3    0    0  0.63710569954E+02 -0.81572139269E+02  0.14763599491E+03  0.21944690866E+03  0.12509000000E+03 0.  0.
         25    1    4    4    0    0  0.17719477468E+01  0.62853597687E+02  0.72992883019E+02  0.15788978312E+03  0.12509000000E+03 0.  0.
         25    1    4    4    0    0 -0.65482517701E+02  0.18718541582E+02  0.58618292076E+02  0.15401933706E+03  0.12509000000E+03 0.  0.
<mgrwt>
<rscale>  2 0.45206222E+03</rscale>
<asrwt>0</asrwt>
<pdfrwt beam="1">  1       21 0.59603176E-01 0.45206222E+03</pdfrwt>
<pdfrwt beam="2">  1       21 0.18537416E-01 0.45206222E+03</pdfrwt>
<totfact> 0.64604877E+04</totfact>
</mgrwt>
</event>
<event>
 7    0  0.4750554E-002  0.4557167E+03  0.7546771E-02  0.1026031E+00
         21   -1    0    0  502  501  0.00000000000E+00  0.00000000000E+00  0.20771538517E+03  0.20771538517E+03  0.00000000000E+00 0. -1.
         21   -1    0    0  501  502 -0.00000000000E+00 -0.00000000000E+00 -0.24995468184E+03  0.24995468184E+03  0.00000000000E+00 0. -1.
      99926    2    1    2    0    0  0.00000000000E+00  0.35527136788E-14 -0.42239296676E+02  0.45767006701E+03  0.45571672347E+03 0.  0.
      99925    2    3    3    0    0  0.71790942996E+01 -0.21695241667E+02 -0.13883612490E+03  0.29798074918E+03  0.26266867800E+03 0.  0.
         25    1    3    3    0    0 -0.71790942996E+01  0.21695241667E+02  0.96596828221E+02  0.15968931783E+03  0.12509000000E+03 0.  0.
         25    1    4    4    0    0  0.34035956375E+01 -0.43185845276E+01 -0.11375379279E+03  0.16916757405E+03  0.12509000000E+03 0.  0.
         25    1    4    4    0    0  0.37754986621E+01 -0.17376657139E+02 -0.25082332102E+02  0.12881317513E+03  0.12509000000E+03 0.  0.
<mgrwt>
<rscale>  2 0.45571672E+03</rscale>
<asrwt>0</asrwt>
<pdfrwt beam="1">  1       21 0.30546380E-01 0.45571672E+03</pdfrwt>
<pdfrwt beam="2">  1       21 0.36758041E-01 0.45571672E+03</pdfrwt>
<totfact> 0.67961173E+04</totfact>
</mgrwt>
</event>
<event>
 7    0  0.4750554E-002  0.4540675E+03  0.7546771E-02  0.1026516E+00
         21   -1    0    0  502  501  0.00000000000E+00  0.00000000000E+00  0.68716244137E+03  0.68716244137E+03  0.00000000000E+00 0.  1.
         21   -1    0    0  501  502 -0.00000000000E+00 -0.00000000000E+00 -0.75010375631E+02  0.75010375631E+02  0.00000000000E+00 0.  1.
      99926    2    1    2    0    0 -0.53290705182E-14  0.35527136788E-14  0.61215206574E+03  0.76217281700E+03  0.45406745247E+03 0.  0.
      99925    2    3    3    0    0 -0.98617041462E+01  0.20306433302E+02  0.57018329489E+03  0.62831285186E+03  0.26297993382E+03 0.  0.
         25    1    4    4    0    0 -0.40296907118E+02 -0.25295701304E+00  0.32628522385E+03  0.35175767243E+03  0.12509000000E+03 0.  0.
         25    1    4    4    0    0  0.30435202972E+02  0.20559390315E+02  0.24389807105E+03  0.27655517943E+03  0.12509000000E+03 0.  0.
         25    1    3    3    0    0  0.98617041462E+01 -0.20306433302E+02  0.41968770846E+02  0.13385996514E+03  0.12509000000E+03 0.  0.
<mgrwt>
<rscale>  2 0.45406745E+03</rscale>
<asrwt>0</asrwt>
<pdfrwt beam="1">  1       21 0.10105330E+00 0.45406745E+03</pdfrwt>
<pdfrwt beam="2">  1       21 0.11030938E-01 0.45406745E+03</pdfrwt>
<totfact> 0.50013729E+04</totfact>
</mgrwt>
</event>
<event>
 7    0  0.4750554E-002  0.4492308E+03  0.7546771E-02  0.1027952E+00
         21   -1    0    0  502  501  0.00000000000E+00  0.00000000000E+00  0.10103544327E+04  0.10103544327E+04  0.00000000000E+00 0.  1.
         21   -1    0    0  501  502 -0.00000000000E+00 -0.00000000000E+00 -0.49935026989E+02  0.49935026989E+02  0.00000000000E+00 0.  1.
      99926    2    1    2    0    0 -0.14210854715E-13  0.00000000000E+00  0.96041940575E+03  0.10602894597E+04  0.44923079087E+03 0.  0.
      99925    2    3    3    0    0 -0.88317643034E+02  0.61407213596E+02  0.60023017245E+03  0.66411444305E+03  0.26306060442E+03 0.  0.
         25    1    4    4    0    0 -0.43053772738E+02  0.28401255964E+02  0.20350904553E+03  0.24438432519E+03  0.12509000000E+03 0.  0.
         25    1    4    4    0    0 -0.45263870297E+02  0.33005957631E+02  0.39672112693E+03  0.41973011787E+03  0.12509000000E+03 0.  0.
         25    1    3    3    0    0  0.88317643034E+02 -0.61407213596E+02  0.36018923330E+03  0.39617501668E+03  0.12509000000E+03 0.  0.
<mgrwt>
<rscale>  2 0.44923079E+03</rscale>
<asrwt>0</asrwt>
<pdfrwt beam="1">  1       21 0.14858152E+00 0.44923079E+03</pdfrwt>
<pdfrwt beam="2">  1       21 0.73433870E-02 0.44923079E+03</pdfrwt>
<totfact> 0.38611496E+04</totfact>
</mgrwt>
</event>
<event>
 7    0  0.4750554E-002  0.4520776E+03  0.7546771E-02  0.1027104E+00
         21   -1    0    0  502  501  0.00000000000E+00  0.00000000000E+00  0.46262214662E+03  0.46262214662E+03  0.00000000000E+00 0. -1.
         21   -1    0    0  501  502 -0.00000000000E+00 -0.00000000000E+00 -0.11044335610E+03  0.11044335610E+03  0.00000000000E+00 0. -1.
      99926    2    1    2    0    0  0.00000000000E+00 -0.35527136788E-14  0.35217879052E+03  0.57306550273E+03  0.45207761494E+03 0.  0.
      99925    2    3    3    0    0  0.34872356816E+02 -0.31601185514E+02  0.95565441575E+02  0.28373414399E+03  0.26297831592E+03 0.  0.
         25    1    3    3    0    0 -0.34872356816E+02  0.31601185514E+02  0.25661334894E+03  0.28933135874E+03  0.12509000000E+03 0.  0.
         25    1    4    4    0    0  0.57233045928E+01 -0.12598791206E+02  0.59933884429E+01  0.12599569263E+03  0.12509000000E+03 0.  0.
         25    1    4    4    0    0  0.29149052223E+02 -0.19002394308E+02  0.89572053132E+02  0.15773845136E+03  0.12509000000E+03 0.  0.
<mgrwt>
<rscale>  2 0.45207761E+03</rscale>
<asrwt>0</asrwt>
<pdfrwt beam="1">  1       21 0.68032668E-01 0.45207761E+03</pdfrwt>
<pdfrwt beam="2">  1       21 0.16241670E-01 0.45207761E+03</pdfrwt>
<totfact> 0.61782890E+04</totfact>
</mgrwt>
</event>
<event>
 7    0  0.4750554E-002  0.4630406E+03  0.7546771E-02  0.1023903E+00
         21   -1    0    0  502  501  0.00000000000E+00  0.00000000000E+00  0.10429070912E+03  0.10429070912E+03  0.00000000000E+00 0.  1.
         21   -1    0    0  501  502 -0.00000000000E+00 -0.00000000000E+00 -0.51396381082E+03  0.51396381082E+03  0.00000000000E+00 0.  1.
      99926    2    1    2    0    0  0.00000000000E+00  0.00000000000E+00 -0.40967310170E+03  0.61825451994E+03  0.46304060423E+03 0.  0.
      99925    2    3    3    0    0  0.11640964039E+03 -0.17907680524E+02 -0.29021118574E+03  0.40899261021E+03  0.26302192586E+03 0.  0.
         25    1    3    3    0    0 -0.11640964039E+03  0.17907680524E+02 -0.11946191596E+03  0.20926190973E+03  0.12509000000E+03 0.  0.
         25    1    4    4    0    0  0.16255893485E+02 -0.81799237546E+01 -0.14682481842E+03  0.19374261439E+03  0.12509000000E+03 0.  0.
         25    1    4    4    0    0  0.10015374690E+03 -0.97277567691E+01 -0.14338636732E+03  0.21524999582E+03  0.12509000000E+03 0.  0.
<mgrwt>
<rscale>  2 0.46304060E+03</rscale>
<asrwt>0</asrwt>
<pdfrwt beam="1">  1       21 0.15336869E-01 0.46304060E+03</pdfrwt>
<pdfrwt beam="2">  1       21 0.75582913E-01 0.46304060E+03</pdfrwt>
<totfact> 0.54053481E+04</totfact>
</mgrwt>
</event>
<event>
 7    0  0.4750554E-002  0.4119074E+03  0.7546771E-02  0.1039733E+00
         21   -1    0    0  502  501  0.00000000000E+00  0.00000000000E+00  0.20460267301E+03  0.20460267301E+03  0.00000000000E+00 0.  1.
         21   -1    0    0  501  502 -0.00000000000E+00 -0.00000000000E+00 -0.20731367768E+03  0.20731367768E+03  0.00000000000E+00 0.  1.
      99926    2    1    2    0    0  0.00000000000E+00  0.00000000000E+00 -0.27110046710E+01  0.41191635068E+03  0.41190742942E+03 0.  0.
      99925    2    3    3    0    0  0.51135833384E+02 -0.38231642816E+02 -0.13378722057E+02  0.27106948255E+03  0.26310291180E+03 0.  0.
         25    1    3    3    0    0 -0.51135833384E+02  0.38231642816E+02  0.10667717386E+02  0.14084686813E+03  0.12509000000E+03 0.  0.
         25    1    4    4    0    0  0.57468480832E+02 -0.40648708568E+02  0.89806435591E+01  0.14381621555E+03  0.12509000000E+03 0.  0.
         25    1    4    4    0    0 -0.63326474484E+01  0.24170657520E+01 -0.22359365616E+02  0.12725326700E+03  0.12509000000E+03 0.  0.
<mgrwt>
<rscale>  2 0.41190743E+03</rscale>
<asrwt>0</asrwt>
<pdfrwt beam="1">  1       21 0.30088628E-01 0.41190743E+03</pdfrwt>
<pdfrwt beam="2">  1       21 0.30487305E-01 0.41190743E+03</pdfrwt>
<totfact> 0.10291347E+05</totfact>
</mgrwt>
</event>
<event>
 7    0  0.4750554E-002  0.4609560E+03  0.7546771E-02  0.1024504E+00
         21   -1    0    0  502  501  0.00000000000E+00  0.00000000000E+00  0.21264888868E+03  0.21264888868E+03  0.00000000000E+00 0.  1.
         21   -1    0    0  501  502 -0.00000000000E+00 -0.00000000000E+00 -0.24980194310E+03  0.24980194310E+03  0.00000000000E+00 0.  1.
      99926    2    1    2    0    0  0.00000000000E+00  0.00000000000E+00 -0.37153054411E+02  0.46245083178E+03  0.46095598745E+03 0.  0.
      99925    2    3    3    0    0 -0.40435000842E+02  0.10305833567E+03 -0.66085127302E+02  0.29292035432E+03  0.26301916295E+03 0.  0.
         25    1    4    4    0    0 -0.40540077733E+02  0.88539557767E+02 -0.48436137388E+02  0.16575982232E+03  0.12509000000E+03 0.  0.
         25    1    3    3    0    0  0.40435000842E+02 -0.10305833567E+03  0.28932072891E+02  0.16953047746E+03  0.12509000000E+03 0.  0.
         25    1    4    4    0    0  0.10507689044E+00  0.14518777907E+02 -0.17648989915E+02  0.12716053200E+03  0.12509000000E+03 0.  0.
<mgrwt>
<rscale>  2 0.46095599E+03</rscale>
<asrwt>0</asrwt>
<pdfrwt beam="1">  1       21 0.31271896E-01 0.46095599E+03</pdfrwt>
<pdfrwt beam="2">  1       21 0.36735580E-01 0.46095599E+03</pdfrwt>
<totfact> 0.64865668E+04</totfact>
</mgrwt>
</event>
<event>
 7    0  0.4750554E-002  0.4501565E+03  0.7546771E-02  0.1027675E+00
         21   -1    0    0  502  501  0.00000000000E+00  0.00000000000E+00  0.66190364086E+02  0.66190364086E+02  0.00000000000E+00 0.  1.
         21   -1    0    0  501  502 -0.00000000000E+00 -0.00000000000E+00 -0.76537143321E+03  0.76537143321E+03  0.00000000000E+00 0.  1.
      99926    2    1    2    0    0 -0.33306690739E-14  0.00000000000E+00 -0.69918106912E+03  0.83156179730E+03  0.45015647868E+03 0.  0.
      99925    2    3    3    0    0  0.14667959957E+01 -0.14878538407E+02 -0.24022067691E+03  0.35562517114E+03  0.26180100522E+03 0.  0.
         25    1    4    4    0    0  0.32224491375E+02  0.10810806247E+02 -0.10198652013E+03  0.16493650222E+03  0.12509000000E+03 0.  0.
         25    1    4    4    0    0 -0.30757695380E+02 -0.25689344654E+02 -0.13823415677E+03  0.19068866891E+03  0.12509000000E+03 0.  0.
         25    1    3    3    0    0 -0.14667959957E+01  0.14878538407E+02 -0.45896039222E+03  0.47593662616E+03  0.12509000000E+03 0.  0.
<mgrwt>
<rscale>  2 0.45015648E+03</rscale>
<asrwt>0</asrwt>
<pdfrwt beam="1">  1       21 0.97338772E-02 0.45015648E+03</pdfrwt>
<pdfrwt beam="2">  1       21 0.11255462E+00 0.45015648E+03</pdfrwt>
<totfact> 0.48076923E+04</totfact>
</mgrwt>
</event>
<event>
 7    0  0.4750554E-002  0.4545682E+03  0.7546771E-02  0.1026368E+00
         21   -1    0    0  502  501  0.00000000000E+00  0.00000000000E+00  0.22463713756E+03  0.22463713756E+03  0.00000000000E+00 0. -1.
         21   -1    0    0  501  502 -0.00000000000E+00 -0.00000000000E+00 -0.22996221446E+03  0.22996221446E+03  0.00000000000E+00 0. -1.
      99926    2    1    2    0    0  0.00000000000E+00  0.00000000000E+00 -0.53250768943E+01  0.45459935202E+03  0.45456816256E+03 0.  0.
      99925    2    3    3    0    0  0.86953130409E+02  0.66089477950E+02  0.24550509944E+02  0.28587257652E+03  0.26304322170E+03 0.  0.
         25    1    4    4    0    0  0.19823381674E+02  0.19910334575E+02  0.43507056142E+02  0.13538744372E+03  0.12509000000E+03 0.  0.
         25    1    3    3    0    0 -0.86953130409E+02 -0.66089477950E+02 -0.29875586838E+02  0.16872677551E+03  0.12509000000E+03 0.  0.
         25    1    4    4    0    0  0.67129748735E+02  0.46179143374E+02 -0.18956546199E+02  0.15048513279E+03  0.12509000000E+03 0.  0.
<mgrwt>
<rscale>  2 0.45456816E+03</rscale>
<asrwt>0</asrwt>
<pdfrwt beam="1">  1       21 0.33034873E-01 0.45456816E+03</pdfrwt>
<pdfrwt beam="2">  1       21 0.33817973E-01 0.45456816E+03</pdfrwt>
<totfact> 0.68811946E+04</totfact>
</mgrwt>
</event>
<event>
 7    0  0.4750554E-002  0.4673929E+03  0.7546771E-02  0.1022659E+00
         21   -1    0    0  502  501  0.00000000000E+00  0.00000000000E+00  0.33498863331E+02  0.33498863331E+02  0.00000000000E+00 0.  1.
         21   -1    0    0  501  502 -0.00000000000E+00 -0.00000000000E+00 -0.16303251885E+04  0.16303251885E+04  0.00000000000E+00 0.  1.
      99926    2    1    2    0    0  0.00000000000E+00  0.35527136788E-14 -0.15968263252E+04  0.16638240519E+04  0.46739294250E+03 0.  0.
      99925    2    3    3    0    0 -0.21590718960E+02  0.27238480305E+02 -0.56848543711E+03  0.62732003153E+03  0.26295747906E+03 0.  0.
         25    1    3    3    0    0  0.21590718960E+02 -0.27238480305E+02 -0.10283408881E+04  0.10365040203E+04  0.12509000000E+03 0.  0.
         25    1    4    4    0    0 -0.19089084397E+02  0.18434240410E+02 -0.19368041232E+03  0.23208581297E+03  0.12509000000E+03 0.  0.
         25    1    4    4    0    0 -0.25016345638E+01  0.88042398958E+01 -0.37480502479E+03  0.39523421856E+03  0.12509000000E+03 0.  0.
<mgrwt>
<rscale>  2 0.46739294E+03</rscale>
<asrwt>0</asrwt>
<pdfrwt beam="1">  1       21 0.49263027E-02 0.46739294E+03</pdfrwt>
<pdfrwt beam="2">  1       21 0.23975374E+00 0.46739294E+03</pdfrwt>
<totfact> 0.18209093E+04</totfact>
</mgrwt>
</event>
<event>
 7    0  0.4750554E-002  0.4519900E+03  0.7546771E-02  0.1027130E+00
         21   -1    0    0  502  501  0.00000000000E+00  0.00000000000E+00  0.20699067582E+02  0.20699067582E+02  0.00000000000E+00 0. -1.
         21   -1    0    0  501  502 -0.00000000000E+00 -0.00000000000E+00 -0.24674416532E+04  0.24674416532E+04  0.00000000000E+00 0. -1.
      99926    2    1    2    0    0 -0.41633363423E-16  0.00000000000E+00 -0.24467425857E+04  0.24881407208E+04  0.45199000668E+03 0.  0.
      99925    2    3    3    0    0  0.91620575419E-01  0.86990207352E+02 -0.19175523856E+04  0.19374528959E+04  0.26296248360E+03 0.  0.
         25    1    4    4    0    0  0.43262884473E+01  0.56684417321E+02 -0.71975645807E+03  0.73275419274E+03  0.12509000000E+03 0.  0.
         25    1    4    4    0    0 -0.42346678719E+01  0.30305790031E+02 -0.11977959275E+04  0.12046987032E+04  0.12509000000E+03 0.  0.
         25    1    3    3    0    0 -0.91620575419E-01 -0.86990207352E+02 -0.52919020009E+03  0.55068782494E+03  0.12509000000E+03 0.  0.
<mgrwt>
<rscale>  2 0.45199001E+03</rscale>
<asrwt>0</asrwt>
<pdfrwt beam="1">  1       21 0.30439819E-02 0.45199001E+03</pdfrwt>
<pdfrwt beam="2">  1       21 0.36285891E+00 0.45199001E+03</pdfrwt>
<totfact> 0.74261579E+03</totfact>
</mgrwt>
</event>
<event>
 7    0  0.4750554E-002  0.4187727E+03  0.7546771E-02  0.1037466E+00
         21   -1    0    0  502  501  0.00000000000E+00  0.00000000000E+00  0.32959602443E+03  0.32959602443E+03  0.00000000000E+00 0.  1.
         21   -1    0    0  501  502 -0.00000000000E+00 -0.00000000000E+00 -0.13301935021E+03  0.13301935021E+03  0.00000000000E+00 0.  1.
      99926    2    1    2    0    0  0.00000000000E+00  0.17763568394E-14  0.19657667422E+03  0.46261537464E+03  0.41877272596E+03 0.  0.
      99925    2    3    3    0    0 -0.64573994819E+02 -0.12292423821E+02  0.90098953838E+02  0.28568059138E+03  0.26301078745E+03 0.  0.
         25    1    4    4    0    0 -0.41483727346E+02  0.13319821331E+02  0.92187307093E+01  0.13278106179E+03  0.12509000000E+03 0.  0.
         25    1    4    4    0    0 -0.23090267473E+02 -0.25612245153E+02  0.80880223129E+02  0.15289952958E+03  0.12509000000E+03 0.  0.
         25    1    3    3    0    0  0.64573994819E+02  0.12292423821E+02  0.10647772038E+03  0.17693478326E+03  0.12509000000E+03 0.  0.
<mgrwt>
<rscale>  2 0.41877273E+03</rscale>
<asrwt>0</asrwt>
<pdfrwt beam="1">  1       21 0.48470003E-01 0.41877273E+03</pdfrwt>
<pdfrwt beam="2">  1       21 0.19561669E-01 0.41877273E+03</pdfrwt>
<totfact> 0.91637202E+04</totfact>
</mgrwt>
</event>
<event>
 7    0  0.4750554E-002  0.4407592E+03  0.7546771E-02  0.1030514E+00
         21   -1    0    0  502  501  0.00000000000E+00  0.00000000000E+00  0.11392000875E+03  0.11392000875E+03  0.00000000000E+00 0.  1.
         21   -1    0    0  501  502 -0.00000000000E+00 -0.00000000000E+00 -0.42632689301E+03  0.42632689301E+03  0.00000000000E+00 0.  1.
      99926    2    1    2    0    0  0.71054273576E-14  0.14210854715E-13 -0.31240688426E+03  0.54024690176E+03  0.44075917861E+03 0.  0.
      99925    2    3    3    0    0  0.47844892931E+02  0.84958339313E+02 -0.17672227949E+03  0.33152490179E+03  0.26300369435E+03 0.  0.
         25    1    4    4    0    0  0.29769911662E+02  0.58884132460E+02 -0.48253221155E+02  0.14943048601E+03  0.12509000000E+03 0.  0.
         25    1    4    4    0    0  0.18074981268E+02  0.26074206853E+02 -0.12846905833E+03  0.18209441579E+03  0.12509000000E+03 0.  0.
         25    1    3    3    0    0 -0.47844892931E+02 -0.84958339313E+02 -0.13568460477E+03  0.20872199997E+03  0.12509000000E+03 0.  0.
<mgrwt>
<rscale>  2 0.44075918E+03</rscale>
<asrwt>0</asrwt>
<pdfrwt beam="1">  1       21 0.16752942E-01 0.44075918E+03</pdfrwt>
<pdfrwt beam="2">  1       21 0.62695132E-01 0.44075918E+03</pdfrwt>
<totfact> 0.70086563E+04</totfact>
</mgrwt>
</event>
<event>
 7    0  0.4750554E-002  0.4538148E+03  0.7546771E-02  0.1026591E+00
         21   -1    0    0  502  501  0.00000000000E+00  0.00000000000E+00  0.46214700816E+03  0.46214700816E+03  0.00000000000E+00 0. -1.
         21   -1    0    0  501  502 -0.00000000000E+00 -0.00000000000E+00 -0.11140819841E+03  0.11140819841E+03  0.00000000000E+00 0. -1.
      99926    2    1    2    0    0  0.00000000000E+00  0.00000000000E+00  0.35073880975E+03  0.57355520657E+03  0.45381478856E+03 0.  0.
      99925    2    3    3    0    0  0.87847411025E+02  0.67702552051E+02  0.24174393892E+03  0.37398518591E+03  0.26291440451E+03 0.  0.
         25    1    4    4    0    0  0.39656435050E+02  0.74745198999E+02  0.13276534599E+03  0.20108113489E+03  0.12509000000E+03 0.  0.
         25    1    3    3    0    0 -0.87847411025E+02 -0.67702552051E+02  0.10899487083E+03  0.19957002066E+03  0.12509000000E+03 0.  0.
         25    1    4    4    0    0  0.48190975975E+02 -0.70426469480E+01  0.10897859293E+03  0.17290405102E+03  0.12509000000E+03 0.  0.
<mgrwt>
<rscale>  2 0.45381479E+03</rscale>
<asrwt>0</asrwt>
<pdfrwt beam="1">  1       21 0.67962795E-01 0.45381479E+03</pdfrwt>
<pdfrwt beam="2">  1       21 0.16383559E-01 0.45381479E+03</pdfrwt>
<totfact> 0.60905044E+04</totfact>
</mgrwt>
</event>
<event>
 7    0  0.4750554E-002  0.4556175E+03  0.7546771E-02  0.1026060E+00
         21   -1    0    0  502  501  0.00000000000E+00  0.00000000000E+00  0.81467944079E+02  0.81467944079E+02  0.00000000000E+00 0. -1.
         21   -1    0    0  501  502 -0.00000000000E+00 -0.00000000000E+00 -0.63702143371E+03  0.63702143371E+03  0.00000000000E+00 0. -1.
      99926    2    1    2    0    0  0.00000000000E+00  0.66613381478E-15 -0.55555348963E+03  0.71848937779E+03  0.45561749983E+03 0.  0.
      99925    2    3    3    0    0  0.95072575396E+02  0.19636056144E+00 -0.25074477601E+03  0.37556855144E+03  0.26294478694E+03 0.  0.
         25    1    3    3    0    0 -0.95072575396E+02 -0.19636056144E+00 -0.30480871362E+03  0.34292082636E+03  0.12509000000E+03 0.  0.
         25    1    4    4    0    0  0.46738984695E+02 -0.18574625762E+02 -0.17332842636E+03  0.21959007468E+03  0.12509000000E+03 0.  0.
         25    1    4    4    0    0  0.48333590700E+02  0.18770986324E+02 -0.77416349648E+02  0.15597847675E+03  0.12509000000E+03 0.  0.
<mgrwt>
<rscale>  2 0.45561750E+03</rscale>
<asrwt>0</asrwt>
<pdfrwt beam="1">  1       21 0.11980580E-01 0.45561750E+03</pdfrwt>
<pdfrwt beam="2">  1       21 0.93679623E-01 0.45561750E+03</pdfrwt>
<totfact> 0.51659235E+04</totfact>
</mgrwt>
</event>
<event>
 7    0  0.4750554E-002  0.4520737E+03  0.7546771E-02  0.1027105E+00
         21   -1    0    0  502  501  0.00000000000E+00  0.00000000000E+00  0.76790809092E+02  0.76790809092E+02  0.00000000000E+00 0. -1.
         21   -1    0    0  501  502 -0.00000000000E+00 -0.00000000000E+00 -0.66534863832E+03  0.66534863832E+03  0.00000000000E+00 0. -1.
      99926    2    1    2    0    0  0.00000000000E+00  0.00000000000E+00 -0.58855782923E+03  0.74213944741E+03  0.45207371198E+03 0.  0.
      99925    2    3    3    0    0 -0.14643330863E+02 -0.52514025203E+02 -0.52898963349E+03  0.59325013273E+03  0.26295158807E+03 0.  0.
         25    1    4    4    0    0 -0.14453542279E+02 -0.50128299685E+02 -0.20310252120E+03  0.24417185246E+03  0.12509000000E+03 0.  0.
         25    1    3    3    0    0  0.14643330863E+02  0.52514025203E+02 -0.59568195738E+02  0.14888931468E+03  0.12509000000E+03 0.  0.
         25    1    4    4    0    0 -0.18978858410E+00 -0.23857255179E+01 -0.32588711229E+03  0.34907828028E+03  0.12509000000E+03 0.  0.
<mgrwt>
<rscale>  2 0.45207371E+03</rscale>
<asrwt>0</asrwt>
<pdfrwt beam="1">  1       21 0.11292765E-01 0.45207371E+03</pdfrwt>
<pdfrwt beam="2">  1       21 0.97845398E-01 0.45207371E+03</pdfrwt>
<totfact> 0.51856684E+04</totfact>
</mgrwt>
</event>
<event>
 7    0  0.4750554E-002  0.4574864E+03  0.7546771E-02  0.1025513E+00
         21   -1    0    0  502  501  0.00000000000E+00  0.00000000000E+00  0.25777575178E+03  0.25777575178E+03  0.00000000000E+00 0. -1.
         21   -1    0    0  501  502 -0.00000000000E+00 -0.00000000000E+00 -0.20298051175E+03  0.20298051175E+03  0.00000000000E+00 0. -1.
      99926    2    1    2    0    0  0.71054273576E-14  0.00000000000E+00  0.54795240027E+02  0.46075626353E+03  0.45748641078E+03 0.  0.
      99925    2    3    3    0    0  0.44060024249E+02 -0.82061187327E+02 -0.34446857020E+02  0.28107047058E+03  0.26294238774E+03 0.  0.
         25    1    4    4    0    0 -0.10980667820E+02 -0.14391978684E+02 -0.18490218428E+02  0.12773840610E+03  0.12509000000E+03 0.  0.
         25    1    4    4    0    0  0.55040692069E+02 -0.67669208643E+02 -0.15956638592E+02  0.15333206448E+03  0.12509000000E+03 0.  0.
         25    1    3    3    0    0 -0.44060024249E+02  0.82061187327E+02  0.89242097047E+02  0.17968579295E+03  0.12509000000E+03 0.  0.
<mgrwt>
<rscale>  2 0.45748641E+03</rscale>
<asrwt>0</asrwt>
<pdfrwt beam="1">  1       21 0.37908199E-01 0.45748641E+03</pdfrwt>
<pdfrwt beam="2">  1       21 0.29850075E-01 0.45748641E+03</pdfrwt>
<totfact> 0.66791175E+04</totfact>
</mgrwt>
</event>
<event>
 7    0  0.4750554E-002  0.4570409E+03  0.7546771E-02  0.1025643E+00
         21   -1    0    0  502  501  0.00000000000E+00  0.00000000000E+00  0.42563690584E+03  0.42563690584E+03  0.00000000000E+00 0.  1.
         21   -1    0    0  501  502 -0.00000000000E+00 -0.00000000000E+00 -0.12269050080E+03  0.12269050080E+03  0.00000000000E+00 0.  1.
      99926    2    1    2    0    0 -0.88817841970E-15  0.71054273576E-14  0.30294640504E+03  0.54832740665E+03  0.45704093969E+03 0.  0.
      99925    2    3    3    0    0  0.43624854770E+01 -0.45621948249E+02  0.63693124984E+02  0.27448432464E+03  0.26302934601E+03 0.  0.
         25    1    3    3    0    0 -0.43624854770E+01  0.45621948249E+02  0.23925328006E+03  0.27384308200E+03  0.12509000000E+03 0.  0.
         25    1    4    4    0    0 -0.25496061410E+02  0.71243519221E+01  0.26225102241E+02  0.13052229551E+03  0.12509000000E+03 0.  0.
         25    1    4    4    0    0  0.29858546887E+02 -0.52746300171E+02  0.37468022743E+02  0.14396202913E+03  0.12509000000E+03 0.  0.
<mgrwt>
<rscale>  2 0.45704094E+03</rscale>
<asrwt>0</asrwt>
<pdfrwt beam="1">  1       21 0.62593662E-01 0.45704094E+03</pdfrwt>
<pdfrwt beam="2">  1       21 0.18042721E-01 0.45704094E+03</pdfrwt>
<totfact> 0.60986354E+04</totfact>
</mgrwt>
</event>
<event>
 7    0  0.4750554E-002  0.4536197E+03  0.7546771E-02  0.1026648E+00
         21   -1    0    0  502  501  0.00000000000E+00  0.00000000000E+00  0.12634185730E+03  0.12634185730E+03  0.00000000000E+00 0.  1.
         21   -1    0    0  501  502 -0.00000000000E+00 -0.00000000000E+00 -0.40717072341E+03  0.40717072341E+03  0.00000000000E+00 0.  1.
      99926    2    1    2    0    0 -0.35527136788E-14  0.00000000000E+00 -0.28082886611E+03  0.53351258071E+03  0.45361968843E+03 0.  0.
      99925    2    3    3    0    0 -0.31480048157E+02  0.81842786570E+02 -0.97335440841E+02  0.29475207233E+03  0.26403666592E+03 0.  0.
         25    1    4    4    0    0 -0.55354488191E+02  0.31587213025E+02 -0.61257384904E+02  0.15317260426E+03  0.12509000000E+03 0.  0.
         25    1    3    3    0    0  0.31480048157E+02 -0.81842786570E+02 -0.18349342527E+03  0.23876050838E+03  0.12509000000E+03 0.  0.
         25    1    4    4    0    0  0.23874440034E+02  0.50255573545E+02 -0.36078055937E+02  0.14157946807E+03  0.12509000000E+03 0.  0.
<mgrwt>
<rscale>  2 0.45361969E+03</rscale>
<asrwt>0</asrwt>
<pdfrwt beam="1">  1       21 0.18579685E-01 0.45361969E+03</pdfrwt>
<pdfrwt beam="2">  1       21 0.59878047E-01 0.45361969E+03</pdfrwt>
<totfact> 0.63662028E+04</totfact>
</mgrwt>
</event>
<event>
 7    0  0.4750554E-002  0.4563403E+03  0.7546771E-02  0.1025848E+00
         21   -1    0    0  502  501  0.00000000000E+00  0.00000000000E+00  0.38426239227E+03  0.38426239227E+03  0.00000000000E+00 0. -1.
         21   -1    0    0  501  502 -0.00000000000E+00 -0.00000000000E+00 -0.13548456761E+03  0.13548456761E+03  0.00000000000E+00 0. -1.
      99926    2    1    2    0    0 -0.17763568394E-14  0.00000000000E+00  0.24877782466E+03  0.51974695988E+03  0.45634032943E+03 0.  0.
      99925    2    3    3    0    0 -0.10288109905E+02  0.10788582212E+03  0.19930175298E+03  0.34700268186E+03  0.26257280258E+03 0.  0.
         25    1    4    4    0    0  0.15605209198E+02  0.23695034476E+02  0.11527886378E+03  0.17245782599E+03  0.12509000000E+03 0.  0.
         25    1    3    3    0    0  0.10288109905E+02 -0.10788582212E+03  0.49476071675E+02  0.17274427802E+03  0.12509000000E+03 0.  0.
         25    1    4    4    0    0 -0.25893319103E+02  0.84190787646E+02  0.84022889205E+02  0.17454485586E+03  0.12509000000E+03 0.  0.
<mgrwt>
<rscale>  2 0.45634033E+03</rscale>
<asrwt>0</asrwt>
<pdfrwt beam="1">  1       21 0.56509175E-01 0.45634033E+03</pdfrwt>
<pdfrwt beam="2">  1       21 0.19924201E-01 0.45634033E+03</pdfrwt>
<totfact> 0.63229436E+04</totfact>
</mgrwt>
</event>
<event>
 7    0  0.4750554E-002  0.4547758E+03  0.7546771E-02  0.1026307E+00
         21   -1    0    0  502  501  0.00000000000E+00  0.00000000000E+00  0.58893325243E+03  0.58893325243E+03  0.00000000000E+00 0.  1.
         21   -1    0    0  501  502 -0.00000000000E+00 -0.00000000000E+00 -0.87794763504E+02  0.87794763504E+02  0.00000000000E+00 0.  1.
      99926    2    1    2    0    0  0.00000000000E+00  0.35527136788E-14  0.50113848893E+03  0.67672801593E+03  0.45477579362E+03 0.  0.
      99925    2    3    3    0    0  0.40049773034E+02  0.16309252717E+02  0.16008451719E+03  0.31089294957E+03  0.26297794091E+03 0.  0.
         25    1    3    3    0    0 -0.40049773034E+02 -0.16309252717E+02  0.34105397174E+03  0.36583506636E+03  0.12509000000E+03 0.  0.
         25    1    4    4    0    0 -0.25849996665E+01  0.37321180037E+02  0.59464998343E+02  0.14346827813E+03  0.12509000000E+03 0.  0.
         25    1    4    4    0    0  0.42634772700E+02 -0.21011927319E+02  0.10061951885E+03  0.16742467144E+03  0.12509000000E+03 0.  0.
<mgrwt>
<rscale>  2 0.45477579E+03</rscale>
<asrwt>0</asrwt>
<pdfrwt beam="1">  1       21 0.86607829E-01 0.45477579E+03</pdfrwt>
<pdfrwt beam="2">  1       21 0.12910995E-01 0.45477579E+03</pdfrwt>
<totfact> 0.54281145E+04</totfact>
</mgrwt>
</event>
<event>
 7    0  0.4750554E-002  0.4610123E+03  0.7546771E-02  0.1024488E+00
         21   -1    0    0  502  501  0.00000000000E+00  0.00000000000E+00  0.75232362380E+03  0.75232362380E+03  0.00000000000E+00 0.  1.
         21   -1    0    0  501  502 -0.00000000000E+00 -0.00000000000E+00 -0.70625314383E+02  0.70625314383E+02  0.00000000000E+00 0.  1.
      99926    2    1    2    0    0  0.00000000000E+00  0.14210854715E-13  0.68169830941E+03  0.82294893818E+03  0.46101233150E+03 0.  0.
      99925    2    3    3    0    0  0.49553905966E+02  0.10434676155E+03  0.47551727141E+03  0.55555042514E+03  0.26301285752E+03 0.  0.
         25    1    4    4    0    0  0.19004366648E+02  0.34510542868E+02  0.29670699233E+03  0.32439896874E+03  0.12509000000E+03 0.  0.
         25    1    3    3    0    0 -0.49553905966E+02 -0.10434676155E+03  0.20618103801E+03  0.26739851304E+03  0.12509000000E+03 0.  0.
         25    1    4    4    0    0  0.30549539317E+02  0.69836218685E+02  0.17881027908E+03  0.23115145640E+03  0.12509000000E+03 0.  0.
<mgrwt>
<rscale>  2 0.46101233E+03</rscale>
<asrwt>0</asrwt>
<pdfrwt beam="1">  1       21 0.11063582E+00 0.46101233E+03</pdfrwt>
<pdfrwt beam="2">  1       21 0.10386076E-01 0.46101233E+03</pdfrwt>
<totfact> 0.44536248E+04</totfact>
</mgrwt>
</event>
<event>
 7    0  0.4750554E-002  0.4541886E+03  0.7546771E-02  0.1026480E+00
         21   -1    0    0  502  501  0.00000000000E+00  0.00000000000E+00  0.12551496644E+03  0.12551496644E+03  0.00000000000E+00 0.  1.
         21   -1    0    0  501  502 -0.00000000000E+00 -0.00000000000E+00 -0.41088188103E+03  0.41088188103E+03  0.00000000000E+00 0.  1.
      99926    2    1    2    0    0  0.14210854715E-13  0.00000000000E+00 -0.28536691459E+03  0.53639684748E+03  0.45418861945E+03 0.  0.
      99925    2    3    3    0    0 -0.88563129521E+02  0.49811268357E+02 -0.12290045831E+03  0.30755749797E+03  0.26298764522E+03 0.  0.
         25    1    4    4    0    0 -0.61669074360E+02  0.28407769697E+02 -0.10441192485E+03  0.17652035084E+03  0.12509000000E+03 0.  0.
         25    1    4    4    0    0 -0.26894055161E+02  0.21403498659E+02 -0.18488533461E+02  0.13103714713E+03  0.12509000000E+03 0.  0.
         25    1    3    3    0    0  0.88563129521E+02 -0.49811268357E+02 -0.16246645628E+03  0.22883934951E+03  0.12509000000E+03 0.  0.
<mgrwt>
<rscale>  2 0.45418862E+03</rscale>
<asrwt>0</asrwt>
<pdfrwt beam="1">  1       21 0.18458083E-01 0.45418862E+03</pdfrwt>
<pdfrwt beam="2">  1       21 0.60423806E-01 0.45418862E+03</pdfrwt>
<totfact> 0.63179215E+04</totfact>
</mgrwt>
</event>
<event>
 7    0  0.4750554E-002  0.4299862E+03  0.7546771E-02  0.1033864E+00
         21   -1    0    0  502  501  0.00000000000E+00  0.00000000000E+00  0.29707094752E+03  0.29707094752E+03  0.00000000000E+00 0. -1.
         21   -1    0    0  501  502 -0.00000000000E+00 -0.00000000000E+00 -0.15559256797E+03  0.15559256797E+03  0.00000000000E+00 0. -1.
      99926    2    1    2    0    0  0.00000000000E+00 -0.71054273576E-14  0.14147837955E+03  0.45266351549E+03  0.42998619323E+03 0.  0.
      99925    2    3    3    0    0 -0.42575632992E+02 -0.47338334265E+02  0.15480513695E+03  0.31167162573E+03  0.26290867129E+03 0.  0.
         25    1    3    3    0    0  0.42575632992E+02  0.47338334265E+02 -0.13326757401E+02  0.14099188976E+03  0.12509000000E+03 0.  0.
         25    1    4    4    0    0 -0.41270947710E+02 -0.47711882847E+02  0.11229824319E+03  0.17954976584E+03  0.12509000000E+03 0.  0.
         25    1    4    4    0    0 -0.13046852817E+01  0.37354858214E+00  0.42506893758E+02  0.13212185988E+03  0.12509000000E+03 0.  0.
<mgrwt>
<rscale>  2 0.42998619E+03</rscale>
<asrwt>0</asrwt>
<pdfrwt beam="1">  1       21 0.43686904E-01 0.42998619E+03</pdfrwt>
<pdfrwt beam="2">  1       21 0.22881260E-01 0.42998619E+03</pdfrwt>
<totfact> 0.84269533E+04</totfact>
</mgrwt>
</event>
<event>
 7    0  0.4750554E-002  0.4526285E+03  0.7546771E-02  0.1026941E+00
         21   -1    0    0  502  501  0.00000000000E+00  0.00000000000E+00  0.32203917215E+03  0.32203917215E+03  0.00000000000E+00 0.  1.
         21   -1    0    0  501  502 -0.00000000000E+00 -0.00000000000E+00 -0.15904319336E+03  0.15904319336E+03  0.00000000000E+00 0.  1.
      99926    2    1    2    0    0 -0.35527136788E-14  0.00000000000E+00  0.16299597879E+03  0.48108236551E+03  0.45262849370E+03 0.  0.
      99925    2    3    3    0    0 -0.27701722931E+02 -0.49260967502E+02  0.16469215646E+01  0.26924503467E+03  0.26324161519E+03 0.  0.
         25    1    4    4    0    0 -0.33967818798E+02 -0.33883851952E+02  0.35493496344E+02  0.13859734673E+03  0.12509000000E+03 0.  0.
         25    1    4    4    0    0  0.62660958667E+01 -0.15377115550E+02 -0.33846574779E+02  0.13064768794E+03  0.12509000000E+03 0.  0.
         25    1    3    3    0    0  0.27701722931E+02  0.49260967502E+02  0.16134905722E+03  0.21183733084E+03  0.12509000000E+03 0.  0.
<mgrwt>
<rscale>  2 0.45262849E+03</rscale>
<asrwt>0</asrwt>
<pdfrwt beam="1">  1       21 0.47358702E-01 0.45262849E+03</pdfrwt>
<pdfrwt beam="2">  1       21 0.23388705E-01 0.45262849E+03</pdfrwt>
<totfact> 0.67890458E+04</totfact>
</mgrwt>
</event>
<event>
 7    0  0.4750554E-002  0.4485988E+03  0.7546771E-02  0.1028141E+00
         21   -1    0    0  502  501  0.00000000000E+00  0.00000000000E+00  0.87267558443E+03  0.87267558443E+03  0.00000000000E+00 0.  1.
         21   -1    0    0  501  502 -0.00000000000E+00 -0.00000000000E+00 -0.57650533858E+02  0.57650533858E+02  0.00000000000E+00 0.  1.
      99926    2    1    2    0    0 -0.14210854715E-13  0.00000000000E+00  0.81502505057E+03  0.93032611828E+03  0.44859876650E+03 0.  0.
      99925    2    3    3    0    0  0.77764196238E+02  0.73619908549E+02  0.53815465660E+03  0.60818968088E+03  0.26233012093E+03 0.  0.
         25    1    3    3    0    0 -0.77764196238E+02 -0.73619908549E+02  0.27687039396E+03  0.32213643741E+03  0.12509000000E+03 0.  0.
         25    1    4    4    0    0  0.71436354910E+02  0.15892792059E+02  0.29390050897E+03  0.32769002261E+03  0.12509000000E+03 0.  0.
         25    1    4    4    0    0  0.63278413275E+01  0.57727116490E+02  0.24425414763E+03  0.28049965827E+03  0.12509000000E+03 0.  0.
<mgrwt>
<rscale>  2 0.44859877E+03</rscale>
<asrwt>0</asrwt>
<pdfrwt beam="1">  1       21 0.12833464E+00 0.44859877E+03</pdfrwt>
<pdfrwt beam="2">  1       21 0.84780202E-02 0.44859877E+03</pdfrwt>
<totfact> 0.44115568E+04</totfact>
</mgrwt>
</event>
<event>
 7    0  0.4750554E-002  0.4528799E+03  0.7546771E-02  0.1026867E+00
         21   -1    0    0  502  501  0.00000000000E+00  0.00000000000E+00  0.44737229361E+03  0.44737229361E+03  0.00000000000E+00 0. -1.
         21   -1    0    0  501  502 -0.00000000000E+00 -0.00000000000E+00 -0.11461384828E+03  0.11461384828E+03  0.00000000000E+00 0. -1.
      99926    2    1    2    0    0  0.00000000000E+00 -0.35527136788E-14  0.33275844533E+03  0.56198614189E+03  0.45287994076E+03 0.  0.
      99925    2    3    3    0    0  0.82556052593E+02 -0.19051214250E+02  0.30099099677E+03  0.40759984240E+03  0.26146433944E+03 0.  0.
         25    1    4    4    0    0  0.69311567421E+02 -0.19942161372E+02  0.19780685181E+03  0.24490169844E+03  0.12509000000E+03 0.  0.
         25    1    3    3    0    0 -0.82556052593E+02  0.19051214250E+02  0.31767448563E+02  0.15438629950E+03  0.12509000000E+03 0.  0.
         25    1    4    4    0    0  0.13244485173E+02  0.89094712241E+00  0.10318414496E+03  0.16269814395E+03  0.12509000000E+03 0.  0.
<mgrwt>
<rscale>  2 0.45287994E+03</rscale>
<asrwt>0</asrwt>
<pdfrwt beam="1">  1       21 0.65790043E-01 0.45287994E+03</pdfrwt>
<pdfrwt beam="2">  1       21 0.16854978E-01 0.45287994E+03</pdfrwt>
<totfact> 0.62116402E+04</totfact>
</mgrwt>
</event>
<event>
 7    0  0.4750554E-002  0.4604757E+03  0.7546771E-02  0.1024643E+00
         21   -1    0    0  502  501  0.00000000000E+00  0.00000000000E+00  0.57411813012E+02  0.57411813012E+02  0.00000000000E+00 0. -1.
         21   -1    0    0  501  502 -0.00000000000E+00 -0.00000000000E+00 -0.92331995307E+03  0.92331995307E+03  0.00000000000E+00 0. -1.
      99926    2    1    2    0    0  0.71054273576E-14 -0.14210854715E-13 -0.86590814006E+03  0.98073176608E+03  0.46047572138E+03 0.  0.
      99925    2    3    3    0    0  0.50562734400E+02 -0.97495628653E+02 -0.63680116156E+03  0.69753659767E+03  0.26263967333E+03 0.  0.
         25    1    4    4    0    0  0.40491948833E+02 -0.70330988457E+02 -0.41854296070E+03  0.44431043642E+03  0.12509000000E+03 0.  0.
         25    1    3    3    0    0 -0.50562734400E+02  0.97495628653E+02 -0.22910697850E+03  0.28319516841E+03  0.12509000000E+03 0.  0.
         25    1    4    4    0    0  0.10070785567E+02 -0.27164640196E+02 -0.21825820086E+03  0.25322616125E+03  0.12509000000E+03 0.  0.
<mgrwt>
<rscale>  2 0.46047572E+03</rscale>
<asrwt>0</asrwt>
<pdfrwt beam="1">  1       21 0.84429132E-02 0.46047572E+03</pdfrwt>
<pdfrwt beam="2">  1       21 0.13578235E+00 0.46047572E+03</pdfrwt>
<totfact> 0.38256695E+04</totfact>
</mgrwt>
</event>
<event>
 7    0  0.4750554E-002  0.4542683E+03  0.7546771E-02  0.1026457E+00
         21   -1    0    0  502  501  0.00000000000E+00  0.00000000000E+00  0.11758896493E+03  0.11758896493E+03  0.00000000000E+00 0. -1.
         21   -1    0    0  501  502 -0.00000000000E+00 -0.00000000000E+00 -0.43873104474E+03  0.43873104474E+03  0.00000000000E+00 0. -1.
      99926    2    1    2    0    0  0.00000000000E+00  0.17763568394E-14 -0.32114207981E+03  0.55632000967E+03  0.45426833231E+03 0.  0.
      99925    2    3    3    0    0  0.68121211890E+02  0.11908692842E+02 -0.31080264109E+03  0.41301359472E+03  0.26305822785E+03 0.  0.
         25    1    4    4    0    0  0.29789286317E+02  0.42472416691E+02 -0.12966759750E+03  0.18749000427E+03  0.12509000000E+03 0.  0.
         25    1    4    4    0    0  0.38331925572E+02 -0.30563723848E+02 -0.18113504359E+03  0.22552359045E+03  0.12509000000E+03 0.  0.
         25    1    3    3    0    0 -0.68121211890E+02 -0.11908692842E+02 -0.10339438724E+02  0.14330641496E+03  0.12509000000E+03 0.  0.
<mgrwt>
<rscale>  2 0.45426833E+03</rscale>
<asrwt>0</asrwt>
<pdfrwt beam="1">  1       21 0.17292495E-01 0.45426833E+03</pdfrwt>
<pdfrwt beam="2">  1       21 0.64519271E-01 0.45426833E+03</pdfrwt>
<totfact> 0.61807766E+04</totfact>
</mgrwt>
</event>
<event>
 7    0  0.4750554E-002  0.4530383E+03  0.7546771E-02  0.1026820E+00
         21   -1    0    0  502  501  0.00000000000E+00  0.00000000000E+00  0.88651350385E+03  0.88651350385E+03  0.00000000000E+00 0. -1.
         21   -1    0    0  501  502 -0.00000000000E+00 -0.00000000000E+00 -0.57879464143E+02  0.57879464143E+02  0.00000000000E+00 0. -1.
      99926    2    1    2    0    0  0.00000000000E+00  0.00000000000E+00  0.82863403971E+03  0.94439296799E+03  0.45303830548E+03 0.  0.
      99925    2    3    3    0    0 -0.58847420351E+02 -0.52554124369E+02  0.35885033186E+03  0.45187982590E+03  0.26305296333E+03 0.  0.
         25    1    3    3    0    0  0.58847420351E+02  0.52554124369E+02  0.46978370785E+03  0.49251314209E+03  0.12509000000E+03 0.  0.
         25    1    4    4    0    0 -0.48658900322E+02 -0.26833742666E+02  0.24425981541E+03  0.27999661400E+03  0.12509000000E+03 0.  0.
         25    1    4    4    0    0 -0.10188520029E+02 -0.25720381703E+02  0.11459051645E+03  0.17188321190E+03  0.12509000000E+03 0.  0.
<mgrwt>
<rscale>  2 0.45303831E+03</rscale>
<asrwt>0</asrwt>
<pdfrwt beam="1">  1       21 0.13036962E+00 0.45303831E+03</pdfrwt>
<pdfrwt beam="2">  1       21 0.85116864E-02 0.45303831E+03</pdfrwt>
<totfact> 0.42009454E+04</totfact>
</mgrwt>
</event>
<event>
 7    0  0.4750554E-002  0.4498061E+03  0.7546771E-02  0.1027780E+00
         21   -1    0    0  502  501  0.00000000000E+00  0.00000000000E+00  0.11723420598E+03  0.11723420598E+03  0.00000000000E+00 0.  1.
         21   -1    0    0  501  502 -0.00000000000E+00 -0.00000000000E+00 -0.43145582646E+03  0.43145582646E+03  0.00000000000E+00 0.  1.
      99926    2    1    2    0    0  0.00000000000E+00 -0.71054273576E-14 -0.31422162048E+03  0.54869003244E+03  0.44980609702E+03 0.  0.
      99925    2    3    3    0    0 -0.36569049698E+02  0.54233802476E+02 -0.30385856679E+03  0.40715027934E+03  0.26298806175E+03 0.  0.
         25    1    3    3    0    0  0.36569049698E+02 -0.54233802476E+02 -0.10363053692E+02  0.14153975310E+03  0.12509000000E+03 0.  0.
         25    1    4    4    0    0 -0.15926325541E+02 -0.53304314296E+01 -0.10654648978E+03  0.16517180125E+03  0.12509000000E+03 0.  0.
         25    1    4    4    0    0 -0.20642724157E+02  0.59564233906E+02 -0.19731207701E+03  0.24197847809E+03  0.12509000000E+03 0.  0.
<mgrwt>
<rscale>  2 0.44980610E+03</rscale>
<asrwt>0</asrwt>
<pdfrwt beam="1">  1       21 0.17240324E-01 0.44980610E+03</pdfrwt>
<pdfrwt beam="2">  1       21 0.63449386E-01 0.44980610E+03</pdfrwt>
<totfact> 0.64565842E+04</totfact>
</mgrwt>
</event>
<event>
 7    0  0.4750554E-002  0.4388011E+03  0.7546771E-02  0.1031115E+00
         21   -1    0    0  502  501  0.00000000000E+00  0.00000000000E+00  0.80019227862E+03  0.80019227862E+03  0.00000000000E+00 0.  1.
         21   -1    0    0  501  502 -0.00000000000E+00 -0.00000000000E+00 -0.60156289960E+02  0.60156289960E+02  0.00000000000E+00 0.  1.
      99926    2    1    2    0    0  0.00000000000E+00  0.00000000000E+00  0.74003598866E+03  0.86034856858E+03  0.43880108813E+03 0.  0.
      99925    2    3    3    0    0  0.77221773321E+02  0.26492088040E+02  0.57618003148E+03  0.63862505650E+03  0.26304657594E+03 0.  0.
         25    1    4    4    0    0  0.69931148544E+01 -0.20672733818E+00  0.32236145161E+03  0.34585164446E+03  0.12509000000E+03 0.  0.
         25    1    4    4    0    0  0.70228658467E+02  0.26698815378E+02  0.25381857987E+03  0.29277341205E+03  0.12509000000E+03 0.  0.
         25    1    3    3    0    0 -0.77221773321E+02 -0.26492088040E+02  0.16385595717E+03  0.22172351207E+03  0.12509000000E+03 0.  0.
<mgrwt>
<rscale>  2 0.43880109E+03</rscale>
<asrwt>0</asrwt>
<pdfrwt beam="1">  1       21 0.11767533E+00 0.43880109E+03</pdfrwt>
<pdfrwt beam="2">  1       21 0.88465137E-02 0.43880109E+03</pdfrwt>
<totfact> 0.51178511E+04</totfact>
</mgrwt>
</event>
<event>
 7    0  0.4750554E-002  0.4527946E+03  0.7546771E-02  0.1026892E+00
         21   -1    0    0  502  501  0.00000000000E+00  0.00000000000E+00  0.15416277775E+03  0.15416277775E+03  0.00000000000E+00 0. -1.
         21   -1    0    0  501  502 -0.00000000000E+00 -0.00000000000E+00 -0.33247808532E+03  0.33247808532E+03  0.00000000000E+00 0. -1.
      99926    2    1    2    0    0  0.00000000000E+00  0.00000000000E+00 -0.17831530757E+03  0.48664086307E+03  0.45279463413E+03 0.  0.
      99925    2    3    3    0    0  0.88688754162E+02 -0.66497556704E+02 -0.10832416880E+03  0.30543962751E+03  0.26319502340E+03 0.  0.
         25    1    4    4    0    0  0.57238649896E+02 -0.37449418350E+02 -0.97630186172E+02  0.17279433824E+03  0.12509000000E+03 0.  0.
         25    1    3    3    0    0 -0.88688754162E+02  0.66497556704E+02 -0.69991138769E+02  0.18120123556E+03  0.12509000000E+03 0.  0.
         25    1    4    4    0    0  0.31450104265E+02 -0.29048138353E+02 -0.10693982628E+02  0.13264528927E+03  0.12509000000E+03 0.  0.
<mgrwt>
<rscale>  2 0.45279463E+03</rscale>
<asrwt>0</asrwt>
<pdfrwt beam="1">  1       21 0.22670997E-01 0.45279463E+03</pdfrwt>
<pdfrwt beam="2">  1       21 0.48893836E-01 0.45279463E+03</pdfrwt>
<totfact> 0.67391943E+04</totfact>
</mgrwt>
</event>
<event>
 7    0  0.4750554E-002  0.4545824E+03  0.7546771E-02  0.1026364E+00
         21   -1    0    0  502  501  0.00000000000E+00  0.00000000000E+00  0.26263974583E+03  0.26263974583E+03  0.00000000000E+00 0. -1.
         21   -1    0    0  501  502 -0.00000000000E+00 -0.00000000000E+00 -0.19670018301E+03  0.19670018301E+03  0.00000000000E+00 0. -1.
      99926    2    1    2    0    0  0.00000000000E+00  0.00000000000E+00  0.65939562816E+02  0.45933992884E+03  0.45458238448E+03 0.  0.
      99925    2    3    3    0    0 -0.29059577432E+01 -0.54169864689E+02  0.14135930243E+03  0.30352444805E+03  0.26306238680E+03 0.  0.
         25    1    3    3    0    0  0.29059577432E+01  0.54169864689E+02 -0.75419739610E+02  0.15581548079E+03  0.12509000000E+03 0.  0.
         25    1    4    4    0    0 -0.40708215915E+01 -0.34733388427E+02  0.26445580975E+02  0.13255133614E+03  0.12509000000E+03 0.  0.
         25    1    4    4    0    0  0.11648638482E+01 -0.19436476262E+02  0.11491372145E+03  0.17097311191E+03  0.12509000000E+03 0.  0.
<mgrwt>
<rscale>  2 0.45458238E+03</rscale>
<asrwt>0</asrwt>
<pdfrwt beam="1">  1       21 0.38623492E-01 0.45458238E+03</pdfrwt>
<pdfrwt beam="2">  1       21 0.28926497E-01 0.45458238E+03</pdfrwt>
<totfact> 0.68456406E+04</totfact>
</mgrwt>
</event>
<event>
 7    0  0.4750554E-002  0.4511734E+03  0.7546771E-02  0.1027373E+00
         21   -1    0    0  502  501  0.00000000000E+00  0.00000000000E+00  0.15405177743E+03  0.15405177743E+03  0.00000000000E+00 0.  1.
         21   -1    0    0  501  502 -0.00000000000E+00 -0.00000000000E+00 -0.33033930151E+03  0.33033930151E+03  0.00000000000E+00 0.  1.
      99926    2    1    2    0    0  0.00000000000E+00  0.14210854715E-13 -0.17628752408E+03  0.48439107894E+03  0.45117338819E+03 0.  0.
      99925    2    3    3    0    0  0.44412062036E+02 -0.95831343921E+02 -0.80310150398E+02  0.29461425714E+03  0.26304327120E+03 0.  0.
         25    1    4    4    0    0  0.25330706382E+02 -0.77366016065E+02 -0.12239062492E+02  0.14974794783E+03  0.12509000000E+03 0.  0.
         25    1    3    3    0    0 -0.44412062036E+02  0.95831343921E+02 -0.95977373687E+02  0.18977682180E+03  0.12509000000E+03 0.  0.
         25    1    4    4    0    0  0.19081355654E+02 -0.18465327856E+02 -0.68071087906E+02  0.14486630932E+03  0.12509000000E+03 0.  0.
<mgrwt>
<rscale>  2 0.45117339E+03</rscale>
<asrwt>0</asrwt>
<pdfrwt beam="1">  1       21 0.22654673E-01 0.45117339E+03</pdfrwt>
<pdfrwt beam="2">  1       21 0.48579309E-01 0.45117339E+03</pdfrwt>
<totfact> 0.68437281E+04</totfact>
</mgrwt>
</event>
<event>
 7    0  0.4750554E-002  0.4567950E+03  0.7546771E-02  0.1025715E+00
         21   -1    0    0  502  501  0.00000000000E+00  0.00000000000E+00  0.30897409758E+03  0.30897409758E+03  0.00000000000E+00 0. -1.
         21   -1    0    0  501  502 -0.00000000000E+00 -0.00000000000E+00 -0.16883425356E+03  0.16883425356E+03  0.00000000000E+00 0. -1.
      99926    2    1    2    0    0  0.35527136788E-14 -0.11102230246E-14  0.14013984402E+03  0.47780835114E+03  0.45679496991E+03 0.  0.
      99925    2    3    3    0    0  0.31791491722E+02 -0.20949549775E+00 -0.27255295434E+02  0.26643336765E+03  0.26312192123E+03 0.  0.
         25    1    3    3    0    0 -0.31791491722E+02  0.20949549775E+00  0.16739513945E+03  0.21137498349E+03  0.12509000000E+03 0.  0.
         25    1    4    4    0    0 -0.10804244110E+02  0.24185592865E+02  0.59946953826E+01  0.12800437128E+03  0.12509000000E+03 0.  0.
         25    1    4    4    0    0  0.42595735832E+02 -0.24395088362E+02 -0.33249990816E+02  0.13842899637E+03  0.12509000000E+03 0.  0.
<mgrwt>
<rscale>  2 0.45679497E+03</rscale>
<asrwt>0</asrwt>
<pdfrwt beam="1">  1       21 0.45437367E-01 0.45679497E+03</pdfrwt>
<pdfrwt beam="2">  1       21 0.24828567E-01 0.45679497E+03</pdfrwt>
<totfact> 0.65915943E+04</totfact>
</mgrwt>
</event>
<event>
 7    0  0.4750554E-002  0.4525628E+03  0.7546771E-02  0.1026961E+00
         21   -1    0    0  502  501  0.00000000000E+00  0.00000000000E+00  0.91225468371E+03  0.91225468371E+03  0.00000000000E+00 0. -1.
         21   -1    0    0  501  502 -0.00000000000E+00 -0.00000000000E+00 -0.56128270066E+02  0.56128270066E+02  0.00000000000E+00 0. -1.
      99926    2    1    2    0    0  0.00000000000E+00  0.14210854715E-13  0.85612641364E+03  0.96838295378E+03  0.45256282329E+03 0.  0.
      99925    2    3    3    0    0 -0.81287901184E+02  0.69564552604E+02  0.48379941210E+03  0.56129346234E+03  0.26370728064E+03 0.  0.
         25    1    4    4    0    0 -0.43225537513E+02  0.43456074148E+02  0.16629896845E+03  0.21693255284E+03  0.12509000000E+03 0.  0.
         25    1    3    3    0    0  0.81287901184E+02 -0.69564552604E+02  0.37232700154E+03  0.40708949143E+03  0.12509000000E+03 0.  0.
         25    1    4    4    0    0 -0.38062363671E+02  0.26108478456E+02  0.31750044365E+03  0.34436090950E+03  0.12509000000E+03 0.  0.
<mgrwt>
<rscale>  2 0.45256282E+03</rscale>
<asrwt>0</asrwt>
<pdfrwt beam="1">  1       21 0.13415509E+00 0.45256282E+03</pdfrwt>
<pdfrwt beam="2">  1       21 0.82541579E-02 0.45256282E+03</pdfrwt>
<totfact> 0.41184426E+04</totfact>
</mgrwt>
</event>
<event>
 7    0  0.4750554E-002  0.4630460E+03  0.7546771E-02  0.1023901E+00
         21   -1    0    0  502  501  0.00000000000E+00  0.00000000000E+00  0.21121518334E+03  0.21121518334E+03  0.00000000000E+00 0.  1.
         21   -1    0    0  501  502 -0.00000000000E+00 -0.00000000000E+00 -0.25378331298E+03  0.25378331298E+03  0.00000000000E+00 0.  1.
      99926    2    1    2    0    0  0.00000000000E+00  0.88817841970E-15 -0.42568129647E+02  0.46499849632E+03  0.46304595443E+03 0.  0.
      99925    2    3    3    0    0 -0.41735451321E+01  0.66121403152E+01  0.94233861629E+02  0.27946296928E+03  0.26297983124E+03 0.  0.
         25    1    4    4    0    0 -0.26273266229E+02  0.14874167335E+02  0.79642249666E+02  0.15133380787E+03  0.12509000000E+03 0.  0.
         25    1    4    4    0    0  0.22099721097E+02 -0.82620270196E+01  0.14591611963E+02  0.12812916141E+03  0.12509000000E+03 0.  0.
         25    1    3    3    0    0  0.41735451321E+01 -0.66121403152E+01 -0.13680199128E+03  0.18553552704E+03  0.12509000000E+03 0.  0.
<mgrwt>
<rscale>  2 0.46304595E+03</rscale>
<asrwt>0</asrwt>
<pdfrwt beam="1">  1       21 0.31061056E-01 0.46304595E+03</pdfrwt>
<pdfrwt beam="2">  1       21 0.37321075E-01 0.46304595E+03</pdfrwt>
<totfact> 0.63635170E+04</totfact>
</mgrwt>
</event>
<event>
 7    0  0.4750554E-002  0.4537726E+03  0.7546771E-02  0.1026603E+00
         21   -1    0    0  502  501  0.00000000000E+00  0.00000000000E+00  0.95467348225E+03  0.95467348225E+03  0.00000000000E+00 0. -1.
         21   -1    0    0  501  502 -0.00000000000E+00 -0.00000000000E+00 -0.53921457529E+02  0.53921457529E+02  0.00000000000E+00 0. -1.
      99926    2    1    2    0    0 -0.14210854715E-13  0.00000000000E+00  0.90075202472E+03  0.10085949398E+04  0.45377256694E+03 0.  0.
      99925    2    3    3    0    0  0.79850321253E+02 -0.22802976384E+02  0.73443592233E+03  0.78453110166E+03  0.26305299073E+03 0.  0.
         25    1    3    3    0    0 -0.79850321253E+02  0.22802976384E+02  0.16631610239E+03  0.22406383811E+03  0.12509000000E+03 0.  0.
         25    1    4    4    0    0  0.79890674710E+02 -0.12811398412E+02  0.35922744984E+03  0.38889397097E+03  0.12509000000E+03 0.  0.
         25    1    4    4    0    0 -0.40353457719E-01 -0.99915779713E+01  0.37520847249E+03  0.39563713070E+03  0.12509000000E+03 0.  0.
<mgrwt>
<rscale>  2 0.45377257E+03</rscale>
<asrwt>0</asrwt>
<pdfrwt beam="1">  1       21 0.14039315E+00 0.45377257E+03</pdfrwt>
<pdfrwt beam="2">  1       21 0.79296267E-02 0.45377257E+03</pdfrwt>
<totfact> 0.39208603E+04</totfact>
</mgrwt>
</event>
<event>
 7    0  0.4750554E-002  0.4484423E+03  0.7546771E-02  0.1028188E+00
         21   -1    0    0  502  501  0.00000000000E+00  0.00000000000E+00  0.44183505986E+03  0.44183505986E+03  0.00000000000E+00 0.  1.
         21   -1    0    0  501  502 -0.00000000000E+00 -0.00000000000E+00 -0.11378709085E+03  0.11378709085E+03  0.00000000000E+00 0.  1.
      99926    2    1    2    0    0  0.00000000000E+00  0.00000000000E+00  0.32804796901E+03  0.55562215072E+03  0.44844230888E+03 0.  0.
      99925    2    3    3    0    0  0.53440897177E+02 -0.57918571574E+02  0.29719782743E+03  0.40459324699E+03  0.26298033474E+03 0.  0.
         25    1    4    4    0    0  0.52137864747E+02 -0.54102390862E+02  0.19161490078E+03  0.24085099945E+03  0.12509000000E+03 0.  0.
         25    1    3    3    0    0 -0.53440897177E+02  0.57918571574E+02  0.30850141577E+02  0.15102890372E+03  0.12509000000E+03 0.  0.
         25    1    4    4    0    0  0.13030324295E+01 -0.38161807112E+01  0.10558292665E+03  0.16374224754E+03  0.12509000000E+03 0.  0.
<mgrwt>
<rscale>  2 0.44844231E+03</rscale>
<asrwt>0</asrwt>
<pdfrwt beam="1">  1       21 0.64975744E-01 0.44844231E+03</pdfrwt>
<pdfrwt beam="2">  1       21 0.16733396E-01 0.44844231E+03</pdfrwt>
<totfact> 0.64792847E+04</totfact>
</mgrwt>
</event>
<event>
 7    0  0.4750554E-002  0.4498036E+03  0.7546771E-02  0.1027781E+00
         21   -1    0    0  502  501  0.00000000000E+00  0.00000000000E+00  0.27019233262E+03  0.27019233262E+03  0.00000000000E+00 0. -1.
         21   -1    0    0  501  502 -0.00000000000E+00 -0.00000000000E+00 -0.18720302968E+03  0.18720302968E+03  0.00000000000E+00 0. -1.
      99926    2    1    2    0    0  0.00000000000E+00  0.00000000000E+00  0.82989302939E+02  0.45739536229E+03  0.44980361608E+03 0.  0.
      99925    2    3    3    0    0 -0.10451253379E+03 -0.26761161903E+02  0.43238152937E+02  0.28749335662E+03  0.26295220616E+03 0.  0.
         25    1    4    4    0    0 -0.29083570050E+02  0.14864535195E+02  0.40861452236E+02  0.13558751724E+03  0.12509000000E+03 0.  0.
         25    1    4    4    0    0 -0.75428963739E+02 -0.41625697097E+02  0.23767007009E+01  0.15190583937E+03  0.12509000000E+03 0.  0.
         25    1    3    3    0    0  0.10451253379E+03  0.26761161903E+02  0.39751150002E+02  0.16990200567E+03  0.12509000000E+03 0.  0.
<mgrwt>
<rscale>  2 0.44980362E+03</rscale>
<asrwt>0</asrwt>
<pdfrwt beam="1">  1       21 0.39734167E-01 0.44980362E+03</pdfrwt>
<pdfrwt beam="2">  1       21 0.27529857E-01 0.44980362E+03</pdfrwt>
<totfact> 0.71277531E+04</totfact>
</mgrwt>
</event>
<event>
 7    0  0.4750554E-002  0.4537599E+03  0.7546771E-02  0.1026607E+00
         21   -1    0    0  502  501  0.00000000000E+00  0.00000000000E+00  0.22663930012E+03  0.22663930012E+03  0.00000000000E+00 0.  1.
         21   -1    0    0  501  502 -0.00000000000E+00 -0.00000000000E+00 -0.22712085775E+03  0.22712085775E+03  0.00000000000E+00 0.  1.
      99926    2    1    2    0    0  0.00000000000E+00  0.00000000000E+00 -0.48155763172E+00  0.45376015787E+03  0.45375990234E+03 0.  0.
      99925    2    3    3    0    0 -0.35201581658E+02 -0.96322866378E+02  0.44756538923E+02  0.28579814008E+03  0.26298323741E+03 0.  0.
         25    1    4    4    0    0 -0.18487975878E+02 -0.89334188837E+01  0.37189957899E+02  0.13210682153E+03  0.12509000000E+03 0.  0.
         25    1    4    4    0    0 -0.16713605781E+02 -0.87389447494E+02  0.75665810248E+01  0.15369131856E+03  0.12509000000E+03 0.  0.
         25    1    3    3    0    0  0.35201581658E+02  0.96322866378E+02 -0.45238096555E+02  0.16796201779E+03  0.12509000000E+03 0.  0.
<mgrwt>
<rscale>  2 0.45375990E+03</rscale>
<asrwt>0</asrwt>
<pdfrwt beam="1">  1       21 0.33329309E-01 0.45375990E+03</pdfrwt>
<pdfrwt beam="2">  1       21 0.33400126E-01 0.45375990E+03</pdfrwt>
<totfact> 0.69320080E+04</totfact>
</mgrwt>
</event>
<event>
 7    0  0.4750554E-002  0.4504491E+03  0.7546771E-02  0.1027588E+00
         21   -1    0    0  502  501  0.00000000000E+00  0.00000000000E+00  0.18260488271E+03  0.18260488271E+03  0.00000000000E+00 0.  1.
         21   -1    0    0  501  502 -0.00000000000E+00 -0.00000000000E+00 -0.27779157995E+03  0.27779157995E+03  0.00000000000E+00 0.  1.
      99926    2    1    2    0    0  0.71054273576E-14  0.00000000000E+00 -0.95186697244E+02  0.46039646266E+03  0.45044910422E+03 0.  0.
      99925    2    3    3    0    0  0.61945288693E+02 -0.81933430398E+02 -0.96771579620E+02  0.29853131582E+03  0.26307014672E+03 0.  0.
         25    1    4    4    0    0 -0.49211280116E+01 -0.59635174980E+02 -0.52627746695E+02  0.14831641655E+03  0.12509000000E+03 0.  0.
         25    1    3    3    0    0 -0.61945288693E+02  0.81933430398E+02  0.15848823764E+01  0.16186514684E+03  0.12509000000E+03 0.  0.
         25    1    4    4    0    0  0.66866416704E+02 -0.22298255418E+02 -0.44143832925E+02  0.15021489927E+03  0.12509000000E+03 0.  0.
<mgrwt>
<rscale>  2 0.45044910E+03</rscale>
<asrwt>0</asrwt>
<pdfrwt beam="1">  1       21 0.26853660E-01 0.45044910E+03</pdfrwt>
<pdfrwt beam="2">  1       21 0.40851702E-01 0.45044910E+03</pdfrwt>
<totfact> 0.70674257E+04</totfact>
</mgrwt>
</event>
<event>
 7    0  0.4750554E-002  0.4509027E+03  0.7546771E-02  0.1027453E+00
         21   -1    0    0  502  501  0.00000000000E+00  0.00000000000E+00  0.42451872386E+02  0.42451872386E+02  0.00000000000E+00 0. -1.
         21   -1    0    0  501  502 -0.00000000000E+00 -0.00000000000E+00 -0.11973162640E+04  0.11973162640E+04  0.00000000000E+00 0. -1.
      99926    2    1    2    0    0  0.00000000000E+00  0.14210854715E-13 -0.11548643917E+04  0.12397681364E+04  0.45090272675E+03 0.  0.
      99925    2    3    3    0    0 -0.44645178672E+02 -0.99595430055E+02 -0.71203059106E+03  0.76683925729E+03  0.26294950515E+03 0.  0.
         25    1    4    4    0    0 -0.53288039817E+01 -0.56536136266E+02 -0.25798160001E+03  0.29227853992E+03  0.12509000000E+03 0.  0.
         25    1    3    3    0    0  0.44645178672E+02  0.99595430055E+02 -0.44283380061E+03  0.47292887914E+03  0.12509000000E+03 0.  0.
         25    1    4    4    0    0 -0.39316374690E+02 -0.43059293789E+02 -0.45404899105E+03  0.47456071737E+03  0.12509000000E+03 0.  0.
<mgrwt>
<rscale>  2 0.45090273E+03</rscale>
<asrwt>0</asrwt>
<pdfrwt beam="1">  1       21 0.62429234E-02 0.45090273E+03</pdfrwt>
<pdfrwt beam="2">  1       21 0.17607589E+00 0.45090273E+03</pdfrwt>
<totfact> 0.31921482E+04</totfact>
</mgrwt>
</event>
<event>
 7    0  0.4750554E-002  0.4539564E+03  0.7546771E-02  0.1026549E+00
         21   -1    0    0  502  501  0.00000000000E+00  0.00000000000E+00  0.79122521676E+03  0.79122521676E+03  0.00000000000E+00 0.  1.
         21   -1    0    0  501  502 -0.00000000000E+00 -0.00000000000E+00 -0.65113071949E+02  0.65113071949E+02  0.00000000000E+00 0.  1.
      99926    2    1    2    0    0  0.00000000000E+00 -0.71054273576E-14  0.72611214481E+03  0.85633828871E+03  0.45395640525E+03 0.  0.
      99925    2    3    3    0    0 -0.77101712906E+02 -0.37859318738E+02  0.32138519831E+03  0.42410060934E+03  0.26304919501E+03 0.  0.
         25    1    3    3    0    0  0.77101712906E+02  0.37859318738E+02  0.40472694650E+03  0.43223767937E+03  0.12509000000E+03 0.  0.
         25    1    4    4    0    0 -0.46363043706E+02  0.11213282008E+02  0.19855419069E+03  0.23947138505E+03  0.12509000000E+03 0.  0.
         25    1    4    4    0    0 -0.30738669200E+02 -0.49072600746E+02  0.12283100762E+03  0.18462922429E+03  0.12509000000E+03 0.  0.
<mgrwt>
<rscale>  2 0.45395641E+03</rscale>
<asrwt>0</asrwt>
<pdfrwt beam="1">  1       21 0.11635664E+00 0.45395641E+03</pdfrwt>
<pdfrwt beam="2">  1       21 0.95754522E-02 0.45395641E+03</pdfrwt>
<totfact> 0.45528700E+04</totfact>
</mgrwt>
</event>
<event>
 7    0  0.4750554E-002  0.4507328E+03  0.7546771E-02  0.1027504E+00
         21   -1    0    0  502  501  0.00000000000E+00  0.00000000000E+00  0.44944478185E+03  0.44944478185E+03  0.00000000000E+00 0.  1.
         21   -1    0    0  501  502 -0.00000000000E+00 -0.00000000000E+00 -0.11300610582E+03  0.11300610582E+03  0.00000000000E+00 0.  1.
      99926    2    1    2    0    0  0.00000000000E+00 -0.17763568394E-14  0.33643867604E+03  0.56245088767E+03  0.45073275708E+03 0.  0.
      99925    2    3    3    0    0  0.33043134647E+02  0.13428156650E+02  0.83822038046E+02  0.27831212222E+03  0.26298163277E+03 0.  0.
         25    1    4    4    0    0 -0.60449558689E+01  0.29930877567E+02  0.15777017980E+02  0.12972594698E+03  0.12509000000E+03 0.  0.
         25    1    4    4    0    0  0.39088090516E+02 -0.16502720918E+02  0.68045020065E+02  0.14858617524E+03  0.12509000000E+03 0.  0.
         25    1    3    3    0    0 -0.33043134647E+02 -0.13428156650E+02  0.25261663799E+03  0.28413876544E+03  0.12509000000E+03 0.  0.
<mgrwt>
<rscale>  2 0.45073276E+03</rscale>
<asrwt>0</asrwt>
<pdfrwt beam="1">  1       21 0.66094820E-01 0.45073276E+03</pdfrwt>
<pdfrwt beam="2">  1       21 0.16618545E-01 0.45073276E+03</pdfrwt>
<totfact> 0.63155902E+04</totfact>
</mgrwt>
</event>
<event>
 7    0  0.4750554E-002  0.4549706E+03  0.7546771E-02  0.1026250E+00
         21   -1    0    0  502  501  0.00000000000E+00  0.00000000000E+00  0.22901263481E+03  0.22901263481E+03  0.00000000000E+00 0.  1.
         21   -1    0    0  501  502 -0.00000000000E+00 -0.00000000000E+00 -0.22596812475E+03  0.22596812475E+03  0.00000000000E+00 0.  1.
      99926    2    1    2    0    0  0.00000000000E+00  0.14210854715E-13  0.30445100565E+01  0.45498075956E+03  0.45497057326E+03 0.  0.
      99925    2    3    3    0    0 -0.43898193842E+02  0.83730848618E+02  0.64043596001E+02  0.28673598841E+03  0.26301718277E+03 0.  0.
         25    1    3    3    0    0  0.43898193842E+02 -0.83730848618E+02 -0.60999085945E+02  0.16824477115E+03  0.12509000000E+03 0.  0.
         25    1    4    4    0    0 -0.27955779660E+02  0.16748370031E+02 -0.23054338748E+01  0.12928594912E+03  0.12509000000E+03 0.  0.
         25    1    4    4    0    0 -0.15942414182E+02  0.66982478588E+02  0.66349029876E+02  0.15745003929E+03  0.12509000000E+03 0.  0.
<mgrwt>
<rscale>  2 0.45497057E+03</rscale>
<asrwt>0</asrwt>
<pdfrwt beam="1">  1       21 0.33678328E-01 0.45497057E+03</pdfrwt>
<pdfrwt beam="2">  1       21 0.33230607E-01 0.45497057E+03</pdfrwt>
<totfact> 0.68563296E+04</totfact>
</mgrwt>
</event>
<event>
 7    0  0.4750554E-002  0.4509223E+03  0.7546771E-02  0.1027447E+00
         21   -1    0    0  502  501  0.00000000000E+00  0.00000000000E+00  0.38994053893E+03  0.38994053893E+03  0.00000000000E+00 0.  1.
         21   -1    0    0  501  502 -0.00000000000E+00 -0.00000000000E+00 -0.13036020941E+03  0.13036020941E+03  0.00000000000E+00 0.  1.
      99926    2    1    2    0    0 -0.35527136788E-14 -0.71054273576E-14  0.25958032952E+03  0.52030074834E+03  0.45092230068E+03 0.  0.
      99925    2    3    3    0    0  0.23565371763E+02  0.35128289310E+02  0.28045067705E+03  0.38661304150E+03  0.26273130407E+03 0.  0.
         25    1    4    4    0    0  0.23961397576E+02  0.16325809928E+02  0.85670224133E+02  0.15436183481E+03  0.12509000000E+03 0.  0.
         25    1    3    3    0    0 -0.23565371763E+02 -0.35128289310E+02 -0.20870347525E+02  0.13368770685E+03  0.12509000000E+03 0.  0.
         25    1    4    4    0    0 -0.39602581357E+00  0.18802479382E+02  0.19478045292E+03  0.23225120668E+03  0.12509000000E+03 0.  0.
<mgrwt>
<rscale>  2 0.45092230E+03</rscale>
<asrwt>0</asrwt>
<pdfrwt beam="1">  1       21 0.57344197E-01 0.45092230E+03</pdfrwt>
<pdfrwt beam="2">  1       21 0.19170619E-01 0.45092230E+03</pdfrwt>
<totfact> 0.65974962E+04</totfact>
</mgrwt>
</event>
<event>
 7    0  0.4750554E-002  0.4559265E+03  0.7546771E-02  0.1025969E+00
         21   -1    0    0  502  501  0.00000000000E+00  0.00000000000E+00  0.55760336786E+02  0.55760336786E+02  0.00000000000E+00 0.  1.
         21   -1    0    0  501  502 -0.00000000000E+00 -0.00000000000E+00 -0.93197521857E+03  0.93197521857E+03  0.00000000000E+00 0.  1.
      99926    2    1    2    0    0  0.00000000000E+00  0.00000000000E+00 -0.87621488179E+03  0.98773555536E+03  0.45592653822E+03 0.  0.
      99925    2    3    3    0    0 -0.13432574823E+02 -0.53719926365E+02 -0.33487571137E+03  0.42937915477E+03  0.26297994586E+03 0.  0.
         25    1    4    4    0    0 -0.19693409136E+02 -0.62999286533E+02 -0.20145828741E+03  0.24614973113E+03  0.12509000000E+03 0.  0.
         25    1    3    3    0    0  0.13432574823E+02  0.53719926365E+02 -0.54133917041E+03  0.55835640059E+03  0.12509000000E+03 0.  0.
         25    1    4    4    0    0  0.62608343136E+01  0.92793601680E+01 -0.13341742396E+03  0.18322942364E+03  0.12509000000E+03 0.  0.
<mgrwt>
<rscale>  2 0.45592654E+03</rscale>
<asrwt>0</asrwt>
<pdfrwt beam="1">  1       21 0.82000502E-02 0.45592654E+03</pdfrwt>
<pdfrwt beam="2">  1       21 0.13705517E+00 0.45592654E+03</pdfrwt>
<totfact> 0.39361502E+04</totfact>
</mgrwt>
</event>
<event>
 7    0  0.4750554E-002  0.4254516E+03  0.7546771E-02  0.1035306E+00
         21   -1    0    0  502  501  0.00000000000E+00  0.00000000000E+00  0.77372043749E+02  0.77372043749E+02  0.00000000000E+00 0. -1.
         21   -1    0    0  501  502 -0.00000000000E+00 -0.00000000000E+00 -0.58486580554E+03  0.58486580554E+03  0.00000000000E+00 0. -1.
      99926    2    1    2    0    0  0.00000000000E+00 -0.14210854715E-13 -0.50749376179E+03  0.66223784929E+03  0.42545158452E+03 0.  0.
      99925    2    3    3    0    0  0.47784874868E+02 -0.67045994889E+02 -0.33309727652E+03  0.43236788198E+03  0.26307723209E+03 0.  0.
         25    1    4    4    0    0  0.65045440761E+01 -0.68964472035E+02 -0.15558497022E+03  0.21131161482E+03  0.12509000000E+03 0.  0.
         25    1    3    3    0    0 -0.47784874868E+02  0.67045994889E+02 -0.17439648527E+03  0.22986996731E+03  0.12509000000E+03 0.  0.
         25    1    4    4    0    0  0.41280330792E+02  0.19184771461E+01 -0.17751230630E+03  0.22105626716E+03  0.12509000000E+03 0.  0.
<mgrwt>
<rscale>  2 0.42545158E+03</rscale>
<asrwt>0</asrwt>
<pdfrwt beam="1">  1       21 0.11378242E-01 0.42545158E+03</pdfrwt>
<pdfrwt beam="2">  1       21 0.86009678E-01 0.42545158E+03</pdfrwt>
<totfact> 0.69910072E+04</totfact>
</mgrwt>
</event>
<event>
 7    0  0.4750554E-002  0.4545086E+03  0.7546771E-02  0.1026386E+00
         21   -1    0    0  502  501  0.00000000000E+00  0.00000000000E+00  0.73162641124E+03  0.73162641124E+03  0.00000000000E+00 0. -1.
         21   -1    0    0  501  502 -0.00000000000E+00 -0.00000000000E+00 -0.70588658317E+02  0.70588658317E+02  0.00000000000E+00 0. -1.
      99926    2    1    2    0    0  0.00000000000E+00 -0.14210854715E-13  0.66103775292E+03  0.80221506956E+03  0.45450864352E+03 0.  0.
      99925    2    3    3    0    0  0.53945879400E+02  0.96248024479E+02  0.38037601609E+03  0.47573021732E+03  0.26355167602E+03 0.  0.
         25    1    4    4    0    0  0.23889867919E+02  0.45405321430E+01  0.18057079606E+03  0.22100828652E+03  0.12509000000E+03 0.  0.
         25    1    3    3    0    0 -0.53945879400E+02 -0.96248024479E+02  0.28066173683E+03  0.32648485224E+03  0.12509000000E+03 0.  0.
         25    1    4    4    0    0  0.30056011481E+02  0.91707492336E+02  0.19980522003E+03  0.25472193080E+03  0.12509000000E+03 0.  0.
<mgrwt>
<rscale>  2 0.45450864E+03</rscale>
<asrwt>0</asrwt>
<pdfrwt beam="1">  1       21 0.10759211E+00 0.45450864E+03</pdfrwt>
<pdfrwt beam="2">  1       21 0.10380685E-01 0.45450864E+03</pdfrwt>
<totfact> 0.47842066E+04</totfact>
</mgrwt>
</event>
<event>
 7    0  0.4750554E-002  0.4432653E+03  0.7546771E-02  0.1029750E+00
         21   -1    0    0  502  501  0.00000000000E+00  0.00000000000E+00  0.40657031627E+03  0.40657031627E+03  0.00000000000E+00 0.  1.
         21   -1    0    0  501  502 -0.00000000000E+00 -0.00000000000E+00 -0.12081804170E+03  0.12081804170E+03  0.00000000000E+00 0.  1.
      99926    2    1    2    0    0  0.00000000000E+00 -0.35527136788E-14  0.28575227457E+03  0.52738835798E+03  0.44326529044E+03 0.  0.
      99925    2    3    3    0    0  0.95201797263E+02  0.22885669660E+02  0.21481321981E+03  0.35341424017E+03  0.26300146324E+03 0.  0.
         25    1    3    3    0    0 -0.95201797263E+02 -0.22885669660E+02  0.70939054755E+02  0.17397411781E+03  0.12509000000E+03 0.  0.
         25    1    4    4    0    0  0.56595383117E+02 -0.28052783590E+02  0.10470873655E+03  0.17493262608E+03  0.12509000000E+03 0.  0.
         25    1    4    4    0    0  0.38606414146E+02  0.50938453250E+02  0.11010448326E+03  0.17848161409E+03  0.12509000000E+03 0.  0.
<mgrwt>
<rscale>  2 0.44326529E+03</rscale>
<asrwt>0</asrwt>
<pdfrwt beam="1">  1       21 0.59789752E-01 0.44326529E+03</pdfrwt>
<pdfrwt beam="2">  1       21 0.17767359E-01 0.44326529E+03</pdfrwt>
<totfact> 0.69632508E+04</totfact>
</mgrwt>
</event>
<event>
 7    0  0.4750554E-002  0.4524575E+03  0.7546771E-02  0.1026992E+00
         21   -1    0    0  502  501  0.00000000000E+00  0.00000000000E+00  0.11860334374E+03  0.11860334374E+03  0.00000000000E+00 0. -1.
         21   -1    0    0  501  502 -0.00000000000E+00 -0.00000000000E+00 -0.43151767495E+03  0.43151767495E+03  0.00000000000E+00 0. -1.
      99926    2    1    2    0    0  0.00000000000E+00  0.00000000000E+00 -0.31291433121E+03  0.55012101868E+03  0.45245746377E+03 0.  0.
      99925    2    3    3    0    0 -0.36624424151E+02 -0.10276137604E+03 -0.22057674787E+03  0.36018685575E+03  0.26301942990E+03 0.  0.
         25    1    4    4    0    0 -0.93515838889E+01 -0.18640918283E+02 -0.67665396974E+02  0.14373952137E+03  0.12509000000E+03 0.  0.
         25    1    4    4    0    0 -0.27272840262E+02 -0.84120457759E+02 -0.15291135090E+03  0.21644733438E+03  0.12509000000E+03 0.  0.
         25    1    3    3    0    0  0.36624424151E+02  0.10276137604E+03 -0.92337583340E+02  0.18993416293E+03  0.12509000000E+03 0.  0.
<mgrwt>
<rscale>  2 0.45245746E+03</rscale>
<asrwt>0</asrwt>
<pdfrwt beam="1">  1       21 0.17441668E-01 0.45245746E+03</pdfrwt>
<pdfrwt beam="2">  1       21 0.63458481E-01 0.45245746E+03</pdfrwt>
<totfact> 0.63118669E+04</totfact>
</mgrwt>
</event>
<event>
 7    0  0.4750554E-002  0.4543730E+03  0.7546771E-02  0.1026426E+00
         21   -1    0    0  502  501  0.00000000000E+00  0.00000000000E+00  0.40982122775E+03  0.40982122775E+03  0.00000000000E+00 0.  1.
         21   -1    0    0  501  502 -0.00000000000E+00 -0.00000000000E+00 -0.12594201088E+03  0.12594201088E+03  0.00000000000E+00 0.  1.
      99926    2    1    2    0    0  0.00000000000E+00  0.14210854715E-13  0.28387921687E+03  0.53576323863E+03  0.45437301647E+03 0.  0.
      99925    2    3    3    0    0 -0.55991468227E+02 -0.96251335247E+02  0.15937559896E+03  0.32708160785E+03  0.26302553602E+03 0.  0.
         25    1    3    3    0    0  0.55991468227E+02  0.96251335247E+02  0.12450361791E+03  0.20868163078E+03  0.12509000000E+03 0.  0.
         25    1    4    4    0    0 -0.45417670554E+02 -0.78656093437E+02  0.59278081753E+02  0.16556251058E+03  0.12509000000E+03 0.  0.
         25    1    4    4    0    0 -0.10573797673E+02 -0.17595241810E+02  0.10009751721E+03  0.16151909727E+03  0.12509000000E+03 0.  0.
<mgrwt>
<rscale>  2 0.45437302E+03</rscale>
<asrwt>0</asrwt>
<pdfrwt beam="1">  1       21 0.60267827E-01 0.45437302E+03</pdfrwt>
<pdfrwt beam="2">  1       21 0.18520884E-01 0.45437302E+03</pdfrwt>
<totfact> 0.63129900E+04</totfact>
</mgrwt>
</event>
<event>
 7    0  0.4750554E-002  0.4551770E+03  0.7546771E-02  0.1026189E+00
         21   -1    0    0  502  501  0.00000000000E+00  0.00000000000E+00  0.67006501350E+03  0.67006501350E+03  0.00000000000E+00 0.  1.
         21   -1    0    0  501  502 -0.00000000000E+00 -0.00000000000E+00 -0.77300750792E+02  0.77300750792E+02  0.00000000000E+00 0.  1.
      99926    2    1    2    0    0  0.00000000000E+00 -0.88817841970E-15  0.59276426270E+03  0.74736576429E+03  0.45517701446E+03 0.  0.
      99925    2    3    3    0    0 -0.10070394404E+03 -0.46219002371E+01  0.28766943540E+03  0.40255711003E+03  0.26293701996E+03 0.  0.
         25    1    4    4    0    0 -0.19317164943E+02 -0.10169587408E+01  0.17278913653E+03  0.21419099157E+03  0.12509000000E+03 0.  0.
         25    1    4    4    0    0 -0.81386779092E+02 -0.36049414963E+01  0.11488029887E+03  0.18836611846E+03  0.12509000000E+03 0.  0.
         25    1    3    3    0    0  0.10070394404E+03  0.46219002371E+01  0.30509482730E+03  0.34480865426E+03  0.12509000000E+03 0.  0.
<mgrwt>
<rscale>  2 0.45517701E+03</rscale>
<asrwt>0</asrwt>
<pdfrwt beam="1">  1       21 0.98538970E-01 0.45517701E+03</pdfrwt>
<pdfrwt beam="2">  1       21 0.11367758E-01 0.45517701E+03</pdfrwt>
<totfact> 0.50335525E+04</totfact>
</mgrwt>
</event>
<event>
 7    0  0.4750554E-002  0.4529028E+03  0.7546771E-02  0.1026860E+00
         21   -1    0    0  502  501  0.00000000000E+00  0.00000000000E+00  0.89394981938E+02  0.89394981938E+02  0.00000000000E+00 0.  1.
         21   -1    0    0  501  502 -0.00000000000E+00 -0.00000000000E+00 -0.57363672307E+03  0.57363672307E+03  0.00000000000E+00 0.  1.
      99926    2    1    2    0    0  0.14210854715E-13  0.00000000000E+00 -0.48424174113E+03  0.66303170501E+03  0.45290283505E+03 0.  0.
      99925    2    3    3    0    0 -0.54371239261E+02  0.62055305356E+02 -0.19642958035E+03  0.33854682004E+03  0.26310126708E+03 0.  0.
         25    1    3    3    0    0  0.54371239261E+02 -0.62055305356E+02 -0.28781216078E+03  0.32448488497E+03  0.12509000000E+03 0.  0.
         25    1    4    4    0    0 -0.65620189916E+02  0.19097091522E+02 -0.11140422469E+03  0.18091190566E+03  0.12509000000E+03 0.  0.
         25    1    4    4    0    0  0.11248950655E+02  0.42958213834E+02 -0.85025355657E+02  0.15763491438E+03  0.12509000000E+03 0.  0.
<mgrwt>
<rscale>  2 0.45290284E+03</rscale>
<asrwt>0</asrwt>
<pdfrwt beam="1">  1       21 0.13146321E-01 0.45290284E+03</pdfrwt>
<pdfrwt beam="2">  1       21 0.84358343E-01 0.45290284E+03</pdfrwt>
<totfact> 0.55874346E+04</totfact>
</mgrwt>
</event>
<event>
 7    0  0.4750554E-002  0.4519757E+03  0.7546771E-02  0.1027134E+00
         21   -1    0    0  502  501  0.00000000000E+00  0.00000000000E+00  0.62672377307E+02  0.62672377307E+02  0.00000000000E+00 0. -1.
         21   -1    0    0  501  502 -0.00000000000E+00 -0.00000000000E+00 -0.81488072619E+03  0.81488072619E+03  0.00000000000E+00 0. -1.
      99926    2    1    2    0    0  0.00000000000E+00  0.00000000000E+00 -0.75220834888E+03  0.87755310349E+03  0.45197571763E+03 0.  0.
      99925    2    3    3    0    0 -0.62663462742E+02 -0.37989425700E+02 -0.31434229210E+03  0.41631119537E+03  0.26293350635E+03 0.  0.
         25    1    4    4    0    0 -0.91861772399E+01 -0.21902207247E+01 -0.10240413939E+03  0.16193609475E+03  0.12509000000E+03 0.  0.
         25    1    3    3    0    0  0.62663462742E+02  0.37989425700E+02 -0.43786605678E+03  0.46124190813E+03  0.12509000000E+03 0.  0.
         25    1    4    4    0    0 -0.53477285502E+02 -0.35799204975E+02 -0.21193815270E+03  0.25437510061E+03  0.12509000000E+03 0.  0.
<mgrwt>
<rscale>  2 0.45197572E+03</rscale>
<asrwt>0</asrwt>
<pdfrwt beam="1">  1       21 0.92165269E-02 0.45197572E+03</pdfrwt>
<pdfrwt beam="2">  1       21 0.11983539E+00 0.45197572E+03</pdfrwt>
<totfact> 0.45281565E+04</totfact>
</mgrwt>
</event>
<event>
 7    0  0.4750554E-002  0.4537235E+03  0.7546771E-02  0.1026617E+00
         21   -1    0    0  502  501  0.00000000000E+00  0.00000000000E+00  0.95195315242E+02  0.95195315242E+02  0.00000000000E+00 0. -1.
         21   -1    0    0  501  502 -0.00000000000E+00 -0.00000000000E+00 -0.54063861579E+03  0.54063861579E+03  0.00000000000E+00 0. -1.
      99926    2    1    2    0    0  0.00000000000E+00 -0.14210854715E-13 -0.44544330054E+03  0.63583393103E+03  0.45372354341E+03 0.  0.
      99925    2    3    3    0    0  0.47532053182E+02 -0.82474919080E+02 -0.36314252985E+03  0.45840131477E+03  0.26305486127E+03 0.  0.
         25    1    4    4    0    0  0.45018605799E+02 -0.99387987538E+01 -0.20030436206E+03  0.24061338314E+03  0.12509000000E+03 0.  0.
         25    1    3    3    0    0 -0.47532053182E+02  0.82474919080E+02 -0.82300770692E+02  0.17743261626E+03  0.12509000000E+03 0.  0.
         25    1    4    4    0    0  0.25134473835E+01 -0.72536120326E+02 -0.16283816779E+03  0.21778793162E+03  0.12509000000E+03 0.  0.
<mgrwt>
<rscale>  2 0.45372354E+03</rscale>
<asrwt>0</asrwt>
<pdfrwt beam="1">  1       21 0.13999311E-01 0.45372354E+03</pdfrwt>
<pdfrwt beam="2">  1       21 0.79505677E-01 0.45372354E+03</pdfrwt>
<totfact> 0.57098128E+04</totfact>
</mgrwt>
</event>
<event>
 7    0  0.4750554E-002  0.4452086E+03  0.7546771E-02  0.1029161E+00
         21   -1    0    0  502  501  0.00000000000E+00  0.00000000000E+00  0.83706117536E+02  0.83706117536E+02  0.00000000000E+00 0. -1.
         21   -1    0    0  501  502 -0.00000000000E+00 -0.00000000000E+00 -0.59198403145E+03  0.59198403145E+03  0.00000000000E+00 0. -1.
      99926    2    1    2    0    0 -0.71054273576E-14  0.00000000000E+00 -0.50827791391E+03  0.67569014899E+03  0.44520864734E+03 0.  0.
      99925    2    3    3    0    0  0.54833430534E+02 -0.64290260173E+02 -0.23108253216E+03  0.36005629399E+03  0.26287155706E+03 0.  0.
         25    1    4    4    0    0  0.45580353840E+02 -0.61557976821E+02 -0.93929394547E+02  0.17417575155E+03  0.12509000000E+03 0.  0.
         25    1    3    3    0    0 -0.54833430534E+02  0.64290260173E+02 -0.27719538175E+03  0.31563385500E+03  0.12509000000E+03 0.  0.
         25    1    4    4    0    0  0.92530766942E+01 -0.27322833524E+01 -0.13715313762E+03  0.18588054244E+03  0.12509000000E+03 0.  0.
<mgrwt>
<rscale>  2 0.44520865E+03</rscale>
<asrwt>0</asrwt>
<pdfrwt beam="1">  1       21 0.12309723E-01 0.44520865E+03</pdfrwt>
<pdfrwt beam="2">  1       21 0.87056476E-01 0.44520865E+03</pdfrwt>
<totfact> 0.58635482E+04</totfact>
</mgrwt>
</event>
<event>
 7    0  0.4750554E-002  0.4451305E+03  0.7546771E-02  0.1029184E+00
         21   -1    0    0  502  501  0.00000000000E+00  0.00000000000E+00  0.19622370384E+03  0.19622370384E+03  0.00000000000E+00 0.  1.
         21   -1    0    0  501  502 -0.00000000000E+00 -0.00000000000E+00 -0.25244289733E+03  0.25244289733E+03  0.00000000000E+00 0.  1.
      99926    2    1    2    0    0 -0.14210854715E-13 -0.17763568394E-14 -0.56219193490E+02  0.44866660116E+03  0.44513045423E+03 0.  0.
      99925    2    3    3    0    0  0.91810220929E+02  0.10621123879E+02 -0.83038550017E+02  0.29084166358E+03  0.26296681833E+03 0.  0.
         25    1    3    3    0    0 -0.91810220929E+02 -0.10621123879E+02  0.26819356527E+02  0.15782493759E+03  0.12509000000E+03 0.  0.
         25    1    4    4    0    0  0.33569727783E+02 -0.29217606701E+02 -0.58726287432E+02  0.14517878667E+03  0.12509000000E+03 0.  0.
         25    1    4    4    0    0  0.58240493146E+02  0.39838730580E+02 -0.24312262585E+02  0.14566287690E+03  0.12509000000E+03 0.  0.
<mgrwt>
<rscale>  2 0.44513045E+03</rscale>
<asrwt>0</asrwt>
<pdfrwt beam="1">  1       21 0.28856427E-01 0.44513045E+03</pdfrwt>
<pdfrwt beam="2">  1       21 0.37123955E-01 0.44513045E+03</pdfrwt>
<totfact> 0.74725052E+04</totfact>
</mgrwt>
</event>
<event>
 7    0  0.4750554E-002  0.4592577E+03  0.7546771E-02  0.1024997E+00
         21   -1    0    0  502  501  0.00000000000E+00  0.00000000000E+00  0.58891868224E+03  0.58891868224E+03  0.00000000000E+00 0. -1.
         21   -1    0    0  501  502 -0.00000000000E+00 -0.00000000000E+00 -0.89535964374E+02  0.89535964374E+02  0.00000000000E+00 0. -1.
      99926    2    1    2    0    0  0.00000000000E+00  0.00000000000E+00  0.49938271787E+03  0.67845464662E+03  0.45925767126E+03 0.  0.
      99925    2    3    3    0    0  0.50744780562E+02 -0.16719918854E+02  0.15910317354E+03  0.31199555637E+03  0.26300726020E+03 0.  0.
         25    1    3    3    0    0 -0.50744780562E+02  0.16719918854E+02  0.34027954433E+03  0.36645909025E+03  0.12509000000E+03 0.  0.
         25    1    4    4    0    0 -0.32337735625E+01 -0.85045265478E+01  0.42327738700E+02  0.13237042656E+03  0.12509000000E+03 0.  0.
         25    1    4    4    0    0  0.53978554124E+02 -0.82153923063E+01  0.11677543484E+03  0.17962512981E+03  0.12509000000E+03 0.  0.
<mgrwt>
<rscale>  2 0.45925767E+03</rscale>
<asrwt>0</asrwt>
<pdfrwt beam="1">  1       21 0.86605686E-01 0.45925767E+03</pdfrwt>
<pdfrwt beam="2">  1       21 0.13167054E-01 0.45925767E+03</pdfrwt>
<totfact> 0.52311524E+04</totfact>
</mgrwt>
</event>
<event>
 7    0  0.4750554E-002  0.4461482E+03  0.7546771E-02  0.1028877E+00
         21   -1    0    0  502  501  0.00000000000E+00  0.00000000000E+00  0.56924465713E+02  0.56924465713E+02  0.00000000000E+00 0.  1.
         21   -1    0    0  501  502 -0.00000000000E+00 -0.00000000000E+00 -0.87417672593E+03  0.87417672593E+03  0.00000000000E+00 0.  1.
      99926    2    1    2    0    0  0.14210854715E-13  0.00000000000E+00 -0.81725226021E+03  0.93110119164E+03  0.44614815056E+03 0.  0.
      99925    2    3    3    0    0  0.67779940699E+02  0.48353484140E+02 -0.65080811392E+03  0.70686171759E+03  0.26300210427E+03 0.  0.
         25    1    4    4    0    0 -0.33016354414E+01  0.25505382809E+02 -0.25719477888E+03  0.28715516317E+03  0.12509000000E+03 0.  0.
         25    1    3    3    0    0 -0.67779940699E+02 -0.48353484140E+02 -0.16644414629E+03  0.22423947405E+03  0.12509000000E+03 0.  0.
         25    1    4    4    0    0  0.71081576141E+02  0.22848101330E+02 -0.39361333504E+03  0.41970655442E+03  0.12509000000E+03 0.  0.
<mgrwt>
<rscale>  2 0.44614815E+03</rscale>
<asrwt>0</asrwt>
<pdfrwt beam="1">  1       21 0.83712449E-02 0.44614815E+03</pdfrwt>
<pdfrwt beam="2">  1       21 0.12855540E+00 0.44614815E+03</pdfrwt>
<totfact> 0.44947835E+04</totfact>
</mgrwt>
</event>
<event>
 7    0  0.4750554E-002  0.4273083E+03  0.7546771E-02  0.1034714E+00
         21   -1    0    0  502  501  0.00000000000E+00  0.00000000000E+00  0.58608791142E+02  0.58608791142E+02  0.00000000000E+00 0.  1.
         21   -1    0    0  501  502 -0.00000000000E+00 -0.00000000000E+00 -0.77886094446E+03  0.77886094446E+03  0.00000000000E+00 0.  1.
      99926    2    1    2    0    0 -0.35527136788E-14  0.00000000000E+00 -0.72025215331E+03  0.83746973560E+03  0.42730831222E+03 0.  0.
      99925    2    3    3    0    0 -0.27641728660E+02 -0.68092842873E+02 -0.37807713550E+03  0.46580866509E+03  0.26198223542E+03 0.  0.
         25    1    4    4    0    0 -0.17390207098E+02 -0.47061315269E+02 -0.13135088962E+03  0.18819604406E+03  0.12509000000E+03 0.  0.
         25    1    4    4    0    0 -0.10251521561E+02 -0.21031527604E+02 -0.24672624588E+03  0.27761262102E+03  0.12509000000E+03 0.  0.
         25    1    3    3    0    0  0.27641728660E+02  0.68092842873E+02 -0.34217501782E+03  0.37166107051E+03  0.12509000000E+03 0.  0.
<mgrwt>
<rscale>  2 0.42730831E+03</rscale>
<asrwt>0</asrwt>
<pdfrwt beam="1">  1       21 0.86189407E-02 0.42730831E+03</pdfrwt>
<pdfrwt beam="2">  1       21 0.11453836E+00 0.42730831E+03</pdfrwt>
<totfact> 0.57517806E+04</totfact>
</mgrwt>
</event>
<event>
 7    0  0.4750554E-002  0.4333116E+03  0.7546771E-02  0.1032819E+00
         21   -1    0    0  502  501  0.00000000000E+00  0.00000000000E+00  0.99653680727E+02  0.99653680727E+02  0.00000000000E+00 0. -1.
         21   -1    0    0  501  502 -0.00000000000E+00 -0.00000000000E+00 -0.47102866374E+03  0.47102866374E+03  0.00000000000E+00 0. -1.
      99926    2    1    2    0    0  0.00000000000E+00  0.00000000000E+00 -0.37137498302E+03  0.57068234447E+03  0.43331162029E+03 0.  0.
      99925    2    3    3    0    0  0.41184976137E+02  0.58176885197E+02 -0.31190625548E+03  0.41491074923E+03  0.26416787349E+03 0.  0.
         25    1    4    4    0    0  0.36440941248E+02 -0.71969415872E+01 -0.12546130874E+03  0.18101874560E+03  0.12509000000E+03 0.  0.
         25    1    4    4    0    0  0.47440348885E+01  0.65373826784E+02 -0.18644494674E+03  0.23389200362E+03  0.12509000000E+03 0.  0.
         25    1    3    3    0    0 -0.41184976137E+02 -0.58176885197E+02 -0.59468727536E+02  0.15577159525E+03  0.12509000000E+03 0.  0.
<mgrwt>
<rscale>  2 0.43331162E+03</rscale>
<asrwt>0</asrwt>
<pdfrwt beam="1">  1       21 0.14654953E-01 0.43331162E+03</pdfrwt>
<pdfrwt beam="2">  1       21 0.69268922E-01 0.43331162E+03</pdfrwt>
<totfact> 0.72114364E+04</totfact>
</mgrwt>
</event>
<event>
 7    0  0.4750554E-002  0.4472578E+03  0.7546771E-02  0.1028543E+00
         21   -1    0    0  502  501  0.00000000000E+00  0.00000000000E+00  0.30379924679E+03  0.30379924679E+03  0.00000000000E+00 0.  1.
         21   -1    0    0  501  502 -0.00000000000E+00 -0.00000000000E+00 -0.16461492153E+03  0.16461492153E+03  0.00000000000E+00 0.  1.
      99926    2    1    2    0    0 -0.14210854715E-13 -0.14210854715E-13  0.13918432525E+03  0.46841416832E+03  0.44725781903E+03 0.  0.
      99925    2    3    3    0    0  0.68356386555E+02  0.77624917969E+02  0.65983655674E+02  0.29035780196E+03  0.26316456234E+03 0.  0.
         25    1    4    4    0    0  0.30405137913E+02  0.57295847028E+02 -0.34554720651E+01  0.14094940541E+03  0.12509000000E+03 0.  0.
         25    1    4    4    0    0  0.37951248642E+02  0.20329070940E+02  0.69439127739E+02  0.14940839655E+03  0.12509000000E+03 0.  0.
         25    1    3    3    0    0 -0.68356386555E+02 -0.77624917969E+02  0.73200669581E+02  0.17805636636E+03  0.12509000000E+03 0.  0.
<mgrwt>
<rscale>  2 0.44725782E+03</rscale>
<asrwt>0</asrwt>
<pdfrwt beam="1">  1       21 0.44676360E-01 0.44725782E+03</pdfrwt>
<pdfrwt beam="2">  1       21 0.24208077E-01 0.44725782E+03</pdfrwt>
<totfact> 0.71868363E+04</totfact>
</mgrwt>
</event>
<event>
 7    0  0.4750554E-002  0.4559668E+03  0.7546771E-02  0.1025957E+00
         21   -1    0    0  502  501  0.00000000000E+00  0.00000000000E+00  0.61658745736E+03  0.61658745736E+03  0.00000000000E+00 0. -1.
         21   -1    0    0  501  502 -0.00000000000E+00 -0.00000000000E+00 -0.84296941297E+02  0.84296941297E+02  0.00000000000E+00 0. -1.
      99926    2    1    2    0    0  0.00000000000E+00  0.00000000000E+00  0.53229051606E+03  0.70088439866E+03  0.45596682641E+03 0.  0.
      99925    2    3    3    0    0  0.92142097140E+02 -0.44159250940E+02  0.41258419633E+03  0.49984381422E+03  0.26301694629E+03 0.  0.
         25    1    4    4    0    0  0.45492932765E+02 -0.39869010161E+02  0.27485770321E+03  0.30798280799E+03  0.12509000000E+03 0.  0.
         25    1    4    4    0    0  0.46649164375E+02 -0.42902407792E+01  0.13772649312E+03  0.19186100623E+03  0.12509000000E+03 0.  0.
         25    1    3    3    0    0 -0.92142097140E+02  0.44159250940E+02  0.11970631973E+03  0.20104058444E+03  0.12509000000E+03 0.  0.
<mgrwt>
<rscale>  2 0.45596683E+03</rscale>
<asrwt>0</asrwt>
<pdfrwt beam="1">  1       21 0.90674624E-01 0.45596683E+03</pdfrwt>
<pdfrwt beam="2">  1       21 0.12396609E-01 0.45596683E+03</pdfrwt>
<totfact> 0.52454718E+04</totfact>
</mgrwt>
</event>
<event>
 7    0  0.4750554E-002  0.4501489E+03  0.7546771E-02  0.1027678E+00
         21   -1    0    0  502  501  0.00000000000E+00  0.00000000000E+00  0.32762024600E+03  0.32762024600E+03  0.00000000000E+00 0.  1.
         21   -1    0    0  501  502 -0.00000000000E+00 -0.00000000000E+00 -0.15462566137E+03  0.15462566137E+03  0.00000000000E+00 0.  1.
      99926    2    1    2    0    0  0.00000000000E+00  0.00000000000E+00  0.17299458463E+03  0.48224590737E+03  0.45014885190E+03 0.  0.
      99925    2    3    3    0    0 -0.46805585674E+02 -0.68546608185E+02  0.18453156304E+03  0.33168027280E+03  0.26281268094E+03 0.  0.
         25    1    3    3    0    0  0.46805585674E+02  0.68546608185E+02 -0.11536978407E+02  0.15056563457E+03  0.12509000000E+03 0.  0.
         25    1    4    4    0    0 -0.28555382901E+01 -0.13571332834E+02  0.51520388525E+02  0.13599335906E+03  0.12509000000E+03 0.  0.
         25    1    4    4    0    0 -0.43950047384E+02 -0.54975275351E+02  0.13301117451E+03  0.19568691374E+03  0.12509000000E+03 0.  0.
<mgrwt>
<rscale>  2 0.45014885E+03</rscale>
<asrwt>0</asrwt>
<pdfrwt beam="1">  1       21 0.48179448E-01 0.45014885E+03</pdfrwt>
<pdfrwt beam="2">  1       21 0.22739068E-01 0.45014885E+03</pdfrwt>
<totfact> 0.69162296E+04</totfact>
</mgrwt>
</event>
<event>
 7    0  0.4750554E-002  0.4538013E+03  0.7546771E-02  0.1026594E+00
         21   -1    0    0  502  501  0.00000000000E+00  0.00000000000E+00  0.18491928471E+03  0.18491928471E+03  0.00000000000E+00 0.  1.
         21   -1    0    0  501  502 -0.00000000000E+00 -0.00000000000E+00 -0.27841290352E+03  0.27841290352E+03  0.00000000000E+00 0.  1.
      99926    2    1    2    0    0  0.00000000000E+00  0.00000000000E+00 -0.93493618812E+02  0.46333218823E+03  0.45380134408E+03 0.  0.
      99925    2    3    3    0    0  0.47649019076E+02  0.68972665520E+02 -0.13480326483E+03  0.30718593447E+03  0.26298977265E+03 0.  0.
         25    1    4    4    0    0  0.50829111837E+02  0.67217410798E+02 -0.70584408186E+02  0.16652761244E+03  0.12509000000E+03 0.  0.
         25    1    3    3    0    0 -0.47649019076E+02 -0.68972665520E+02  0.41309646018E+02  0.15614625376E+03  0.12509000000E+03 0.  0.
         25    1    4    4    0    0 -0.31800927608E+01  0.17552547227E+01 -0.64218856645E+02  0.14065832204E+03  0.12509000000E+03 0.  0.
<mgrwt>
<rscale>  2 0.45380134E+03</rscale>
<asrwt>0</asrwt>
<pdfrwt beam="1">  1       21 0.27194012E-01 0.45380134E+03</pdfrwt>
<pdfrwt beam="2">  1       21 0.40943074E-01 0.45380134E+03</pdfrwt>
<totfact> 0.68585439E+04</totfact>
</mgrwt>
</event>
<event>
 7    0  0.4750554E-002  0.4602820E+03  0.7546771E-02  0.1024699E+00
         21   -1    0    0  502  501  0.00000000000E+00  0.00000000000E+00  0.27909743943E+03  0.27909743943E+03  0.00000000000E+00 0.  1.
         21   -1    0    0  501  502 -0.00000000000E+00 -0.00000000000E+00 -0.18977196642E+03  0.18977196642E+03  0.00000000000E+00 0.  1.
      99926    2    1    2    0    0  0.00000000000E+00  0.00000000000E+00  0.89325473016E+02  0.46886940585E+03  0.46028195665E+03 0.  0.
      99925    2    3    3    0    0  0.28736766762E+02 -0.15127084548E+02  0.17044186902E+03  0.31628497594E+03  0.26444493726E+03 0.  0.
         25    1    4    4    0    0  0.31209897667E+02  0.14647474801E+02  0.12420068570E+03  0.17961604789E+03  0.12509000000E+03 0.  0.
         25    1    3    3    0    0 -0.28736766762E+02  0.15127084548E+02 -0.81116396000E+02  0.15258442991E+03  0.12509000000E+03 0.  0.
         25    1    4    4    0    0 -0.24731309045E+01 -0.29774559349E+02  0.46241183312E+02  0.13666892805E+03  0.12509000000E+03 0.  0.
<mgrwt>
<rscale>  2 0.46028196E+03</rscale>
<asrwt>0</asrwt>
<pdfrwt beam="1">  1       21 0.41043741E-01 0.46028196E+03</pdfrwt>
<pdfrwt beam="2">  1       21 0.27907642E-01 0.46028196E+03</pdfrwt>
<totfact> 0.64761737E+04</totfact>
</mgrwt>
</event>
<event>
 7    0  0.4750554E-002  0.4558616E+03  0.7546771E-02  0.1025988E+00
         21   -1    0    0  502  501  0.00000000000E+00  0.00000000000E+00  0.16818414245E+04  0.16818414245E+04  0.00000000000E+00 0.  1.
         21   -1    0    0  501  502 -0.00000000000E+00 -0.00000000000E+00 -0.30890219304E+02  0.30890219304E+02  0.00000000000E+00 0.  1.
      99926    2    1    2    0    0 -0.14210854715E-13  0.00000000000E+00  0.16509512052E+04  0.17127316438E+04  0.45586160372E+03 0.  0.
      99925    2    3    3    0    0  0.10133762254E+03 -0.25040886825E+02  0.12097579022E+04  0.12424174951E+04  0.26304123337E+03 0.  0.
         25    1    3    3    0    0 -0.10133762254E+03  0.25040886825E+02  0.44119330294E+03  0.47031414864E+03  0.12509000000E+03 0.  0.
         25    1    4    4    0    0  0.75264049975E+02  0.13170360710E+02  0.54199409272E+03  0.56146526185E+03  0.12509000000E+03 0.  0.
         25    1    4    4    0    0  0.26073572567E+02 -0.38211247535E+02  0.66776380952E+03  0.68095223330E+03  0.12509000000E+03 0.  0.
<mgrwt>
<rscale>  2 0.45586160E+03</rscale>
<asrwt>0</asrwt>
<pdfrwt beam="1">  1       21 0.24732956E+00 0.45586160E+03</pdfrwt>
<pdfrwt beam="2">  1       21 0.45426804E-02 0.45586160E+03</pdfrwt>
<totfact> 0.18871562E+04</totfact>
</mgrwt>
</event>
<event>
 7    0  0.4750554E-002  0.4537790E+03  0.7546771E-02  0.1026601E+00
         21   -1    0    0  502  501  0.00000000000E+00  0.00000000000E+00  0.75451642491E+02  0.75451642491E+02  0.00000000000E+00 0. -1.
         21   -1    0    0  501  502 -0.00000000000E+00 -0.00000000000E+00 -0.68227605507E+03  0.68227605507E+03  0.00000000000E+00 0. -1.
      99926    2    1    2    0    0 -0.14210854715E-13  0.00000000000E+00 -0.60682441258E+03  0.75772769756E+03  0.45377901664E+03 0.  0.
      99925    2    3    3    0    0 -0.94687252050E+02 -0.54178939769E+02 -0.33963970770E+03  0.44318643185E+03  0.26297918000E+03 0.  0.
         25    1    4    4    0    0 -0.15260643450E+02 -0.35571871461E+02 -0.12017131880E+03  0.17772703576E+03  0.12509000000E+03 0.  0.
         25    1    4    4    0    0 -0.79426608600E+02 -0.18607068308E+02 -0.21946838890E+03  0.26545939609E+03  0.12509000000E+03 0.  0.
         25    1    3    3    0    0  0.94687252050E+02  0.54178939769E+02 -0.26718470487E+03  0.31454126571E+03  0.12509000000E+03 0.  0.
<mgrwt>
<rscale>  2 0.45377902E+03</rscale>
<asrwt>0</asrwt>
<pdfrwt beam="1">  1       21 0.11095830E-01 0.45377902E+03</pdfrwt>
<pdfrwt beam="2">  1       21 0.10033471E+00 0.45377902E+03</pdfrwt>
<totfact> 0.50357850E+04</totfact>
</mgrwt>
</event>
<event>
 7    0  0.4750554E-002  0.4455687E+03  0.7546771E-02  0.1029052E+00
         21   -1    0    0  502  501  0.00000000000E+00  0.00000000000E+00  0.32786000168E+03  0.32786000168E+03  0.00000000000E+00 0. -1.
         21   -1    0    0  501  502 -0.00000000000E+00 -0.00000000000E+00 -0.15138435917E+03  0.15138435917E+03  0.00000000000E+00 0. -1.
      99926    2    1    2    0    0  0.00000000000E+00  0.00000000000E+00  0.17647564250E+03  0.47924436085E+03  0.44556874331E+03 0.  0.
      99925    2    3    3    0    0  0.55557001955E+02 -0.88416464864E+02  0.10809563000E+03  0.30253163937E+03  0.26255794764E+03 0.  0.
         25    1    4    4    0    0  0.36116438306E+02 -0.44431017489E+02  0.12958813046E+02  0.13818086469E+03  0.12509000000E+03 0.  0.
         25    1    4    4    0    0  0.19440563649E+02 -0.43985447375E+02  0.95136816959E+02  0.16435077468E+03  0.12509000000E+03 0.  0.
         25    1    3    3    0    0 -0.55557001955E+02  0.88416464864E+02  0.68380012500E+02  0.17671272149E+03  0.12509000000E+03 0.  0.
<mgrwt>
<rscale>  2 0.44556874E+03</rscale>
<asrwt>0</asrwt>
<pdfrwt beam="1">  1       21 0.48214706E-01 0.44556874E+03</pdfrwt>
<pdfrwt beam="2">  1       21 0.22262406E-01 0.44556874E+03</pdfrwt>
<totfact> 0.71996234E+04</totfact>
</mgrwt>
</event>
<event>
 7    0  0.4750554E-002  0.4552673E+03  0.7546771E-02  0.1026163E+00
         21   -1    0    0  502  501  0.00000000000E+00  0.00000000000E+00  0.90479785708E+02  0.90479785708E+02  0.00000000000E+00 0. -1.
         21   -1    0    0  501  502 -0.00000000000E+00 -0.00000000000E+00 -0.57269244778E+03  0.57269244778E+03  0.00000000000E+00 0. -1.
      99926    2    1    2    0    0  0.71054273576E-14  0.00000000000E+00 -0.48221266207E+03  0.66317223349E+03  0.45526734981E+03 0.  0.
      99925    2    3    3    0    0  0.56746534333E+02  0.20421041428E+02 -0.16364659212E+03  0.31565383525E+03  0.26309684244E+03 0.  0.
         25    1    4    4    0    0  0.48864648441E+02  0.18610984522E+02 -0.44454651789E+02  0.14268092647E+03  0.12509000000E+03 0.  0.
         25    1    4    4    0    0  0.78818858926E+01  0.18100569061E+01 -0.11919194033E+03  0.17297290878E+03  0.12509000000E+03 0.  0.
         25    1    3    3    0    0 -0.56746534333E+02 -0.20421041428E+02 -0.31856606995E+03  0.34751839824E+03  0.12509000000E+03 0.  0.
<mgrwt>
<rscale>  2 0.45526735E+03</rscale>
<asrwt>0</asrwt>
<pdfrwt beam="1">  1       21 0.13305851E-01 0.45526735E+03</pdfrwt>
<pdfrwt beam="2">  1       21 0.84219476E-01 0.45526735E+03</pdfrwt>
<totfact> 0.54832505E+04</totfact>
</mgrwt>
</event>
<event>
 7    0  0.4750554E-002  0.4554216E+03  0.7546771E-02  0.1026117E+00
         21   -1    0    0  502  501  0.00000000000E+00  0.00000000000E+00  0.41394368169E+03  0.41394368169E+03  0.00000000000E+00 0. -1.
         21   -1    0    0  501  502 -0.00000000000E+00 -0.00000000000E+00 -0.12526394524E+03  0.12526394524E+03  0.00000000000E+00 0. -1.
      99926    2    1    2    0    0  0.00000000000E+00  0.00000000000E+00  0.28867973645E+03  0.53920762692E+03  0.45542164495E+03 0.  0.
      99925    2    3    3    0    0 -0.26198026716E+02 -0.69736098434E+02  0.80854189814E+02  0.28545888118E+03  0.26343863196E+03 0.  0.
         25    1    3    3    0    0  0.26198026716E+02  0.69736098434E+02  0.20782554664E+03  0.25374874574E+03  0.12509000000E+03 0.  0.
         25    1    4    4    0    0  0.43620080649E+01 -0.72594183390E+02  0.49144020276E+02  0.15281225542E+03  0.12509000000E+03 0.  0.
         25    1    4    4    0    0 -0.30560034781E+02  0.28580849561E+01  0.31710169538E+02  0.13264662577E+03  0.12509000000E+03 0.  0.
<mgrwt>
<rscale>  2 0.45542164E+03</rscale>
<asrwt>0</asrwt>
<pdfrwt beam="1">  1       21 0.60874070E-01 0.45542164E+03</pdfrwt>
<pdfrwt beam="2">  1       21 0.18421169E-01 0.45542164E+03</pdfrwt>
<totfact> 0.62376956E+04</totfact>
</mgrwt>
</event>
<event>
 7    0  0.4750554E-002  0.4582310E+03  0.7546771E-02  0.1025296E+00
         21   -1    0    0  502  501  0.00000000000E+00  0.00000000000E+00  0.20291085406E+03  0.20291085406E+03  0.00000000000E+00 0. -1.
         21   -1    0    0  501  502 -0.00000000000E+00 -0.00000000000E+00 -0.25870430286E+03  0.25870430286E+03  0.00000000000E+00 0. -1.
      99926    2    1    2    0    0 -0.88817841970E-15  0.14210854715E-13 -0.55793448804E+02  0.46161515692E+03  0.45823099433E+03 0.  0.
      99925    2    3    3    0    0  0.66572356929E+01  0.10525470403E+03  0.14228884163E+02  0.28364463486E+03  0.26292384112E+03 0.  0.
         25    1    3    3    0    0 -0.66572356929E+01 -0.10525470403E+03 -0.70022332967E+02  0.17797052206E+03  0.12509000000E+03 0.  0.
         25    1    4    4    0    0 -0.13251387978E+02  0.89465347638E+02  0.21201308183E+02  0.15580966363E+03  0.12509000000E+03 0.  0.
         25    1    4    4    0    0  0.19908623671E+02  0.15789356395E+02 -0.69724240200E+01  0.12783497123E+03  0.12509000000E+03 0.  0.
<mgrwt>
<rscale>  2 0.45823099E+03</rscale>
<asrwt>0</asrwt>
<pdfrwt beam="1">  1       21 0.29839832E-01 0.45823099E+03</pdfrwt>
<pdfrwt beam="2">  1       21 0.38044750E-01 0.45823099E+03</pdfrwt>
<totfact> 0.66337120E+04</totfact>
</mgrwt>
</event>
<event>
 7    0  0.4750554E-002  0.4598649E+03  0.7546771E-02  0.1024820E+00
         21   -1    0    0  502  501  0.00000000000E+00  0.00000000000E+00  0.27068545869E+03  0.27068545869E+03  0.00000000000E+00 0. -1.
         21   -1    0    0  501  502 -0.00000000000E+00 -0.00000000000E+00 -0.19531501236E+03  0.19531501236E+03  0.00000000000E+00 0. -1.
      99926    2    1    2    0    0  0.00000000000E+00 -0.35527136788E-14  0.75370446327E+02  0.46600047105E+03  0.45986490934E+03 0.  0.
      99925    2    3    3    0    0  0.14358955848E+01 -0.25874518154E+02  0.16352273217E+03  0.31079130223E+03  0.26302090624E+03 0.  0.
         25    1    3    3    0    0 -0.14358955848E+01  0.25874518154E+02 -0.88152285848E+02  0.15520916882E+03  0.12509000000E+03 0.  0.
         25    1    4    4    0    0  0.17084210042E+01  0.12098864814E+02  0.42587566645E+02  0.13270459738E+03  0.12509000000E+03 0.  0.
         25    1    4    4    0    0 -0.27252541945E+00 -0.37973382968E+02  0.12093516553E+03  0.17808670485E+03  0.12509000000E+03 0.  0.
<mgrwt>
<rscale>  2 0.45986491E+03</rscale>
<asrwt>0</asrwt>
<pdfrwt beam="1">  1       21 0.39806685E-01 0.45986491E+03</pdfrwt>
<pdfrwt beam="2">  1       21 0.28722796E-01 0.45986491E+03</pdfrwt>
<totfact> 0.65178537E+04</totfact>
</mgrwt>
</event>
<event>
 7    0  0.4750554E-002  0.4534257E+03  0.7546771E-02  0.1026705E+00
         21   -1    0    0  502  501  0.00000000000E+00  0.00000000000E+00  0.35166673465E+03  0.35166673465E+03  0.00000000000E+00 0. -1.
         21   -1    0    0  501  502 -0.00000000000E+00 -0.00000000000E+00 -0.14615745662E+03  0.14615745662E+03  0.00000000000E+00 0. -1.
      99926    2    1    2    0    0  0.00000000000E+00  0.00000000000E+00  0.20550927803E+03  0.49782419126E+03  0.45342569628E+03 0.  0.
      99925    2    3    3    0    0  0.54707684760E+02  0.62783649921E+02  0.47777388998E+02  0.27996741632E+03  0.26299117444E+03 0.  0.
         25    1    4    4    0    0  0.26620825488E+02 -0.10000860675E+02  0.26904610770E+02  0.13107269641E+03  0.12509000000E+03 0.  0.
         25    1    3    3    0    0 -0.54707684760E+02 -0.62783649921E+02  0.15773188903E+03  0.21785677494E+03  0.12509000000E+03 0.  0.
         25    1    4    4    0    0  0.28086859272E+02  0.72784510596E+02  0.20872778228E+02  0.14889471991E+03  0.12509000000E+03 0.  0.
<mgrwt>
<rscale>  2 0.45342570E+03</rscale>
<asrwt>0</asrwt>
<pdfrwt beam="1">  1       21 0.51715696E-01 0.45342570E+03</pdfrwt>
<pdfrwt beam="2">  1       21 0.21493744E-01 0.45342570E+03</pdfrwt>
<totfact> 0.66247834E+04</totfact>
</mgrwt>
</event>
<event>
 7    0  0.4750554E-002  0.4450458E+03  0.7546771E-02  0.1029210E+00
         21   -1    0    0  502  501  0.00000000000E+00  0.00000000000E+00  0.20082843767E+03  0.20082843767E+03  0.00000000000E+00 0. -1.
         21   -1    0    0  501  502 -0.00000000000E+00 -0.00000000000E+00 -0.24656089242E+03  0.24656089242E+03  0.00000000000E+00 0. -1.
      99926    2    1    2    0    0  0.00000000000E+00 -0.88817841970E-15 -0.45732454749E+02  0.44738933008E+03  0.44504579007E+03 0.  0.
      99925    2    3    3    0    0  0.11101384839E+02 -0.65034832021E+01  0.74123118597E+02  0.27367000876E+03  0.26312639728E+03 0.  0.
         25    1    4    4    0    0  0.27611775655E+02 -0.27070059934E+02  0.11838390208E+02  0.13146426846E+03  0.12509000000E+03 0.  0.
         25    1    3    3    0    0 -0.11101384839E+02  0.65034832021E+01 -0.11985557335E+03  0.17371932132E+03  0.12509000000E+03 0.  0.
         25    1    4    4    0    0 -0.16510390817E+02  0.20566576732E+02  0.62284728389E+02  0.14220574030E+03  0.12509000000E+03 0.  0.
<mgrwt>
<rscale>  2 0.44504579E+03</rscale>
<asrwt>0</asrwt>
<pdfrwt beam="1">  1       21 0.29533594E-01 0.44504579E+03</pdfrwt>
<pdfrwt beam="2">  1       21 0.36258955E-01 0.44504579E+03</pdfrwt>
<totfact> 0.74879505E+04</totfact>
</mgrwt>
</event>
<event>
 6    0  0.4750554E-002  0.4691222E+03  0.7546771E-02  0.1022168E+00
         21   -1    0    0  502  501  0.00000000000E+00  0.00000000000E+00  0.32911285887E+02  0.32911285887E+02  0.00000000000E+00 0.  1.
         21   -1    0    0  501  502 -0.00000000000E+00 -0.00000000000E+00 -0.16717337978E+04  0.16717337978E+04  0.00000000000E+00 0.  1.
      99926    2    1    2    0    0 -0.15543122345E-14  0.00000000000E+00 -0.16388225119E+04  0.17046450837E+04  0.46912219707E+03 0.  0.
         25    1    3    3    0    0 -0.33594248778E+02  0.80663792868E+02 -0.50734626933E+03  0.52979521150E+03  0.12509000000E+03 0.  0.
         25    1    3    3    0    0  0.11608375503E+01 -0.10893327440E+03 -0.81726030195E+03  0.83392428617E+03  0.12509000000E+03 0.  0.
         25    1    3    3    0    0  0.32433411228E+02  0.28269481534E+02 -0.31421594062E+03  0.34092558600E+03  0.12509000000E+03 0.  0.
<mgrwt>
<rscale>  2 0.46912220E+03</rscale>
<asrwt>0</asrwt>
<pdfrwt beam="1">  1       21 0.48398945E-02 0.46912220E+03</pdfrwt>
<pdfrwt beam="2">  1       21 0.24584323E+00 0.46912220E+03</pdfrwt>
<totfact> 0.17200591E+04</totfact>
</mgrwt>
</event>
<event>
 7    0  0.4750554E-002  0.4536922E+03  0.7546771E-02  0.1026627E+00
         21   -1    0    0  502  501  0.00000000000E+00  0.00000000000E+00  0.27242344926E+03  0.27242344926E+03  0.00000000000E+00 0. -1.
         21   -1    0    0  501  502 -0.00000000000E+00 -0.00000000000E+00 -0.18889399068E+03  0.18889399068E+03  0.00000000000E+00 0. -1.
      99926    2    1    2    0    0  0.35527136788E-14  0.00000000000E+00  0.83529458576E+02  0.46131743993E+03  0.45369219735E+03 0.  0.
      99925    2    3    3    0    0  0.16079697442E+02  0.13117822884E+02  0.16449126214E+03  0.31087490711E+03  0.26297376030E+03 0.  0.
         25    1    4    4    0    0 -0.29470858022E+02  0.73276816253E+01  0.99051312219E+02  0.16242197186E+03  0.12509000000E+03 0.  0.
         25    1    4    4    0    0  0.45550555465E+02  0.57901412584E+01  0.65439949918E+02  0.14845293525E+03  0.12509000000E+03 0.  0.
         25    1    3    3    0    0 -0.16079697442E+02 -0.13117822884E+02 -0.80961803560E+02  0.15044253282E+03  0.12509000000E+03 0.  0.
<mgrwt>
<rscale>  2 0.45369220E+03</rscale>
<asrwt>0</asrwt>
<pdfrwt beam="1">  1       21 0.40062272E-01 0.45369220E+03</pdfrwt>
<pdfrwt beam="2">  1       21 0.27778528E-01 0.45369220E+03</pdfrwt>
<totfact> 0.68796823E+04</totfact>
</mgrwt>
</event>
<event>
 7    0  0.4750554E-002  0.4559189E+03  0.7546771E-02  0.1025972E+00
         21   -1    0    0  502  501  0.00000000000E+00  0.00000000000E+00  0.35294635353E+03  0.35294635353E+03  0.00000000000E+00 0. -1.
         21   -1    0    0  501  502 -0.00000000000E+00 -0.00000000000E+00 -0.14723343194E+03  0.14723343194E+03  0.00000000000E+00 0. -1.
      99926    2    1    2    0    0 -0.17763568394E-14  0.00000000000E+00  0.20571292159E+03  0.50017978547E+03  0.45591886524E+03 0.  0.
      99925    2    3    3    0    0  0.49548383663E+01 -0.90090090931E+02  0.20576125585E+03  0.34594527136E+03  0.26305828529E+03 0.  0.
         25    1    4    4    0    0  0.37215612674E+02 -0.28116905245E+02  0.11609852787E+03  0.17692353846E+03  0.12509000000E+03 0.  0.
         25    1    4    4    0    0 -0.32260774308E+02 -0.61973185686E+02  0.89662727980E+02  0.16902173290E+03  0.12509000000E+03 0.  0.
         25    1    3    3    0    0 -0.49548383663E+01  0.90090090931E+02 -0.48334264179E-01  0.15423451411E+03  0.12509000000E+03 0.  0.
<mgrwt>
<rscale>  2 0.45591887E+03</rscale>
<asrwt>0</asrwt>
<pdfrwt beam="1">  1       21 0.51903875E-01 0.45591887E+03</pdfrwt>
<pdfrwt beam="2">  1       21 0.21651975E-01 0.45591887E+03</pdfrwt>
<totfact> 0.64784203E+04</totfact>
</mgrwt>
</event>
<event>
 7    0  0.4750554E-002  0.4604745E+03  0.7546771E-02  0.1024644E+00
         21   -1    0    0  502  501  0.00000000000E+00  0.00000000000E+00  0.51371306626E+02  0.51371306626E+02  0.00000000000E+00 0. -1.
         21   -1    0    0  501  502 -0.00000000000E+00 -0.00000000000E+00 -0.10318832543E+04  0.10318832543E+04  0.00000000000E+00 0. -1.
      99926    2    1    2    0    0  0.00000000000E+00  0.00000000000E+00 -0.98051194765E+03  0.10832545609E+04  0.46047449900E+03 0.  0.
      99925    2    3    3    0    0  0.29931582833E+02 -0.10211936656E+03 -0.49546432858E+03  0.57115792398E+03  0.26346196795E+03 0.  0.
         25    1    4    4    0    0  0.46307337791E+02 -0.78586385893E+02 -0.29449210060E+03  0.33270601888E+03  0.12509000000E+03 0.  0.
         25    1    3    3    0    0 -0.29931582833E+02  0.10211936656E+03 -0.48504761907E+03  0.51209663692E+03  0.12509000000E+03 0.  0.
         25    1    4    4    0    0 -0.16375754958E+02 -0.23532980665E+02 -0.20097222798E+03  0.23845190511E+03  0.12509000000E+03 0.  0.
<mgrwt>
<rscale>  2 0.46047450E+03</rscale>
<asrwt>0</asrwt>
<pdfrwt beam="1">  1       21 0.75546041E-02 0.46047450E+03</pdfrwt>
<pdfrwt beam="2">  1       21 0.15174753E+00 0.46047450E+03</pdfrwt>
<totfact> 0.34579472E+04</totfact>
</mgrwt>
</event>
<event>
 7    0  0.4750554E-002  0.4454229E+03  0.7546771E-02  0.1029096E+00
         21   -1    0    0  502  501  0.00000000000E+00  0.00000000000E+00  0.14328746120E+04  0.14328746120E+04  0.00000000000E+00 0. -1.
         21   -1    0    0  501  502 -0.00000000000E+00 -0.00000000000E+00 -0.34616009398E+02  0.34616009398E+02  0.00000000000E+00 0. -1.
      99926    2    1    2    0    0  0.00000000000E+00  0.17763568394E-14  0.13982586026E+04  0.14674906214E+04  0.44542294972E+03 0.  0.
      99925    2    3    3    0    0 -0.53736463667E+02 -0.81442965158E+01  0.59574402213E+03  0.65346906329E+03  0.26297707064E+03 0.  0.
         25    1    4    4    0    0 -0.22268041828E+02 -0.24435179641E+02  0.38170811936E+03  0.40304037040E+03  0.12509000000E+03 0.  0.
         25    1    4    4    0    0 -0.31468421839E+02  0.16290883125E+02  0.21403590277E+03  0.25042869289E+03  0.12509000000E+03 0.  0.
         25    1    3    3    0    0  0.53736463667E+02  0.81442965158E+01  0.80251458046E+03  0.81402155810E+03  0.12509000000E+03 0.  0.
<mgrwt>
<rscale>  2 0.44542295E+03</rscale>
<asrwt>0</asrwt>
<pdfrwt beam="1">  1       21 0.21071681E+00 0.44542295E+03</pdfrwt>
<pdfrwt beam="2">  1       21 0.50905906E-02 0.44542295E+03</pdfrwt>
<totfact> 0.26504975E+04</totfact>
</mgrwt>
</event>
<event>
 7    0  0.4750554E-002  0.4548119E+03  0.7546771E-02  0.1026297E+00
         21   -1    0    0  502  501  0.00000000000E+00  0.00000000000E+00  0.38353139163E+02  0.38353139163E+02  0.00000000000E+00 0.  1.
         21   -1    0    0  501  502 -0.00000000000E+00 -0.00000000000E+00 -0.13483504593E+04  0.13483504593E+04  0.00000000000E+00 0.  1.
      99926    2    1    2    0    0  0.14210854715E-13  0.00000000000E+00 -0.13099973202E+04  0.13867035985E+04  0.45481192951E+03 0.  0.
      99925    2    3    3    0    0 -0.66015322421E+02 -0.19365987553E+02 -0.10978196888E+04  0.11309695186E+04  0.26296562247E+03 0.  0.
         25    1    4    4    0    0 -0.20549979528E+02  0.93748295973E+01 -0.67175468673E+03  0.68367540275E+03  0.12509000000E+03 0.  0.
         25    1    4    4    0    0 -0.45465342893E+02 -0.28740817151E+02 -0.42606500208E+03  0.44729411585E+03  0.12509000000E+03 0.  0.
         25    1    3    3    0    0  0.66015322421E+02  0.19365987553E+02 -0.21217763135E+03  0.25573407988E+03  0.12509000000E+03 0.  0.
<mgrwt>
<rscale>  2 0.45481193E+03</rscale>
<asrwt>0</asrwt>
<pdfrwt beam="1">  1       21 0.56401668E-02 0.45481193E+03</pdfrwt>
<pdfrwt beam="2">  1       21 0.19828686E+00 0.45481193E+03</pdfrwt>
<totfact> 0.26727531E+04</totfact>
</mgrwt>
</event>
<event>
 7    0  0.4750554E-002  0.4219978E+03  0.7546771E-02  0.1036418E+00
         21   -1    0    0  502  501  0.00000000000E+00  0.00000000000E+00  0.27878647494E+03  0.27878647494E+03  0.00000000000E+00 0.  1.
         21   -1    0    0  501  502 -0.00000000000E+00 -0.00000000000E+00 -0.15969399285E+03  0.15969399285E+03  0.00000000000E+00 0.  1.
      99926    2    1    2    0    0  0.71054273576E-14  0.00000000000E+00  0.11909248209E+03  0.43848046779E+03  0.42199775040E+03 0.  0.
      99925    2    3    3    0    0  0.44828140759E+02  0.60841332409E+01  0.10956883574E+02  0.26705294769E+03  0.26296510167E+03 0.  0.
         25    1    4    4    0    0  0.59927199837E+02 -0.29707438675E+00 -0.10420558163E+02  0.13909512452E+03  0.12509000000E+03 0.  0.
         25    1    3    3    0    0 -0.44828140759E+02 -0.60841332409E+01  0.10813559851E+03  0.17142752010E+03  0.12509000000E+03 0.  0.
         25    1    4    4    0    0 -0.15099059078E+02  0.63812076277E+01  0.21377441737E+02  0.12795782317E+03  0.12509000000E+03 0.  0.
<mgrwt>
<rscale>  2 0.42199775E+03</rscale>
<asrwt>0</asrwt>
<pdfrwt beam="1">  1       21 0.40998011E-01 0.42199775E+03</pdfrwt>
<pdfrwt beam="2">  1       21 0.23484411E-01 0.42199775E+03</pdfrwt>
<totfact> 0.91580144E+04</totfact>
</mgrwt>
</event>
<event>
 7    0  0.4750554E-002  0.4650195E+03  0.7546771E-02  0.1023335E+00
         21   -1    0    0  502  501  0.00000000000E+00  0.00000000000E+00  0.17077789366E+04  0.17077789366E+04  0.00000000000E+00 0. -1.
         21   -1    0    0  501  502 -0.00000000000E+00 -0.00000000000E+00 -0.31655603263E+02  0.31655603263E+02  0.00000000000E+00 0. -1.
      99926    2    1    2    0    0  0.00000000000E+00  0.00000000000E+00  0.16761233334E+04  0.17394345399E+04  0.46501945111E+03 0.  0.
      99925    2    3    3    0    0  0.99224580502E+02  0.32055562179E+02  0.12840653241E+04  0.13148994210E+04  0.26317988970E+03 0.  0.
         25    1    3    3    0    0 -0.99224580502E+02 -0.32055562179E+02  0.39205800922E+03  0.42453511885E+03  0.12509000000E+03 0.  0.
         25    1    4    4    0    0  0.59960129297E+02 -0.23279669078E+02  0.61918244339E+03  0.63495792491E+03  0.12509000000E+03 0.  0.
         25    1    4    4    0    0  0.39264451205E+02  0.55335231257E+02  0.66488288074E+03  0.67994149612E+03  0.12509000000E+03 0.  0.
<mgrwt>
<rscale>  2 0.46501945E+03</rscale>
<asrwt>0</asrwt>
<pdfrwt beam="1">  1       21 0.25114390E+00 0.46501945E+03</pdfrwt>
<pdfrwt beam="2">  1       21 0.46552369E-02 0.46501945E+03</pdfrwt>
<totfact> 0.17084722E+04</totfact>
</mgrwt>
</event>
<event>
 7    0  0.4750554E-002  0.4635922E+03  0.7546771E-02  0.1023744E+00
         21   -1    0    0  502  501  0.00000000000E+00  0.00000000000E+00  0.54627613874E+03  0.54627613874E+03  0.00000000000E+00 0.  1.
         21   -1    0    0  501  502 -0.00000000000E+00 -0.00000000000E+00 -0.98355825632E+02  0.98355825632E+02  0.00000000000E+00 0.  1.
      99926    2    1    2    0    0 -0.14210854715E-13  0.00000000000E+00  0.44792031311E+03  0.64463196437E+03  0.46359223742E+03 0.  0.
      99925    2    3    3    0    0  0.78850335593E+02 -0.73156818209E+02  0.35699278912E+03  0.45625835106E+03  0.26298010563E+03 0.  0.
         25    1    4    4    0    0  0.66111135774E+01 -0.55041285567E+02  0.19808204874E+03  0.24074313297E+03  0.12509000000E+03 0.  0.
         25    1    4    4    0    0  0.72239222016E+02 -0.18115532641E+02  0.15891074038E+03  0.21551521809E+03  0.12509000000E+03 0.  0.
         25    1    3    3    0    0 -0.78850335593E+02  0.73156818209E+02  0.90927523989E+02  0.18837361331E+03  0.12509000000E+03 0.  0.
<mgrwt>
<rscale>  2 0.46359224E+03</rscale>
<asrwt>0</asrwt>
<pdfrwt beam="1">  1       21 0.80334725E-01 0.46359224E+03</pdfrwt>
<pdfrwt beam="2">  1       21 0.14464092E-01 0.46359224E+03</pdfrwt>
<totfact> 0.52369754E+04</totfact>
</mgrwt>
</event>
<event>
 7    0  0.4750554E-002  0.4515800E+03  0.7546771E-02  0.1027252E+00
         21   -1    0    0  502  501  0.00000000000E+00  0.00000000000E+00  0.21082840004E+03  0.21082840004E+03  0.00000000000E+00 0.  1.
         21   -1    0    0  501  502 -0.00000000000E+00 -0.00000000000E+00 -0.24181335940E+03  0.24181335940E+03  0.00000000000E+00 0.  1.
      99926    2    1    2    0    0  0.00000000000E+00  0.14210854715E-13 -0.30984959359E+02  0.45264175944E+03  0.45157999810E+03 0.  0.
      99925    2    3    3    0    0 -0.40824995886E+02 -0.81461000742E+02 -0.81201048806E+02  0.28994038062E+03  0.26300045448E+03 0.  0.
         25    1    4    4    0    0 -0.21580667116E+02 -0.83124540926E+02 -0.42083052880E+02  0.15746080762E+03  0.12509000000E+03 0.  0.
         25    1    4    4    0    0 -0.19244328770E+02  0.16635401839E+01 -0.39117995926E+02  0.13247957300E+03  0.12509000000E+03 0.  0.
         25    1    3    3    0    0  0.40824995886E+02  0.81461000742E+02  0.50216089447E+02  0.16270137882E+03  0.12509000000E+03 0.  0.
<mgrwt>
<rscale>  2 0.45158000E+03</rscale>
<asrwt>0</asrwt>
<pdfrwt beam="1">  1       21 0.31004177E-01 0.45158000E+03</pdfrwt>
<pdfrwt beam="2">  1       21 0.35560788E-01 0.45158000E+03</pdfrwt>
<totfact> 0.70626568E+04</totfact>
</mgrwt>
</event>
<event>
 7    0  0.4750554E-002  0.4514927E+03  0.7546771E-02  0.1027278E+00
         21   -1    0    0  502  501  0.00000000000E+00  0.00000000000E+00  0.19775647365E+02  0.19775647365E+02  0.00000000000E+00 0.  1.
         21   -1    0    0  501  502 -0.00000000000E+00 -0.00000000000E+00 -0.25769777586E+04  0.25769777586E+04  0.00000000000E+00 0.  1.
      99926    2    1    2    0    0 -0.35527136788E-14 -0.14210854715E-13 -0.25572021112E+04  0.25967534060E+04  0.45149265075E+03 0.  0.
      99925    2    3    3    0    0 -0.26496602684E+02 -0.99798814452E+02 -0.13992822293E+04  0.14275280922E+04  0.26302817986E+03 0.  0.
         25    1    3    3    0    0  0.26496602684E+02  0.99798814452E+02 -0.11579198819E+04  0.11692253138E+04  0.12509000000E+03 0.  0.
         25    1    4    4    0    0  0.94139505561E+01 -0.13271276123E+02 -0.64770517573E+03  0.65987442139E+03  0.12509000000E+03 0.  0.
         25    1    4    4    0    0 -0.35910553240E+02 -0.86527538329E+02 -0.75157705360E+03  0.76765367082E+03  0.12509000000E+03 0.  0.
<mgrwt>
<rscale>  2 0.45149265E+03</rscale>
<asrwt>0</asrwt>
<pdfrwt beam="1">  1       21 0.29081843E-02 0.45149265E+03</pdfrwt>
<pdfrwt beam="2">  1       21 0.37896721E+00 0.45149265E+03</pdfrwt>
<totfact> 0.63635219E+03</totfact>
</mgrwt>
</event>
<event>
 7    0  0.4750554E-002  0.4503613E+03  0.7546771E-02  0.1027614E+00
         21   -1    0    0  502  501  0.00000000000E+00  0.00000000000E+00  0.13153592353E+03  0.13153592353E+03  0.00000000000E+00 0.  1.
         21   -1    0    0  501  502 -0.00000000000E+00 -0.00000000000E+00 -0.38549404927E+03  0.38549404927E+03  0.00000000000E+00 0.  1.
      99926    2    1    2    0    0  0.00000000000E+00  0.00000000000E+00 -0.25395812574E+03  0.51702997279E+03  0.45036125848E+03 0.  0.
      99925    2    3    3    0    0  0.30583635858E+02  0.62836815536E+02 -0.64888330165E+02  0.27979860921E+03  0.26304551347E+03 0.  0.
         25    1    3    3    0    0 -0.30583635858E+02 -0.62836815536E+02 -0.18906979558E+03  0.23723136358E+03  0.12509000000E+03 0.  0.
         25    1    4    4    0    0  0.48108900694E+02  0.53808483230E+02 -0.21927498920E+02  0.14607581080E+03  0.12509000000E+03 0.  0.
         25    1    4    4    0    0 -0.17525264836E+02  0.90283323060E+01 -0.42960831245E+02  0.13372279840E+03  0.12509000000E+03 0.  0.
<mgrwt>
<rscale>  2 0.45036126E+03</rscale>
<asrwt>0</asrwt>
<pdfrwt beam="1">  1       21 0.19343518E-01 0.45036126E+03</pdfrwt>
<pdfrwt beam="2">  1       21 0.56690302E-01 0.45036126E+03</pdfrwt>
<totfact> 0.66504120E+04</totfact>
</mgrwt>
</event>
<event>
 7    0  0.4750554E-002  0.4546157E+03  0.7546771E-02  0.1026354E+00
         21   -1    0    0  502  501  0.00000000000E+00  0.00000000000E+00  0.29956217385E+02  0.29956217385E+02  0.00000000000E+00 0.  1.
         21   -1    0    0  501  502 -0.00000000000E+00 -0.00000000000E+00 -0.17248127487E+04  0.17248127487E+04  0.00000000000E+00 0.  1.
      99926    2    1    2    0    0 -0.35527136788E-14  0.00000000000E+00 -0.16948565313E+04  0.17547689660E+04  0.45461573069E+03 0.  0.
      99925    2    3    3    0    0 -0.22805627194E+02  0.10290141780E+03 -0.91247525510E+03  0.95547129444E+03  0.26306939183E+03 0.  0.
         25    1    4    4    0    0  0.24456195153E+02  0.29536971461E+02 -0.42912382171E+03  0.44862601421E+03  0.12509000000E+03 0.  0.
         25    1    3    3    0    0  0.22805627194E+02 -0.10290141780E+03 -0.78238127617E+03  0.79929767160E+03  0.12509000000E+03 0.  0.
         25    1    4    4    0    0 -0.47261822347E+02  0.73364446341E+02 -0.48335143339E+03  0.50684528023E+03  0.12509000000E+03 0.  0.
<mgrwt>
<rscale>  2 0.45461573E+03</rscale>
<asrwt>0</asrwt>
<pdfrwt beam="1">  1       21 0.44053250E-02 0.45461573E+03</pdfrwt>
<pdfrwt beam="2">  1       21 0.25364900E+00 0.45461573E+03</pdfrwt>
<totfact> 0.18199201E+04</totfact>
</mgrwt>
</event>
<event>
 7    0  0.4750554E-002  0.4366314E+03  0.7546771E-02  0.1031785E+00
         21   -1    0    0  502  501  0.00000000000E+00  0.00000000000E+00  0.31053646926E+03  0.31053646926E+03  0.00000000000E+00 0.  1.
         21   -1    0    0  501  502 -0.00000000000E+00 -0.00000000000E+00 -0.15348192272E+03  0.15348192272E+03  0.00000000000E+00 0.  1.
      99926    2    1    2    0    0  0.00000000000E+00  0.00000000000E+00  0.15705454654E+03  0.46401839198E+03  0.43663135195E+03 0.  0.
      99925    2    3    3    0    0  0.19495373178E+02 -0.18928837027E+02  0.39292494438E+01  0.26443573953E+03  0.26300656055E+03 0.  0.
         25    1    3    3    0    0 -0.19495373178E+02  0.18928837027E+02  0.15312529709E+03  0.19958265244E+03  0.12509000000E+03 0.  0.
         25    1    4    4    0    0  0.32584181836E+02 -0.13885333071E+02 -0.31304307075E+02  0.13372359224E+03  0.12509000000E+03 0.  0.
         25    1    4    4    0    0 -0.13088808658E+02 -0.50435039560E+01  0.35233556519E+02  0.13071214729E+03  0.12509000000E+03 0.  0.
<mgrwt>
<rscale>  2 0.43663135E+03</rscale>
<asrwt>0</asrwt>
<pdfrwt beam="1">  1       21 0.45667128E-01 0.43663135E+03</pdfrwt>
<pdfrwt beam="2">  1       21 0.22570871E-01 0.43663135E+03</pdfrwt>
<totfact> 0.78751377E+04</totfact>
</mgrwt>
</event>
<event>
 7    0  0.4750554E-002  0.4575487E+03  0.7546771E-02  0.1025495E+00
         21   -1    0    0  502  501  0.00000000000E+00  0.00000000000E+00  0.19689950053E+03  0.19689950053E+03  0.00000000000E+00 0. -1.
         21   -1    0    0  501  502 -0.00000000000E+00 -0.00000000000E+00 -0.26580923998E+03  0.26580923998E+03  0.00000000000E+00 0. -1.
      99926    2    1    2    0    0 -0.35527136788E-14  0.00000000000E+00 -0.68909739445E+02  0.46270874051E+03  0.45754871473E+03 0.  0.
      99925    2    3    3    0    0 -0.96128521318E+01  0.94321393969E+02 -0.11010301307E+03  0.30043327662E+03  0.26296111486E+03 0.  0.
         25    1    4    4    0    0 -0.36722136156E+02  0.73780360995E+02 -0.54998681087E+02  0.15957574995E+03  0.12509000000E+03 0.  0.
         25    1    3    3    0    0  0.96128521318E+01 -0.94321393969E+02  0.41193273625E+02  0.16227546388E+03  0.12509000000E+03 0.  0.
         25    1    4    4    0    0  0.27109284024E+02  0.20541032974E+02 -0.55104331983E+02  0.14085752667E+03  0.12509000000E+03 0.  0.
<mgrwt>
<rscale>  2 0.45754871E+03</rscale>
<asrwt>0</asrwt>
<pdfrwt beam="1">  1       21 0.28955809E-01 0.45754871E+03</pdfrwt>
<pdfrwt beam="2">  1       21 0.39089594E-01 0.45754871E+03</pdfrwt>
<totfact> 0.66619235E+04</totfact>
</mgrwt>
</event>
<event>
 7    0  0.4750554E-002  0.4539278E+03  0.7546771E-02  0.1026557E+00
         21   -1    0    0  502  501  0.00000000000E+00  0.00000000000E+00  0.12830236768E+03  0.12830236768E+03  0.00000000000E+00 0.  1.
         21   -1    0    0  501  502 -0.00000000000E+00 -0.00000000000E+00 -0.40149389142E+03  0.40149389142E+03  0.00000000000E+00 0.  1.
      99926    2    1    2    0    0 -0.71054273576E-14  0.00000000000E+00 -0.27319152374E+03  0.52979625910E+03  0.45392782192E+03 0.  0.
      99925    2    3    3    0    0 -0.44639548557E+02 -0.24905674028E+02 -0.28860981281E+03  0.39378812099E+03  0.26298379854E+03 0.  0.
         25    1    4    4    0    0 -0.27028622209E+02 -0.23512192054E+01 -0.86861975947E+02  0.15468867320E+03  0.12509000000E+03 0.  0.
         25    1    4    4    0    0 -0.17610926348E+02 -0.22554454823E+02 -0.20174783686E+03  0.23909944780E+03  0.12509000000E+03 0.  0.
         25    1    3    3    0    0  0.44639548557E+02  0.24905674028E+02  0.15418289065E+02  0.13600813811E+03  0.12509000000E+03 0.  0.
<mgrwt>
<rscale>  2 0.45392782E+03</rscale>
<asrwt>0</asrwt>
<pdfrwt beam="1">  1       21 0.18867995E-01 0.45392782E+03</pdfrwt>
<pdfrwt beam="2">  1       21 0.59043219E-01 0.45392782E+03</pdfrwt>
<totfact> 0.63760432E+04</totfact>
</mgrwt>
</event>
<event>
 7    0  0.4750554E-002  0.4560773E+03  0.7546771E-02  0.1025925E+00
         21   -1    0    0  502  501  0.00000000000E+00  0.00000000000E+00  0.25545924196E+04  0.25545924196E+04  0.00000000000E+00 0. -1.
         21   -1    0    0  501  502 -0.00000000000E+00 -0.00000000000E+00 -0.20356133998E+02  0.20356133998E+02  0.00000000000E+00 0. -1.
      99926    2    1    2    0    0  0.00000000000E+00  0.00000000000E+00  0.25342362856E+04  0.25749485536E+04  0.45607729873E+03 0.  0.
      99925    2    3    3    0    0 -0.45139330321E+02 -0.10296190343E+03  0.14835297998E+04  0.15108666300E+04  0.26309426844E+03 0.  0.
         25    1    4    4    0    0 -0.26910397173E+02 -0.85626626313E+02  0.94269613075E+03  0.95518563204E+03  0.12509000000E+03 0.  0.
         25    1    3    3    0    0  0.45139330321E+02  0.10296190343E+03  0.10507064859E+04  0.10640819237E+04  0.12509000000E+03 0.  0.
         25    1    4    4    0    0 -0.18228933148E+02 -0.17335277117E+02  0.54083366901E+03  0.55568099794E+03  0.12509000000E+03 0.  0.
<mgrwt>
<rscale>  2 0.45607730E+03</rscale>
<asrwt>0</asrwt>
<pdfrwt beam="1">  1       21 0.37567514E+00 0.45607730E+03</pdfrwt>
<pdfrwt beam="2">  1       21 0.29935509E-02 0.45607730E+03</pdfrwt>
<totfact> 0.63418031E+03</totfact>
</mgrwt>
</event>
<event>
 7    0  0.4750554E-002  0.4356722E+03  0.7546771E-02  0.1032083E+00
         21   -1    0    0  502  501  0.00000000000E+00  0.00000000000E+00  0.25547990562E+03  0.25547990562E+03  0.00000000000E+00 0. -1.
         21   -1    0    0  501  502 -0.00000000000E+00 -0.00000000000E+00 -0.18573891807E+03  0.18573891807E+03  0.00000000000E+00 0. -1.
      99926    2    1    2    0    0  0.26645352591E-14  0.00000000000E+00  0.69740987556E+02  0.44121882369E+03  0.43567217610E+03 0.  0.
      99925    2    3    3    0    0  0.42043817854E+01 -0.31184984755E+02 -0.44863031878E+02  0.26867384558E+03  0.26302616518E+03 0.  0.
         25    1    4    4    0    0 -0.19942045357E+02 -0.37748389303E+02  0.35650336334E+01  0.13222270468E+03  0.12509000000E+03 0.  0.
         25    1    3    3    0    0 -0.42043817854E+01  0.31184984755E+02  0.11460401943E+03  0.17254497811E+03  0.12509000000E+03 0.  0.
         25    1    4    4    0    0  0.24146427142E+02  0.65634045477E+01 -0.48428065512E+02  0.13645114090E+03  0.12509000000E+03 0.  0.
<mgrwt>
<rscale>  2 0.43567218E+03</rscale>
<asrwt>0</asrwt>
<pdfrwt beam="1">  1       21 0.37570575E-01 0.43567218E+03</pdfrwt>
<pdfrwt beam="2">  1       21 0.27314547E-01 0.43567218E+03</pdfrwt>
<totfact> 0.81414713E+04</totfact>
</mgrwt>
</event>
<event>
 7    0  0.4750554E-002  0.4531972E+03  0.7546771E-02  0.1026773E+00
         21   -1    0    0  502  501  0.00000000000E+00  0.00000000000E+00  0.21157884639E+03  0.21157884639E+03  0.00000000000E+00 0. -1.
         21   -1    0    0  501  502 -0.00000000000E+00 -0.00000000000E+00 -0.24268462306E+03  0.24268462306E+03  0.00000000000E+00 0. -1.
      99926    2    1    2    0    0 -0.14210854715E-13  0.00000000000E+00 -0.31105776670E+02  0.45426346946E+03  0.45319723117E+03 0.  0.
      99925    2    3    3    0    0 -0.74686656807E+02 -0.73656543108E+02  0.18123201947E+02  0.28375134823E+03  0.26302660346E+03 0.  0.
         25    1    3    3    0    0  0.74686656807E+02  0.73656543108E+02 -0.49228978618E+02  0.17051212122E+03  0.12509000000E+03 0.  0.
         25    1    4    4    0    0 -0.75160250650E+02 -0.21094226764E+02  0.71631696820E+01  0.14762401153E+03  0.12509000000E+03 0.  0.
         25    1    4    4    0    0  0.47359384283E+00 -0.52562316345E+02  0.10960032265E+02  0.13612733670E+03  0.12509000000E+03 0.  0.
<mgrwt>
<rscale>  2 0.45319723E+03</rscale>
<asrwt>0</asrwt>
<pdfrwt beam="1">  1       21 0.31114536E-01 0.45319723E+03</pdfrwt>
<pdfrwt beam="2">  1       21 0.35688915E-01 0.45319723E+03</pdfrwt>
<totfact> 0.69595499E+04</totfact>
</mgrwt>
</event>
<event>
 7    0  0.4750554E-002  0.4718115E+03  0.7546771E-02  0.1021410E+00
         21   -1    0    0  502  501  0.00000000000E+00  0.00000000000E+00  0.13864898708E+03  0.13864898708E+03  0.00000000000E+00 0.  1.
         21   -1    0    0  501  502 -0.00000000000E+00 -0.00000000000E+00 -0.40138435551E+03  0.40138435551E+03  0.00000000000E+00 0.  1.
      99926    2    1    2    0    0  0.26645352591E-14 -0.13322676296E-14 -0.26273536843E+03  0.54003334259E+03  0.47181154849E+03 0.  0.
      99925    2    3    3    0    0  0.71002462072E+01 -0.34877752158E+01 -0.16477231987E+02  0.26371259430E+03  0.26307842015E+03 0.  0.
         25    1    4    4    0    0 -0.32921711239E+02  0.12843427751E+02  0.25075550880E+01  0.13000995593E+03  0.12509000000E+03 0.  0.
         25    1    4    4    0    0  0.40021957446E+02 -0.16331202966E+02 -0.18984787075E+02  0.13370263837E+03  0.12509000000E+03 0.  0.
         25    1    3    3    0    0 -0.71002462072E+01  0.34877752158E+01 -0.24625813644E+03  0.27632074829E+03  0.12509000000E+03 0.  0.
<mgrwt>
<rscale>  2 0.47181155E+03</rscale>
<asrwt>0</asrwt>
<pdfrwt beam="1">  1       21 0.20389557E-01 0.47181155E+03</pdfrwt>
<pdfrwt beam="2">  1       21 0.59027111E-01 0.47181155E+03</pdfrwt>
<totfact> 0.54850976E+04</totfact>
</mgrwt>
</event>
<event>
 7    0  0.4750554E-002  0.4590512E+03  0.7546771E-02  0.1025057E+00
         21   -1    0    0  502  501  0.00000000000E+00  0.00000000000E+00  0.38963505478E+03  0.38963505478E+03  0.00000000000E+00 0. -1.
         21   -1    0    0  501  502 -0.00000000000E+00 -0.00000000000E+00 -0.13520858631E+03  0.13520858631E+03  0.00000000000E+00 0. -1.
      99926    2    1    2    0    0  0.00000000000E+00  0.00000000000E+00  0.25442646847E+03  0.52484364109E+03  0.45905121690E+03 0.  0.
      99925    2    3    3    0    0 -0.31294162322E+02  0.51547841856E+02  0.27401354730E+03  0.38460218377E+03  0.26305685898E+03 0.  0.
         25    1    4    4    0    0 -0.25376990625E+02 -0.12163512745E+02  0.14857896497E+03  0.19625279521E+03  0.12509000000E+03 0.  0.
         25    1    3    3    0    0  0.31294162322E+02 -0.51547841856E+02 -0.19587078838E+02  0.14024145733E+03  0.12509000000E+03 0.  0.
         25    1    4    4    0    0 -0.59171716974E+01  0.63711354601E+02  0.12543458234E+03  0.18834938856E+03  0.12509000000E+03 0.  0.
<mgrwt>
<rscale>  2 0.45905122E+03</rscale>
<asrwt>0</asrwt>
<pdfrwt beam="1">  1       21 0.57299273E-01 0.45905122E+03</pdfrwt>
<pdfrwt beam="2">  1       21 0.19883616E-01 0.45905122E+03</pdfrwt>
<totfact> 0.61555971E+04</totfact>
</mgrwt>
</event>
<event>
 6    0  0.4750554E-002  0.4548030E+03  0.7546771E-02  0.1026299E+00
         21   -1    0    0  502  501  0.00000000000E+00  0.00000000000E+00  0.20209374233E+04  0.20209374233E+04  0.00000000000E+00 0. -1.
         21   -1    0    0  501  502 -0.00000000000E+00 -0.00000000000E+00 -0.25587848316E+02  0.25587848316E+02  0.00000000000E+00 0. -1.
      99926    2    1    2    0    0  0.00000000000E+00  0.00000000000E+00  0.19953495750E+04  0.20465252716E+04  0.45480299138E+03 0.  0.
         25    1    3    3    0    0 -0.79847990162E+02  0.27537973519E+02  0.10565569513E+04  0.10672835335E+04  0.12509000000E+03 0.  0.
         25    1    3    3    0    0  0.80822014269E+02 -0.12095031902E+01  0.44979103990E+03  0.47380707948E+03  0.12509000000E+03 0.  0.
         25    1    3    3    0    0 -0.97402410666E+00 -0.26328470329E+02  0.48900158381E+03  0.50543465863E+03  0.12509000000E+03 0.  0.
<mgrwt>
<rscale>  2 0.45480299E+03</rscale>
<asrwt>0</asrwt>
<pdfrwt beam="1">  1       21 0.29719657E+00 0.45480299E+03</pdfrwt>
<pdfrwt beam="2">  1       21 0.37629203E-02 0.45480299E+03</pdfrwt>
<totfact> 0.12984809E+04</totfact>
</mgrwt>
</event>
<event>
 7    0  0.4750554E-002  0.4481301E+03  0.7546771E-02  0.1028281E+00
         21   -1    0    0  502  501  0.00000000000E+00  0.00000000000E+00  0.21042324251E+04  0.21042324251E+04  0.00000000000E+00 0. -1.
         21   -1    0    0  501  502 -0.00000000000E+00 -0.00000000000E+00 -0.23859123958E+02  0.23859123958E+02  0.00000000000E+00 0. -1.
      99926    2    1    2    0    0  0.00000000000E+00  0.00000000000E+00  0.20803733011E+04  0.21280915490E+04  0.44813008052E+03 0.  0.
      99925    2    3    3    0    0  0.25847339511E+02  0.92093543643E+02  0.10908957529E+04  0.11261620943E+04  0.26275123825E+03 0.  0.
         25    1    3    3    0    0 -0.25847339511E+02 -0.92093543643E+02  0.98947754819E+03  0.10019294547E+04  0.12509000000E+03 0.  0.
         25    1    4    4    0    0  0.22499417225E+02  0.60353802713E+02  0.41947104535E+03  0.44243900288E+03  0.12509000000E+03 0.  0.
         25    1    4    4    0    0  0.33479222862E+01  0.31739740929E+02  0.67142470759E+03  0.68372309146E+03  0.12509000000E+03 0.  0.
<mgrwt>
<rscale>  2 0.44813008E+03</rscale>
<asrwt>0</asrwt>
<pdfrwt beam="1">  1       21 0.30944582E+00 0.44813008E+03</pdfrwt>
<pdfrwt beam="2">  1       21 0.35086961E-02 0.44813008E+03</pdfrwt>
<totfact> 0.12376160E+04</totfact>
</mgrwt>
</event>
<event>
 7    0  0.4750554E-002  0.4533609E+03  0.7546771E-02  0.1026725E+00
         21   -1    0    0  502  501  0.00000000000E+00  0.00000000000E+00  0.25336855342E+03  0.25336855342E+03  0.00000000000E+00 0. -1.
         21   -1    0    0  501  502 -0.00000000000E+00 -0.00000000000E+00 -0.20280346676E+03  0.20280346676E+03  0.00000000000E+00 0. -1.
      99926    2    1    2    0    0 -0.14210854715E-13  0.00000000000E+00  0.50565086658E+02  0.45617202018E+03  0.45336087613E+03 0.  0.
      99925    2    3    3    0    0  0.60351350671E+02 -0.76461392405E+02  0.86689812644E+02  0.29356472027E+03  0.26301424166E+03 0.  0.
         25    1    4    4    0    0 -0.69983016956E+01 -0.49527568830E+02  0.55117240103E+02  0.14555883538E+03  0.12509000000E+03 0.  0.
         25    1    4    4    0    0  0.67349652366E+02 -0.26933823575E+02  0.31572572541E+02  0.14800588489E+03  0.12509000000E+03 0.  0.
         25    1    3    3    0    0 -0.60351350671E+02  0.76461392405E+02 -0.36124725986E+02  0.16260729991E+03  0.12509000000E+03 0.  0.
<mgrwt>
<rscale>  2 0.45336088E+03</rscale>
<asrwt>0</asrwt>
<pdfrwt beam="1">  1       21 0.37260082E-01 0.45336088E+03</pdfrwt>
<pdfrwt beam="2">  1       21 0.29824039E-01 0.45336088E+03</pdfrwt>
<totfact> 0.69362629E+04</totfact>
</mgrwt>
</event>
<event>
 7    0  0.4750554E-002  0.4554420E+03  0.7546771E-02  0.1026112E+00
         21   -1    0    0  502  501  0.00000000000E+00  0.00000000000E+00  0.59250394450E+02  0.59250394450E+02  0.00000000000E+00 0. -1.
         21   -1    0    0  501  502 -0.00000000000E+00 -0.00000000000E+00 -0.87521525482E+03  0.87521525482E+03  0.00000000000E+00 0. -1.
      99926    2    1    2    0    0  0.71054273576E-14  0.00000000000E+00 -0.81596486037E+03  0.93446564927E+03  0.45544197908E+03 0.  0.
      99925    2    3    3    0    0  0.61039184215E+02 -0.37408433956E+02 -0.33249845211E+03  0.42997338079E+03  0.26305268406E+03 0.  0.
         25    1    4    4    0    0  0.36717284395E+02 -0.54207263050E+02 -0.20510891146E+03  0.24900554211E+03  0.12509000000E+03 0.  0.
         25    1    4    4    0    0  0.24321899820E+02  0.16798829094E+02 -0.12738954065E+03  0.18096783868E+03  0.12509000000E+03 0.  0.
         25    1    3    3    0    0 -0.61039184215E+02  0.37408433956E+02 -0.48346640826E+03  0.50449226848E+03  0.12509000000E+03 0.  0.
<mgrwt>
<rscale>  2 0.45544198E+03</rscale>
<asrwt>0</asrwt>
<pdfrwt beam="1">  1       21 0.87132930E-02 0.45544198E+03</pdfrwt>
<pdfrwt beam="2">  1       21 0.12870813E+00 0.45544198E+03</pdfrwt>
<totfact> 0.41632229E+04</totfact>
</mgrwt>
</event>
<event>
 7    0  0.4750554E-002  0.4501255E+03  0.7546771E-02  0.1027685E+00
         21   -1    0    0  502  501  0.00000000000E+00  0.00000000000E+00  0.48092291837E+03  0.48092291837E+03  0.00000000000E+00 0. -1.
         21   -1    0    0  501  502 -0.00000000000E+00 -0.00000000000E+00 -0.10532505935E+03  0.10532505935E+03  0.00000000000E+00 0. -1.
      99926    2    1    2    0    0  0.00000000000E+00  0.00000000000E+00  0.37559785901E+03  0.58624797772E+03  0.45012547104E+03 0.  0.
      99925    2    3    3    0    0  0.88198903499E+02 -0.55048313165E+02  0.19697153002E+03  0.34466106402E+03  0.26302870956E+03 0.  0.
         25    1    3    3    0    0 -0.88198903499E+02  0.55048313165E+02  0.17862632899E+03  0.24158691370E+03  0.12509000000E+03 0.  0.
         25    1    4    4    0    0  0.56621726477E+02  0.49270806078E+01  0.71116146583E+02  0.15471040830E+03  0.12509000000E+03 0.  0.
         25    1    4    4    0    0  0.31577177022E+02 -0.59975393773E+02  0.12585538344E+03  0.18995065572E+03  0.12509000000E+03 0.  0.
<mgrwt>
<rscale>  2 0.45012547E+03</rscale>
<asrwt>0</asrwt>
<pdfrwt beam="1">  1       21 0.70723958E-01 0.45012547E+03</pdfrwt>
<pdfrwt beam="2">  1       21 0.15488979E-01 0.45012547E+03</pdfrwt>
<totfact> 0.61882883E+04</totfact>
</mgrwt>
</event>
<event>
 6    0  0.4750554E-002  0.4429427E+03  0.7546771E-02  0.1029848E+00
         21   -1    0    0  502  501  0.00000000000E+00  0.00000000000E+00  0.12162690463E+04  0.12162690463E+04  0.00000000000E+00 0.  1.
         21   -1    0    0  501  502 -0.00000000000E+00 -0.00000000000E+00 -0.40327878450E+02  0.40327878450E+02  0.00000000000E+00 0.  1.
      99926    2    1    2    0    0  0.00000000000E+00  0.71054273576E-14  0.11759411679E+04  0.12565969248E+04  0.44294266113E+03 0.  0.
         25    1    3    3    0    0 -0.76418230337E+02  0.38278099323E+02  0.60347971404E+03  0.62220594033E+03  0.12509000000E+03 0.  0.
         25    1    3    3    0    0  0.54482608970E+02 -0.36925936462E+02  0.36146212271E+03  0.38811628891E+03  0.12509000000E+03 0.  0.
         25    1    3    3    0    0  0.21935621368E+02 -0.13521628609E+01  0.21099933113E+03  0.24627469554E+03  0.12509000000E+03 0.  0.
<mgrwt>
<rscale>  2 0.44294266E+03</rscale>
<asrwt>0</asrwt>
<pdfrwt beam="1">  1       21 0.17886307E+00 0.44294266E+03</pdfrwt>
<pdfrwt beam="2">  1       21 0.59305712E-02 0.44294266E+03</pdfrwt>
<totfact> 0.33429792E+04</totfact>
</mgrwt>
</event>
<event>
 7    0  0.4750554E-002  0.4475944E+03  0.7546771E-02  0.1028442E+00
         21   -1    0    0  502  501  0.00000000000E+00  0.00000000000E+00  0.14880726429E+03  0.14880726429E+03  0.00000000000E+00 0. -1.
         21   -1    0    0  501  502 -0.00000000000E+00 -0.00000000000E+00 -0.33657751473E+03  0.33657751473E+03  0.00000000000E+00 0. -1.
      99926    2    1    2    0    0 -0.71054273576E-14  0.71054273576E-14 -0.18777025044E+03  0.48538477902E+03  0.44759436631E+03 0.  0.
      99925    2    3    3    0    0 -0.58133081493E+02  0.58258343177E+02 -0.46485572687E+02  0.27951501926E+03  0.26304799526E+03 0.  0.
         25    1    4    4    0    0 -0.22150923327E+02  0.40162754381E+01 -0.54463955761E+02  0.13827734612E+03  0.12509000000E+03 0.  0.
         25    1    3    3    0    0  0.58133081493E+02 -0.58258343177E+02 -0.14128467775E+03  0.20586975975E+03  0.12509000000E+03 0.  0.
         25    1    4    4    0    0 -0.35982158166E+02  0.54242067739E+02  0.79783830745E+01  0.14123767314E+03  0.12509000000E+03 0.  0.
<mgrwt>
<rscale>  2 0.44759437E+03</rscale>
<asrwt>0</asrwt>
<pdfrwt beam="1">  1       21 0.21883421E-01 0.44759437E+03</pdfrwt>
<pdfrwt beam="2">  1       21 0.49496694E-01 0.44759437E+03</pdfrwt>
<totfact> 0.70356382E+04</totfact>
</mgrwt>
</event>
<event>
 6    0  0.4750554E-002  0.4560574E+03  0.7546771E-02  0.1025931E+00
         21   -1    0    0  502  501  0.00000000000E+00  0.00000000000E+00  0.37741921419E+03  0.37741921419E+03  0.00000000000E+00 0. -1.
         21   -1    0    0  501  502 -0.00000000000E+00 -0.00000000000E+00 -0.13777010660E+03  0.13777010660E+03  0.00000000000E+00 0. -1.
      99926    2    1    2    0    0  0.00000000000E+00  0.00000000000E+00  0.23964910759E+03  0.51518932079E+03  0.45605738837E+03 0.  0.
         25    1    3    3    0    0 -0.24356524069E+02 -0.34856359665E+02  0.37982443647E+02  0.13747137956E+03  0.12509000000E+03 0.  0.
         25    1    3    3    0    0 -0.19103361510E+02 -0.62315295904E+02  0.14912934466E+03  0.20526861441E+03  0.12509000000E+03 0.  0.
         25    1    3    3    0    0  0.43459885580E+02  0.97171655569E+02  0.52537319287E+02  0.17244932681E+03  0.12509000000E+03 0.  0.
<mgrwt>
<rscale>  2 0.45605739E+03</rscale>
<asrwt>0</asrwt>
<pdfrwt beam="1">  1       21 0.55502825E-01 0.45605739E+03</pdfrwt>
<pdfrwt beam="2">  1       21 0.20260310E-01 0.45605739E+03</pdfrwt>
<totfact> 0.63680215E+04</totfact>
</mgrwt>
</event>
<event>
 7    0  0.4750554E-002  0.4542694E+03  0.7546771E-02  0.1026456E+00
         21   -1    0    0  502  501  0.00000000000E+00  0.00000000000E+00  0.48239312664E+03  0.48239312664E+03  0.00000000000E+00 0.  1.
         21   -1    0    0  501  502 -0.00000000000E+00 -0.00000000000E+00 -0.10694630185E+03  0.10694630185E+03  0.00000000000E+00 0.  1.
      99926    2    1    2    0    0  0.14210854715E-13  0.35527136788E-14  0.37544682479E+03  0.58933942849E+03  0.45426935153E+03 0.  0.
      99925    2    3    3    0    0 -0.10319745548E+03  0.29140725742E+02  0.19310216321E+03  0.34358349180E+03  0.26317726666E+03 0.  0.
         25    1    3    3    0    0  0.10319745548E+03 -0.29140725742E+02  0.18234466158E+03  0.24575593669E+03  0.12509000000E+03 0.  0.
         25    1    4    4    0    0 -0.80871429730E+02  0.43036781159E+02  0.12217540322E+03  0.19739982252E+03  0.12509000000E+03 0.  0.
         25    1    4    4    0    0 -0.22326025751E+02 -0.13896055416E+02  0.70926759991E+02  0.14618366928E+03  0.12509000000E+03 0.  0.
<mgrwt>
<rscale>  2 0.45426935E+03</rscale>
<asrwt>0</asrwt>
<pdfrwt beam="1">  1       21 0.70940165E-01 0.45426935E+03</pdfrwt>
<pdfrwt beam="2">  1       21 0.15727398E-01 0.45426935E+03</pdfrwt>
<totfact> 0.59683208E+04</totfact>
</mgrwt>
</event>
<event>
 7    0  0.4750554E-002  0.4570537E+03  0.7546771E-02  0.1025639E+00
         21   -1    0    0  502  501  0.00000000000E+00  0.00000000000E+00  0.21436629907E+03  0.21436629907E+03  0.00000000000E+00 0. -1.
         21   -1    0    0  501  502 -0.00000000000E+00 -0.00000000000E+00 -0.24362277068E+03  0.24362277068E+03  0.00000000000E+00 0. -1.
      99926    2    1    2    0    0  0.00000000000E+00 -0.71054273576E-14 -0.29256471611E+02  0.45798906975E+03  0.45705365865E+03 0.  0.
      99925    2    3    3    0    0  0.99243666799E+02 -0.45640499215E+02  0.17896983408E+02  0.28535269761E+03  0.26300855394E+03 0.  0.
         25    1    4    4    0    0  0.39249834010E+02 -0.23974127858E+02  0.48164364385E+02  0.14171316937E+03  0.12509000000E+03 0.  0.
         25    1    3    3    0    0 -0.99243666799E+02  0.45640499215E+02 -0.47153455019E+02  0.17263637215E+03  0.12509000000E+03 0.  0.
         25    1    4    4    0    0  0.59993832789E+02 -0.21666371358E+02 -0.30267380976E+02  0.14363952824E+03  0.12509000000E+03 0.  0.
<mgrwt>
<rscale>  2 0.45705366E+03</rscale>
<asrwt>0</asrwt>
<pdfrwt beam="1">  1       21 0.31524456E-01 0.45705366E+03</pdfrwt>
<pdfrwt beam="2">  1       21 0.35826878E-01 0.45705366E+03</pdfrwt>
<totfact> 0.67219198E+04</totfact>
</mgrwt>
</event>
<event>
 7    0  0.4750554E-002  0.4535481E+03  0.7546771E-02  0.1026669E+00
         21   -1    0    0  502  501  0.00000000000E+00  0.00000000000E+00  0.82918316236E+02  0.82918316236E+02  0.00000000000E+00 0.  1.
         21   -1    0    0  501  502 -0.00000000000E+00 -0.00000000000E+00 -0.62020642073E+03  0.62020642073E+03  0.00000000000E+00 0.  1.
      99926    2    1    2    0    0  0.00000000000E+00  0.00000000000E+00 -0.53728810449E+03  0.70312473697E+03  0.45354811046E+03 0.  0.
      99925    2    3    3    0    0 -0.98082005967E+02 -0.61428641871E+01 -0.42109293835E+03  0.50613072840E+03  0.26304227195E+03 0.  0.
         25    1    3    3    0    0  0.98082005967E+02  0.61428641871E+01 -0.11619516615E+03  0.19699400857E+03  0.12509000000E+03 0.  0.
         25    1    4    4    0    0 -0.60240579003E+02  0.37320511092E-01 -0.14580788582E+03  0.20133647563E+03  0.12509000000E+03 0.  0.
         25    1    4    4    0    0 -0.37841426964E+02 -0.61801846982E+01 -0.27528505253E+03  0.30479425277E+03  0.12509000000E+03 0.  0.
<mgrwt>
<rscale>  2 0.45354811E+03</rscale>
<asrwt>0</asrwt>
<pdfrwt beam="1">  1       21 0.12193870E-01 0.45354811E+03</pdfrwt>
<pdfrwt beam="2">  1       21 0.91206828E-01 0.45354811E+03</pdfrwt>
<totfact> 0.53340438E+04</totfact>
</mgrwt>
</event>
<event>
 7    0  0.4750554E-002  0.4472728E+03  0.7546771E-02  0.1028538E+00
         21   -1    0    0  502  501  0.00000000000E+00  0.00000000000E+00  0.86376797598E+02  0.86376797598E+02  0.00000000000E+00 0.  1.
         21   -1    0    0  501  502 -0.00000000000E+00 -0.00000000000E+00 -0.57901241569E+03  0.57901241569E+03  0.00000000000E+00 0.  1.
      99926    2    1    2    0    0  0.00000000000E+00 -0.71054273576E-14 -0.49263561809E+03  0.66538921328E+03  0.44727279478E+03 0.  0.
      99925    2    3    3    0    0 -0.37512573836E+02 -0.51893702032E+02 -0.18790116640E+03  0.32981397037E+03  0.26338234036E+03 0.  0.
         25    1    4    4    0    0 -0.13414311026E+02 -0.66841798026E+02 -0.10697270936E+03  0.17815285109E+03  0.12509000000E+03 0.  0.
         25    1    4    4    0    0 -0.24098262810E+02  0.14948095994E+02 -0.80928457036E+02  0.15166111928E+03  0.12509000000E+03 0.  0.
         25    1    3    3    0    0  0.37512573836E+02  0.51893702032E+02 -0.30473445169E+03  0.33557524291E+03  0.12509000000E+03 0.  0.
<mgrwt>
<rscale>  2 0.44727279E+03</rscale>
<asrwt>0</asrwt>
<pdfrwt beam="1">  1       21 0.12702471E-01 0.44727279E+03</pdfrwt>
<pdfrwt beam="2">  1       21 0.85148883E-01 0.44727279E+03</pdfrwt>
<totfact> 0.58292146E+04</totfact>
</mgrwt>
</event>
<event>
 7    0  0.4750554E-002  0.4552524E+03  0.7546771E-02  0.1026167E+00
         21   -1    0    0  502  501  0.00000000000E+00  0.00000000000E+00  0.21251020701E+03  0.21251020701E+03  0.00000000000E+00 0.  1.
         21   -1    0    0  501  502 -0.00000000000E+00 -0.00000000000E+00 -0.24381744334E+03  0.24381744334E+03  0.00000000000E+00 0.  1.
      99926    2    1    2    0    0 -0.14210854715E-13  0.00000000000E+00 -0.31307236333E+02  0.45632765035E+03  0.45525243704E+03 0.  0.
      99925    2    3    3    0    0  0.63358799458E+02 -0.68561723709E+02  0.44920888926E+02  0.28262306605E+03  0.26295030666E+03 0.  0.
         25    1    4    4    0    0 -0.87270320867E+01 -0.26206729286E+02  0.28821130604E+02  0.13130544322E+03  0.12509000000E+03 0.  0.
         25    1    4    4    0    0  0.72085831545E+02 -0.42354994423E+02  0.16099758322E+02  0.15131762283E+03  0.12509000000E+03 0.  0.
         25    1    3    3    0    0 -0.63358799458E+02  0.68561723709E+02 -0.76228125259E+02  0.17370458430E+03  0.12509000000E+03 0.  0.
<mgrwt>
<rscale>  2 0.45525244E+03</rscale>
<asrwt>0</asrwt>
<pdfrwt beam="1">  1       21 0.31251501E-01 0.45525244E+03</pdfrwt>
<pdfrwt beam="2">  1       21 0.35855506E-01 0.45525244E+03</pdfrwt>
<totfact> 0.68310984E+04</totfact>
</mgrwt>
</event>
<event>
 7    0  0.4750554E-002  0.4594767E+03  0.7546771E-02  0.1024933E+00
         21   -1    0    0  502  501  0.00000000000E+00  0.00000000000E+00  0.53044955809E+02  0.53044955809E+02  0.00000000000E+00 0. -1.
         21   -1    0    0  501  502 -0.00000000000E+00 -0.00000000000E+00 -0.99499974804E+03  0.99499974804E+03  0.00000000000E+00 0. -1.
      99926    2    1    2    0    0  0.35527136788E-14 -0.14210854715E-13 -0.94195479223E+03  0.10480447038E+04  0.45947673571E+03 0.  0.
      99925    2    3    3    0    0 -0.20841813985E+02 -0.10743495031E+03 -0.68672691056E+03  0.74347052661E+03  0.26301696617E+03 0.  0.
         25    1    3    3    0    0  0.20841813985E+02  0.10743495031E+03 -0.25522788167E+03  0.30457417723E+03  0.12509000000E+03 0.  0.
         25    1    4    4    0    0  0.18447290439E+02 -0.22649574827E+02 -0.32645446456E+03  0.35081808861E+03  0.12509000000E+03 0.  0.
         25    1    4    4    0    0 -0.39289104424E+02 -0.84785375479E+02 -0.36027244600E+03  0.39265243800E+03  0.12509000000E+03 0.  0.
<mgrwt>
<rscale>  2 0.45947674E+03</rscale>
<asrwt>0</asrwt>
<pdfrwt beam="1">  1       21 0.78007284E-02 0.45947674E+03</pdfrwt>
<pdfrwt beam="2">  1       21 0.14632350E+00 0.45947674E+03</pdfrwt>
<totfact> 0.36072164E+04</totfact>
</mgrwt>
</event>
<event>
 7    0  0.4750554E-002  0.4309961E+03  0.7546771E-02  0.1033546E+00
         21   -1    0    0  502  501  0.00000000000E+00  0.00000000000E+00  0.76716925772E+03  0.76716925772E+03  0.00000000000E+00 0.  1.
         21   -1    0    0  501  502 -0.00000000000E+00 -0.00000000000E+00 -0.60533461171E+02  0.60533461171E+02  0.00000000000E+00 0.  1.
      99926    2    1    2    0    0  0.71054273576E-14  0.00000000000E+00  0.70663579655E+03  0.82770271889E+03  0.43099610427E+03 0.  0.
      99925    2    3    3    0    0 -0.39955422590E+02 -0.78457972670E+02  0.47865381009E+03  0.55315694216E+03  0.26290881210E+03 0.  0.
         25    1    4    4    0    0 -0.56664578287E+02 -0.52117625040E+02  0.22649851846E+03  0.26995593758E+03  0.12509000000E+03 0.  0.
         25    1    3    3    0    0  0.39955422590E+02  0.78457972670E+02  0.22798198646E+03  0.27454577673E+03  0.12509000000E+03 0.  0.
         25    1    4    4    0    0  0.16709155697E+02 -0.26340347630E+02  0.25215529163E+03  0.28320100458E+03  0.12509000000E+03 0.  0.
<mgrwt>
<rscale>  2 0.43099610E+03</rscale>
<asrwt>0</asrwt>
<pdfrwt beam="1">  1       21 0.11281900E+00 0.43099610E+03</pdfrwt>
<pdfrwt beam="2">  1       21 0.89019800E-02 0.43099610E+03</pdfrwt>
<totfact> 0.56338385E+04</totfact>
</mgrwt>
</event>
<event>
 7    0  0.4750554E-002  0.4530548E+03  0.7546771E-02  0.1026815E+00
         21   -1    0    0  502  501  0.00000000000E+00  0.00000000000E+00  0.11420543126E+03  0.11420543126E+03  0.00000000000E+00 0. -1.
         21   -1    0    0  501  502 -0.00000000000E+00 -0.00000000000E+00 -0.44931889373E+03  0.44931889373E+03  0.00000000000E+00 0. -1.
      99926    2    1    2    0    0  0.00000000000E+00  0.00000000000E+00 -0.33511346247E+03  0.56352432499E+03  0.45305477829E+03 0.  0.
      99925    2    3    3    0    0 -0.77319832009E+02 -0.74196215642E+02 -0.24869470352E+03  0.37751587132E+03  0.26303182831E+03 0.  0.
         25    1    4    4    0    0 -0.34221775379E+02 -0.56839710368E+02 -0.80716111241E+02  0.16298613836E+03  0.12509000000E+03 0.  0.
         25    1    3    3    0    0  0.77319832009E+02  0.74196215642E+02 -0.86418758947E+02  0.18600845367E+03  0.12509000000E+03 0.  0.
         25    1    4    4    0    0 -0.43098056629E+02 -0.17356505274E+02 -0.16797859228E+03  0.21452973296E+03  0.12509000000E+03 0.  0.
<mgrwt>
<rscale>  2 0.45305478E+03</rscale>
<asrwt>0</asrwt>
<pdfrwt beam="1">  1       21 0.16794917E-01 0.45305478E+03</pdfrwt>
<pdfrwt beam="2">  1       21 0.66076306E-01 0.45305478E+03</pdfrwt>
<totfact> 0.61928853E+04</totfact>
</mgrwt>
</event>
<event>
 7    0  0.4750554E-002  0.4563457E+03  0.7546771E-02  0.1025846E+00
         21   -1    0    0  502  501  0.00000000000E+00  0.00000000000E+00  0.19627587074E+03  0.19627587074E+03  0.00000000000E+00 0. -1.
         21   -1    0    0  501  502 -0.00000000000E+00 -0.00000000000E+00 -0.26525343166E+03  0.26525343166E+03  0.00000000000E+00 0. -1.
      99926    2    1    2    0    0  0.00000000000E+00  0.00000000000E+00 -0.68977560922E+02  0.46152930241E+03  0.45634569470E+03 0.  0.
      99925    2    3    3    0    0  0.95764615325E+02 -0.59028481151E+02 -0.64261971156E+02  0.29322907061E+03  0.26305600883E+03 0.  0.
         25    1    4    4    0    0  0.58144409672E+02 -0.40922160037E+01 -0.91220910264E+00  0.13800673474E+03  0.12509000000E+03 0.  0.
         25    1    4    4    0    0  0.37620205653E+02 -0.54936265147E+02 -0.63349762053E+02  0.15522233587E+03  0.12509000000E+03 0.  0.
         25    1    3    3    0    0 -0.95764615325E+02  0.59028481151E+02 -0.47155897661E+01  0.16830023179E+03  0.12509000000E+03 0.  0.
<mgrwt>
<rscale>  2 0.45634569E+03</rscale>
<asrwt>0</asrwt>
<pdfrwt beam="1">  1       21 0.28864099E-01 0.45634569E+03</pdfrwt>
<pdfrwt beam="2">  1       21 0.39007857E-01 0.45634569E+03</pdfrwt>
<totfact> 0.67343657E+04</totfact>
</mgrwt>
</event>
<event>
 7    0  0.4750554E-002  0.4578649E+03  0.7546771E-02  0.1025402E+00
         21   -1    0    0  502  501  0.00000000000E+00  0.00000000000E+00  0.26886457080E+04  0.26886457080E+04  0.00000000000E+00 0. -1.
         21   -1    0    0  501  502 -0.00000000000E+00 -0.00000000000E+00 -0.19493106928E+02  0.19493106928E+02  0.00000000000E+00 0. -1.
      99926    2    1    2    0    0 -0.71054273576E-14 -0.35527136788E-14  0.26691526011E+04  0.27081388150E+04  0.45786486337E+03 0.  0.
      99925    2    3    3    0    0  0.48161789167E+02  0.19780059529E+02  0.22873412250E+04  0.23029990321E+04  0.26299021510E+03 0.  0.
         25    1    4    4    0    0  0.26148049511E+02  0.20072997794E+02  0.14899987747E+04  0.14956037250E+04  0.12509000000E+03 0.  0.
         25    1    4    4    0    0  0.22013739656E+02 -0.29293826471E+00  0.79734245039E+03  0.80739530705E+03  0.12509000000E+03 0.  0.
         25    1    3    3    0    0 -0.48161789167E+02 -0.19780059529E+02  0.38181137605E+03  0.40513978288E+03  0.12509000000E+03 0.  0.
<mgrwt>
<rscale>  2 0.45786486E+03</rscale>
<asrwt>0</asrwt>
<pdfrwt beam="1">  1       21 0.39538882E+00 0.45786486E+03</pdfrwt>
<pdfrwt beam="2">  1       21 0.28666352E-02 0.45786486E+03</pdfrwt>
<totfact> 0.51133776E+03</totfact>
</mgrwt>
</event>
<event>
 7    0  0.4750554E-002  0.4560964E+03  0.7546771E-02  0.1025919E+00
         21   -1    0    0  502  501  0.00000000000E+00  0.00000000000E+00  0.27579867010E+03  0.27579867010E+03  0.00000000000E+00 0.  1.
         21   -1    0    0  501  502 -0.00000000000E+00 -0.00000000000E+00 -0.18856503310E+03  0.18856503310E+03  0.00000000000E+00 0.  1.
      99926    2    1    2    0    0  0.00000000000E+00  0.00000000000E+00  0.87233636998E+02  0.46436370320E+03  0.45609641681E+03 0.  0.
      99925    2    3    3    0    0  0.52744991695E+02  0.10001983093E+01  0.15786620155E+03  0.31132938737E+03  0.26309924991E+03 0.  0.
         25    1    4    4    0    0  0.16588011364E+02  0.45744146922E+01  0.32145824025E+02  0.13029562346E+03  0.12509000000E+03 0.  0.
         25    1    3    3    0    0 -0.52744991695E+02 -0.10001983093E+01 -0.70632564555E+02  0.15303431583E+03  0.12509000000E+03 0.  0.
         25    1    4    4    0    0  0.36156980331E+02 -0.35742163829E+01  0.12572037753E+03  0.18103376391E+03  0.12509000000E+03 0.  0.
<mgrwt>
<rscale>  2 0.45609642E+03</rscale>
<asrwt>0</asrwt>
<pdfrwt beam="1">  1       21 0.40558628E-01 0.45609642E+03</pdfrwt>
<pdfrwt beam="2">  1       21 0.27730152E-01 0.45609642E+03</pdfrwt>
<totfact> 0.67269227E+04</totfact>
</mgrwt>
</event>
<event>
 7    0  0.4750554E-002  0.4553720E+03  0.7546771E-02  0.1026132E+00
         21   -1    0    0  502  501  0.00000000000E+00  0.00000000000E+00  0.65942460549E+02  0.65942460549E+02  0.00000000000E+00 0. -1.
         21   -1    0    0  501  502 -0.00000000000E+00 -0.00000000000E+00 -0.78615370654E+03  0.78615370654E+03  0.00000000000E+00 0. -1.
      99926    2    1    2    0    0  0.14210854715E-13 -0.71054273576E-14 -0.72021124599E+03  0.85209616709E+03  0.45537197884E+03 0.  0.
      99925    2    3    3    0    0  0.10544492121E+03  0.35355757002E+02 -0.41096898863E+03  0.50046149474E+03  0.26305424752E+03 0.  0.
         25    1    4    4    0    0  0.29625403090E+02 -0.13331149578E+02 -0.15684807019E+03  0.20323437032E+03  0.12509000000E+03 0.  0.
         25    1    4    4    0    0  0.75819518120E+02  0.48686906579E+02 -0.25412091844E+03  0.29722712442E+03  0.12509000000E+03 0.  0.
         25    1    3    3    0    0 -0.10544492121E+03 -0.35355757002E+02 -0.30924225736E+03  0.35163467235E+03  0.12509000000E+03 0.  0.
<mgrwt>
<rscale>  2 0.45537198E+03</rscale>
<asrwt>0</asrwt>
<pdfrwt beam="1">  1       21 0.96974210E-02 0.45537198E+03</pdfrwt>
<pdfrwt beam="2">  1       21 0.11561084E+00 0.45537198E+03</pdfrwt>
<totfact> 0.45213677E+04</totfact>
</mgrwt>
</event>
<event>
 7    0  0.4750554E-002  0.4523354E+03  0.7546771E-02  0.1027028E+00
         21   -1    0    0  502  501  0.00000000000E+00  0.00000000000E+00  0.23075518750E+03  0.23075518750E+03  0.00000000000E+00 0.  1.
         21   -1    0    0  501  502 -0.00000000000E+00 -0.00000000000E+00 -0.22167142868E+03  0.22167142868E+03  0.00000000000E+00 0.  1.
      99926    2    1    2    0    0 -0.71054273576E-14  0.00000000000E+00  0.90837588235E+01  0.45242661618E+03  0.45233541576E+03 0.  0.
      99925    2    3    3    0    0 -0.47851423949E+02 -0.82021232090E+02 -0.50978163097E+02  0.28428327301E+03  0.26306076278E+03 0.  0.
         25    1    4    4    0    0 -0.30627538809E+02 -0.71268700177E+02  0.13028443125E+01  0.14719537785E+03  0.12509000000E+03 0.  0.
         25    1    3    3    0    0  0.47851423949E+02  0.82021232090E+02  0.60061921920E+02  0.16814334317E+03  0.12509000000E+03 0.  0.
         25    1    4    4    0    0 -0.17223885140E+02 -0.10752531913E+02 -0.52281007409E+02  0.13708789515E+03  0.12509000000E+03 0.  0.
<mgrwt>
<rscale>  2 0.45233542E+03</rscale>
<asrwt>0</asrwt>
<pdfrwt beam="1">  1       21 0.33934587E-01 0.45233542E+03</pdfrwt>
<pdfrwt beam="2">  1       21 0.32598739E-01 0.45233542E+03</pdfrwt>
<totfact> 0.70215726E+04</totfact>
</mgrwt>
</event>
<event>
 7    0  0.4750554E-002  0.4481961E+03  0.7546771E-02  0.1028261E+00
         21   -1    0    0  502  501  0.00000000000E+00  0.00000000000E+00  0.33669681424E+02  0.33669681424E+02  0.00000000000E+00 0. -1.
         21   -1    0    0  501  502 -0.00000000000E+00 -0.00000000000E+00 -0.14915474655E+04  0.14915474655E+04  0.00000000000E+00 0. -1.
      99926    2    1    2    0    0  0.44408920985E-15  0.00000000000E+00 -0.14578777841E+04  0.15252171469E+04  0.44819606420E+03 0.  0.
      99925    2    3    3    0    0 -0.68846153188E+00  0.10545706672E+03 -0.86905238354E+03  0.91408334217E+03  0.26301073017E+03 0.  0.
         25    1    3    3    0    0  0.68846153188E+00 -0.10545706672E+03 -0.58882540052E+03  0.61113380474E+03  0.12509000000E+03 0.  0.
         25    1    4    4    0    0  0.23075856384E+02  0.17019268649E+02 -0.39103906692E+03  0.41155948611E+03  0.12509000000E+03 0.  0.
         25    1    4    4    0    0 -0.23764317916E+02  0.88437798076E+02 -0.47801331662E+03  0.50252385605E+03  0.12509000000E+03 0.  0.
<mgrwt>
<rscale>  2 0.44819606E+03</rscale>
<asrwt>0</asrwt>
<pdfrwt beam="1">  1       21 0.49514243E-02 0.44819606E+03</pdfrwt>
<pdfrwt beam="2">  1       21 0.21934519E+00 0.44819606E+03</pdfrwt>
<totfact> 0.24433739E+04</totfact>
</mgrwt>
</event>
<event>
 7    0  0.4750554E-002  0.4499406E+03  0.7546771E-02  0.1027740E+00
         21   -1    0    0  502  501  0.00000000000E+00  0.00000000000E+00  0.96764367693E+02  0.96764367693E+02  0.00000000000E+00 0.  1.
         21   -1    0    0  501  502 -0.00000000000E+00 -0.00000000000E+00 -0.52303999295E+03  0.52303999295E+03  0.00000000000E+00 0.  1.
      99926    2    1    2    0    0  0.00000000000E+00 -0.35527136788E-14 -0.42627562525E+03  0.61980436064E+03  0.44994059250E+03 0.  0.
      99925    2    3    3    0    0  0.10118611100E+03  0.13443307509E+02 -0.31958839082E+03  0.42628685325E+03  0.26299123584E+03 0.  0.
         25    1    4    4    0    0  0.83412521015E+02  0.33794929993E+02 -0.17152359918E+03  0.23058100340E+03  0.12509000000E+03 0.  0.
         25    1    3    3    0    0 -0.10118611100E+03 -0.13443307509E+02 -0.10668723443E+03  0.19351750739E+03  0.12509000000E+03 0.  0.
         25    1    4    4    0    0  0.17773589989E+02 -0.20351622484E+02 -0.14806479164E+03  0.19570584984E+03  0.12509000000E+03 0.  0.
<mgrwt>
<rscale>  2 0.44994059E+03</rscale>
<asrwt>0</asrwt>
<pdfrwt beam="1">  1       21 0.14230054E-01 0.44994059E+03</pdfrwt>
<pdfrwt beam="2">  1       21 0.76917645E-01 0.44994059E+03</pdfrwt>
<totfact> 0.59830192E+04</totfact>
</mgrwt>
</event>
<event>
 7    0  0.4750554E-002  0.4617379E+03  0.7546771E-02  0.1024278E+00
         21   -1    0    0  502  501  0.00000000000E+00  0.00000000000E+00  0.34048986089E+03  0.34048986089E+03  0.00000000000E+00 0. -1.
         21   -1    0    0  501  502 -0.00000000000E+00 -0.00000000000E+00 -0.15654054473E+03  0.15654054473E+03  0.00000000000E+00 0. -1.
      99926    2    1    2    0    0  0.00000000000E+00  0.00000000000E+00  0.18394931616E+03  0.49703040562E+03  0.46173788365E+03 0.  0.
      99925    2    3    3    0    0  0.10368593440E+03 -0.57184747913E+02  0.13120469361E+03  0.31689053859E+03  0.26302865516E+03 0.  0.
         25    1    4    4    0    0  0.75134425083E+02 -0.65348846893E+02  0.72249877807E+02  0.17545143649E+03  0.12509000000E+03 0.  0.
         25    1    3    3    0    0 -0.10368593440E+03  0.57184747913E+02  0.52744622545E+02  0.18013986703E+03  0.12509000000E+03 0.  0.
         25    1    4    4    0    0  0.28551509315E+02  0.81640989796E+01  0.58954815807E+02  0.14143910210E+03  0.12509000000E+03 0.  0.
<mgrwt>
<rscale>  2 0.46173788E+03</rscale>
<asrwt>0</asrwt>
<pdfrwt beam="1">  1       21 0.50072038E-01 0.46173788E+03</pdfrwt>
<pdfrwt beam="2">  1       21 0.23020668E-01 0.46173788E+03</pdfrwt>
<totfact> 0.62091497E+04</totfact>
</mgrwt>
</event>
<event>
 7    0  0.4750554E-002  0.4522852E+03  0.7546771E-02  0.1027043E+00
         21   -1    0    0  502  501  0.00000000000E+00  0.00000000000E+00  0.39509963508E+03  0.39509963508E+03  0.00000000000E+00 0.  1.
         21   -1    0    0  501  502 -0.00000000000E+00 -0.00000000000E+00 -0.12943693666E+03  0.12943693666E+03  0.00000000000E+00 0.  1.
      99926    2    1    2    0    0  0.00000000000E+00  0.00000000000E+00  0.26566269842E+03  0.52453657174E+03  0.45228524822E+03 0.  0.
      99925    2    3    3    0    0 -0.79463631728E+02  0.73091793744E+02  0.19533904679E+03  0.34495426983E+03  0.26301944034E+03 0.  0.
         25    1    3    3    0    0  0.79463631728E+02 -0.73091793744E+02  0.70323651626E+02  0.17958230191E+03  0.12509000000E+03 0.  0.
         25    1    4    4    0    0 -0.56557318480E+02  0.12994712927E+02  0.13130024526E+03  0.19040707798E+03  0.12509000000E+03 0.  0.
         25    1    4    4    0    0 -0.22906313248E+02  0.60097080817E+02  0.64038801529E+02  0.15454719186E+03  0.12509000000E+03 0.  0.
<mgrwt>
<rscale>  2 0.45228525E+03</rscale>
<asrwt>0</asrwt>
<pdfrwt beam="1">  1       21 0.58102887E-01 0.45228525E+03</pdfrwt>
<pdfrwt beam="2">  1       21 0.19034844E-01 0.45228525E+03</pdfrwt>
<totfact> 0.64964691E+04</totfact>
</mgrwt>
</event>
<event>
 7    0  0.4750554E-002  0.4565539E+03  0.7546771E-02  0.1025785E+00
         21   -1    0    0  502  501  0.00000000000E+00  0.00000000000E+00  0.24301405457E+03  0.24301405457E+03  0.00000000000E+00 0. -1.
         21   -1    0    0  501  502 -0.00000000000E+00 -0.00000000000E+00 -0.21443359029E+03  0.21443359029E+03  0.00000000000E+00 0. -1.
      99926    2    1    2    0    0  0.00000000000E+00  0.00000000000E+00  0.28580464283E+02  0.45744764485E+03  0.45655394516E+03 0.  0.
      99925    2    3    3    0    0 -0.95198765486E+02 -0.37390410829E+02 -0.32281672378E+02  0.28478451749E+03  0.26381673044E+03 0.  0.
         25    1    4    4    0    0 -0.64490411019E+02 -0.46062137371E+02 -0.45750096289E+02  0.15498810607E+03  0.12509000000E+03 0.  0.
         25    1    3    3    0    0  0.95198765486E+02  0.37390410829E+02  0.60862136661E+02  0.17266312736E+03  0.12509000000E+03 0.  0.
         25    1    4    4    0    0 -0.30708354467E+02  0.86717265418E+01  0.13468423911E+02  0.12979641142E+03  0.12509000000E+03 0.  0.
<mgrwt>
<rscale>  2 0.45655395E+03</rscale>
<asrwt>0</asrwt>
<pdfrwt beam="1">  1       21 0.35737361E-01 0.45655395E+03</pdfrwt>
<pdfrwt beam="2">  1       21 0.31534351E-01 0.45655395E+03</pdfrwt>
<totfact> 0.67525768E+04</totfact>
</mgrwt>
</event>
<event>
 7    0  0.4750554E-002  0.4395246E+03  0.7546771E-02  0.1030893E+00
         21   -1    0    0  502  501  0.00000000000E+00  0.00000000000E+00  0.62807762450E+02  0.62807762450E+02  0.00000000000E+00 0.  1.
         21   -1    0    0  501  502 -0.00000000000E+00 -0.00000000000E+00 -0.76894110442E+03  0.76894110442E+03  0.00000000000E+00 0.  1.
      99926    2    1    2    0    0  0.00000000000E+00  0.14210854715E-13 -0.70613334197E+03  0.83174886687E+03  0.43952460784E+03 0.  0.
      99925    2    3    3    0    0 -0.54310318808E+02  0.80649233705E+02 -0.47325164486E+03  0.55008363548E+03  0.26300375859E+03 0.  0.
         25    1    3    3    0    0  0.54310318808E+02 -0.80649233705E+02 -0.23288169711E+03  0.28166523140E+03  0.12509000000E+03 0.  0.
         25    1    4    4    0    0 -0.30469247446E+02  0.81683922801E+02 -0.24014641376E+03  0.28446167831E+03  0.12509000000E+03 0.  0.
         25    1    4    4    0    0 -0.23841071362E+02 -0.10346890957E+01 -0.23310523109E+03  0.26562195717E+03  0.12509000000E+03 0.  0.
<mgrwt>
<rscale>  2 0.43952461E+03</rscale>
<asrwt>0</asrwt>
<pdfrwt beam="1">  1       21 0.92364368E-02 0.43952461E+03</pdfrwt>
<pdfrwt beam="2">  1       21 0.11307956E+00 0.43952461E+03</pdfrwt>
<totfact> 0.52338442E+04</totfact>
</mgrwt>
</event>
<event>
 7    0  0.4750554E-002  0.4560448E+03  0.7546771E-02  0.1025935E+00
         21   -1    0    0  502  501  0.00000000000E+00  0.00000000000E+00  0.78886035794E+03  0.78886035794E+03  0.00000000000E+00 0. -1.
         21   -1    0    0  501  502 -0.00000000000E+00 -0.00000000000E+00 -0.65910543098E+02  0.65910543098E+02  0.00000000000E+00 0. -1.
      99926    2    1    2    0    0  0.00000000000E+00  0.22204460493E-15  0.72294981485E+03  0.85477090104E+03  0.45604479877E+03 0.  0.
      99925    2    3    3    0    0 -0.11424219615E+03 -0.17873193748E+01  0.46010434174E+03  0.54205741441E+03  0.26282268040E+03 0.  0.
         25    1    4    4    0    0 -0.52230919248E+02 -0.12503477469E+02  0.29946533830E+03  0.32895501641E+03  0.12509000000E+03 0.  0.
         25    1    4    4    0    0 -0.62011276903E+02  0.10716158094E+02  0.16063900343E+03  0.21310239800E+03  0.12509000000E+03 0.  0.
         25    1    3    3    0    0  0.11424219615E+03  0.17873193748E+01  0.26284547311E+03  0.31271348664E+03  0.12509000000E+03 0.  0.
<mgrwt>
<rscale>  2 0.45604480E+03</rscale>
<asrwt>0</asrwt>
<pdfrwt beam="1">  1       21 0.11600887E+00 0.45604480E+03</pdfrwt>
<pdfrwt beam="2">  1       21 0.96927274E-02 0.45604480E+03</pdfrwt>
<totfact> 0.44857936E+04</totfact>
</mgrwt>
</event>
<event>
 7    0  0.4750554E-002  0.4562429E+03  0.7546771E-02  0.1025877E+00
         21   -1    0    0  502  501  0.00000000000E+00  0.00000000000E+00  0.73218754279E+02  0.73218754279E+02  0.00000000000E+00 0.  1.
         21   -1    0    0  501  502 -0.00000000000E+00 -0.00000000000E+00 -0.71073864378E+03  0.71073864378E+03  0.00000000000E+00 0.  1.
      99926    2    1    2    0    0  0.00000000000E+00  0.00000000000E+00 -0.63751988950E+03  0.78395739806E+03  0.45624290949E+03 0.  0.
      99925    2    3    3    0    0 -0.64325728835E+02  0.79484609012E+02 -0.31268091802E+03  0.42115791080E+03  0.26296202555E+03 0.  0.
         25    1    3    3    0    0  0.64325728835E+02 -0.79484609012E+02 -0.32483897148E+03  0.36279948726E+03  0.12509000000E+03 0.  0.
         25    1    4    4    0    0 -0.20221810191E+02  0.77144748445E+02 -0.18383987962E+03  0.23623048757E+03  0.12509000000E+03 0.  0.
         25    1    4    4    0    0 -0.44103918643E+02  0.23398605674E+01 -0.12884103840E+03  0.18492742323E+03  0.12509000000E+03 0.  0.
<mgrwt>
<rscale>  2 0.45624291E+03</rscale>
<asrwt>0</asrwt>
<pdfrwt beam="1">  1       21 0.10767464E-01 0.45624291E+03</pdfrwt>
<pdfrwt beam="2">  1       21 0.10452038E+00 0.45624291E+03</pdfrwt>
<totfact> 0.48079839E+04</totfact>
</mgrwt>
</event>
<event>
 7    0  0.4750554E-002  0.4520435E+03  0.7546771E-02  0.1027114E+00
         21   -1    0    0  502  501  0.00000000000E+00  0.00000000000E+00  0.65284212678E+02  0.65284212678E+02  0.00000000000E+00 0. -1.
         21   -1    0    0  501  502 -0.00000000000E+00 -0.00000000000E+00 -0.78251416441E+03  0.78251416441E+03  0.00000000000E+00 0. -1.
      99926    2    1    2    0    0  0.35527136788E-14  0.00000000000E+00 -0.71722995173E+03  0.84779837709E+03  0.45204345425E+03 0.  0.
      99925    2    3    3    0    0  0.18750874055E+02 -0.93314094570E+02 -0.55572864673E+03  0.62243357252E+03  0.26368562318E+03 0.  0.
         25    1    3    3    0    0 -0.18750874055E+02  0.93314094570E+02 -0.16150130500E+03  0.22536480457E+03  0.12509000000E+03 0.  0.
         25    1    4    4    0    0  0.35057501827E+01 -0.98160342263E+01 -0.30259578452E+03  0.32759786587E+03  0.12509000000E+03 0.  0.
         25    1    4    4    0    0  0.15245123872E+02 -0.83498060344E+02 -0.25313286221E+03  0.29483570665E+03  0.12509000000E+03 0.  0.
<mgrwt>
<rscale>  2 0.45204345E+03</rscale>
<asrwt>0</asrwt>
<pdfrwt beam="1">  1       21 0.96006202E-02 0.45204345E+03</pdfrwt>
<pdfrwt beam="2">  1       21 0.11507560E+00 0.45204345E+03</pdfrwt>
<totfact> 0.46609685E+04</totfact>
</mgrwt>
</event>
<event>
 7    0  0.4750554E-002  0.4361744E+03  0.7546771E-02  0.1031927E+00
         21   -1    0    0  502  501  0.00000000000E+00  0.00000000000E+00  0.50590495959E+02  0.50590495959E+02  0.00000000000E+00 0.  1.
         21   -1    0    0  501  502 -0.00000000000E+00 -0.00000000000E+00 -0.94013761338E+03  0.94013761338E+03  0.00000000000E+00 0.  1.
      99926    2    1    2    0    0  0.00000000000E+00  0.00000000000E+00 -0.88954711743E+03  0.99072810934E+03  0.43617440608E+03 0.  0.
      99925    2    3    3    0    0  0.25310264701E+02  0.37216261321E+02 -0.75832898352E+03  0.80393580122E+03  0.26310504678E+03 0.  0.
         25    1    4    4    0    0 -0.17551728755E+01  0.16536675040E+02 -0.25980106884E+03  0.28882632450E+03  0.12509000000E+03 0.  0.
         25    1    4    4    0    0  0.27065437577E+02  0.20679586281E+02 -0.49852791468E+03  0.51510947673E+03  0.12509000000E+03 0.  0.
         25    1    3    3    0    0 -0.25310264701E+02 -0.37216261321E+02 -0.13121813391E+03  0.18679230812E+03  0.12509000000E+03 0.  0.
<mgrwt>
<rscale>  2 0.43617441E+03</rscale>
<asrwt>0</asrwt>
<pdfrwt beam="1">  1       21 0.74397790E-02 0.43617441E+03</pdfrwt>
<pdfrwt beam="2">  1       21 0.13825553E+00 0.43617441E+03</pdfrwt>
<totfact> 0.45918707E+04</totfact>
</mgrwt>
</event>
<event>
 7    0  0.4750554E-002  0.4572438E+03  0.7546771E-02  0.1025584E+00
         21   -1    0    0  502  501  0.00000000000E+00  0.00000000000E+00  0.21266943214E+03  0.21266943214E+03  0.00000000000E+00 0. -1.
         21   -1    0    0  501  502 -0.00000000000E+00 -0.00000000000E+00 -0.24577092544E+03  0.24577092544E+03  0.00000000000E+00 0. -1.
      99926    2    1    2    0    0  0.00000000000E+00  0.00000000000E+00 -0.33101493304E+02  0.45844035758E+03  0.45724375621E+03 0.  0.
      99925    2    3    3    0    0 -0.79910797303E+02  0.60371706112E+02  0.37151569685E+02  0.28347327672E+03  0.26257642899E+03 0.  0.
         25    1    4    4    0    0 -0.80050114344E+02  0.21997201839E+02  0.17104129515E+02  0.15110247199E+03  0.12509000000E+03 0.  0.
         25    1    4    4    0    0  0.13931704083E+00  0.38374504273E+02  0.20047440169E+02  0.13237080473E+03  0.12509000000E+03 0.  0.
         25    1    3    3    0    0  0.79910797303E+02 -0.60371706112E+02 -0.70253062989E+02  0.17496708086E+03  0.12509000000E+03 0.  0.
<mgrwt>
<rscale>  2 0.45724376E+03</rscale>
<asrwt>0</asrwt>
<pdfrwt beam="1">  1       21 0.31274916E-01 0.45724376E+03</pdfrwt>
<pdfrwt beam="2">  1       21 0.36142783E-01 0.45724376E+03</pdfrwt>
<totfact> 0.67085466E+04</totfact>
</mgrwt>
</event>
<event>
 7    0  0.4750554E-002  0.4497660E+03  0.7546771E-02  0.1027792E+00
         21   -1    0    0  502  501  0.00000000000E+00  0.00000000000E+00  0.92855906685E+02  0.92855906685E+02  0.00000000000E+00 0. -1.
         21   -1    0    0  501  502 -0.00000000000E+00 -0.00000000000E+00 -0.54463259219E+03  0.54463259219E+03  0.00000000000E+00 0. -1.
      99926    2    1    2    0    0  0.71054273576E-14  0.14210854715E-13 -0.45177668551E+03  0.63748849888E+03  0.44976595317E+03 0.  0.
      99925    2    3    3    0    0 -0.61917489745E+02 -0.75331255966E+02 -0.35201002446E+03  0.45011329129E+03  0.26302536763E+03 0.  0.
         25    1    4    4    0    0 -0.51363322162E+02 -0.24824339982E+01 -0.16293248981E+03  0.21175187763E+03  0.12509000000E+03 0.  0.
         25    1    4    4    0    0 -0.10554167583E+02 -0.72848821968E+02 -0.18907753465E+03  0.23836141367E+03  0.12509000000E+03 0.  0.
         25    1    3    3    0    0  0.61917489745E+02  0.75331255966E+02 -0.99766661046E+02  0.18737520759E+03  0.12509000000E+03 0.  0.
<mgrwt>
<rscale>  2 0.44976595E+03</rscale>
<asrwt>0</asrwt>
<pdfrwt beam="1">  1       21 0.13655280E-01 0.44976595E+03</pdfrwt>
<pdfrwt beam="2">  1       21 0.80093029E-01 0.44976595E+03</pdfrwt>
<totfact> 0.58820352E+04</totfact>
</mgrwt>
</event>
<event>
 7    0  0.4750554E-002  0.4569529E+03  0.7546771E-02  0.1025669E+00
         21   -1    0    0  502  501  0.00000000000E+00  0.00000000000E+00  0.13562696924E+03  0.13562696924E+03  0.00000000000E+00 0. -1.
         21   -1    0    0  501  502 -0.00000000000E+00 -0.00000000000E+00 -0.38489018535E+03  0.38489018535E+03  0.00000000000E+00 0. -1.
      99926    2    1    2    0    0  0.00000000000E+00  0.00000000000E+00 -0.24926321612E+03  0.52051715459E+03  0.45695290492E+03 0.  0.
      99925    2    3    3    0    0 -0.71745608739E+02  0.81951799427E+02 -0.19832146473E+03  0.34700606003E+03  0.26309365732E+03 0.  0.
         25    1    3    3    0    0  0.71745608739E+02 -0.81951799427E+02 -0.50941751382E+02  0.17351109456E+03  0.12509000000E+03 0.  0.
         25    1    4    4    0    0  0.32764357430E+01  0.49819000690E+02 -0.81891157061E+02  0.15762721074E+03  0.12509000000E+03 0.  0.
         25    1    4    4    0    0 -0.75022044482E+02  0.32132798737E+02 -0.11643030767E+03  0.18937884929E+03  0.12509000000E+03 0.  0.
<mgrwt>
<rscale>  2 0.45695290E+03</rscale>
<asrwt>0</asrwt>
<pdfrwt beam="1">  1       21 0.19945142E-01 0.45695290E+03</pdfrwt>
<pdfrwt beam="2">  1       21 0.56601498E-01 0.45695290E+03</pdfrwt>
<totfact> 0.62872226E+04</totfact>
</mgrwt>
</event>
<event>
 7    0  0.4750554E-002  0.4225000E+03  0.7546771E-02  0.1036256E+00
         21   -1    0    0  502  501  0.00000000000E+00  0.00000000000E+00  0.28774576730E+03  0.28774576730E+03  0.00000000000E+00 0.  1.
         21   -1    0    0  501  502 -0.00000000000E+00 -0.00000000000E+00 -0.15509025675E+03  0.15509025675E+03  0.00000000000E+00 0.  1.
      99926    2    1    2    0    0  0.00000000000E+00  0.26645352591E-14  0.13265551055E+03  0.44283602405E+03  0.42250001150E+03 0.  0.
      99925    2    3    3    0    0 -0.44268533017E+02  0.19323023381E+01  0.18886832440E+02  0.26803826369E+03  0.26367472680E+03 0.  0.
         25    1    4    4    0    0 -0.18899096185E+01 -0.30196565118E+02  0.28354561616E+02  0.13178351023E+03  0.12509000000E+03 0.  0.
         25    1    4    4    0    0 -0.42378623399E+02  0.32128867456E+02 -0.94677291760E+01  0.13625475346E+03  0.12509000000E+03 0.  0.
         25    1    3    3    0    0  0.44268533017E+02 -0.19323023381E+01  0.11376867811E+03  0.17479776036E+03  0.12509000000E+03 0.  0.
<mgrwt>
<rscale>  2 0.42250001E+03</rscale>
<asrwt>0</asrwt>
<pdfrwt beam="1">  1       21 0.42315554E-01 0.42250001E+03</pdfrwt>
<pdfrwt beam="2">  1       21 0.22807391E-01 0.42250001E+03</pdfrwt>
<totfact> 0.90745218E+04</totfact>
</mgrwt>
</event>
<event>
 7    0  0.4750554E-002  0.4506383E+03  0.7546771E-02  0.1027532E+00
         21   -1    0    0  502  501  0.00000000000E+00  0.00000000000E+00  0.11667837115E+03  0.11667837115E+03  0.00000000000E+00 0. -1.
         21   -1    0    0  501  502 -0.00000000000E+00 -0.00000000000E+00 -0.43511676766E+03  0.43511676766E+03  0.00000000000E+00 0. -1.
      99926    2    1    2    0    0  0.53290705182E-14 -0.71054273576E-14 -0.31843839651E+03  0.55179513881E+03  0.45063828382E+03 0.  0.
      99925    2    3    3    0    0  0.13845260541E+02 -0.42900016177E+02 -0.80825633779E+02  0.27950956126E+03  0.26374364283E+03 0.  0.
         25    1    4    4    0    0 -0.20865180615E+02  0.10062649505E+02 -0.43075153471E+02  0.13431153943E+03  0.12509000000E+03 0.  0.
         25    1    3    3    0    0 -0.13845260541E+02  0.42900016177E+02 -0.23761276273E+03  0.27228557754E+03  0.12509000000E+03 0.  0.
         25    1    4    4    0    0  0.34710441157E+02 -0.52962665682E+02 -0.37750480309E+02  0.14519802184E+03  0.12509000000E+03 0.  0.
<mgrwt>
<rscale>  2 0.45063828E+03</rscale>
<asrwt>0</asrwt>
<pdfrwt beam="1">  1       21 0.17158584E-01 0.45063828E+03</pdfrwt>
<pdfrwt beam="2">  1       21 0.63987760E-01 0.45063828E+03</pdfrwt>
<totfact> 0.63925569E+04</totfact>
</mgrwt>
</event>
<event>
 7    0  0.4750554E-002  0.4559924E+03  0.7546771E-02  0.1025950E+00
         21   -1    0    0  502  501  0.00000000000E+00  0.00000000000E+00  0.64489352496E+02  0.64489352496E+02  0.00000000000E+00 0. -1.
         21   -1    0    0  501  502 -0.00000000000E+00 -0.00000000000E+00 -0.80605955705E+03  0.80605955705E+03  0.00000000000E+00 0. -1.
      99926    2    1    2    0    0 -0.35527136788E-14  0.14210854715E-13 -0.74157020456E+03  0.87054890955E+03  0.45599236356E+03 0.  0.
      99925    2    3    3    0    0  0.20834372097E+02 -0.10794064375E+03 -0.52436231641E+03  0.59684829134E+03  0.26303381982E+03 0.  0.
         25    1    4    4    0    0  0.38651626367E+02 -0.80934205062E+02 -0.25000016333E+03  0.29358454240E+03  0.12509000000E+03 0.  0.
         25    1    4    4    0    0 -0.17817254269E+02 -0.27006438689E+02 -0.27436215308E+03  0.30326374894E+03  0.12509000000E+03 0.  0.
         25    1    3    3    0    0 -0.20834372097E+02  0.10794064375E+03 -0.21720788814E+03  0.27370061821E+03  0.12509000000E+03 0.  0.
<mgrwt>
<rscale>  2 0.45599236E+03</rscale>
<asrwt>0</asrwt>
<pdfrwt beam="1">  1       21 0.94837283E-02 0.45599236E+03</pdfrwt>
<pdfrwt beam="2">  1       21 0.11853817E+00 0.45599236E+03</pdfrwt>
<totfact> 0.44187075E+04</totfact>
</mgrwt>
</event>
<event>
 7    0  0.4750554E-002  0.4452460E+03  0.7546771E-02  0.1029149E+00
         21   -1    0    0  502  501  0.00000000000E+00  0.00000000000E+00  0.17476101967E+04  0.17476101967E+04  0.00000000000E+00 0.  1.
         21   -1    0    0  501  502 -0.00000000000E+00 -0.00000000000E+00 -0.28359292995E+02  0.28359292995E+02  0.00000000000E+00 0.  1.
      99926    2    1    2    0    0  0.00000000000E+00  0.00000000000E+00  0.17192509037E+04  0.17759694897E+04  0.44524595275E+03 0.  0.
      99925    2    3    3    0    0  0.47063137931E+01 -0.91797013646E+02  0.12843235542E+04  0.13141706714E+04  0.26288537555E+03 0.  0.
         25    1    3    3    0    0 -0.47063137931E+01  0.91797013646E+02  0.43492734956E+03  0.46179881832E+03  0.12509000000E+03 0.  0.
         25    1    4    4    0    0  0.31852249655E+02 -0.57034915950E+02  0.78196048625E+03  0.79459251041E+03  0.12509000000E+03 0.  0.
         25    1    4    4    0    0 -0.27145935862E+02 -0.34762097696E+02  0.50236306793E+03  0.51957816100E+03  0.12509000000E+03 0.  0.
<mgrwt>
<rscale>  2 0.44524595E+03</rscale>
<asrwt>0</asrwt>
<pdfrwt beam="1">  1       21 0.25700143E+00 0.44524595E+03</pdfrwt>
<pdfrwt beam="2">  1       21 0.41704854E-02 0.44524595E+03</pdfrwt>
<totfact> 0.19134058E+04</totfact>
</mgrwt>
</event>
<event>
 7    0  0.4750554E-002  0.4551275E+03  0.7546771E-02  0.1026204E+00
         21   -1    0    0  502  501  0.00000000000E+00  0.00000000000E+00  0.10991133832E+03  0.10991133832E+03  0.00000000000E+00 0. -1.
         21   -1    0    0  501  502 -0.00000000000E+00 -0.00000000000E+00 -0.47115492500E+03  0.47115492500E+03  0.00000000000E+00 0. -1.
      99926    2    1    2    0    0  0.00000000000E+00  0.00000000000E+00 -0.36124358668E+03  0.58106626332E+03  0.45512753538E+03 0.  0.
      99925    2    3    3    0    0  0.92857090307E+02 -0.32422842255E+02 -0.15549515545E+03  0.32096319727E+03  0.26299230162E+03 0.  0.
         25    1    4    4    0    0  0.31410437620E+02 -0.12769367346E+02 -0.31472933474E+02  0.13337063386E+03  0.12509000000E+03 0.  0.
         25    1    4    4    0    0  0.61446652687E+02 -0.19653474908E+02 -0.12402222198E+03  0.18759256341E+03  0.12509000000E+03 0.  0.
         25    1    3    3    0    0 -0.92857090307E+02  0.32422842255E+02 -0.20574843123E+03  0.26010306606E+03  0.12509000000E+03 0.  0.
<mgrwt>
<rscale>  2 0.45512754E+03</rscale>
<asrwt>0</asrwt>
<pdfrwt beam="1">  1       21 0.16163432E-01 0.45512754E+03</pdfrwt>
<pdfrwt beam="2">  1       21 0.69287488E-01 0.45512754E+03</pdfrwt>
<totfact> 0.59798776E+04</totfact>
</mgrwt>
</event>
<event>
 7    0  0.4750554E-002  0.4422633E+03  0.7546771E-02  0.1030055E+00
         21   -1    0    0  502  501  0.00000000000E+00  0.00000000000E+00  0.67449847646E+03  0.67449847646E+03  0.00000000000E+00 0.  1.
         21   -1    0    0  501  502 -0.00000000000E+00 -0.00000000000E+00 -0.72497150386E+02  0.72497150386E+02  0.00000000000E+00 0.  1.
      99926    2    1    2    0    0  0.00000000000E+00  0.00000000000E+00  0.60200132607E+03  0.74699562684E+03  0.44226334907E+03 0.  0.
      99925    2    3    3    0    0 -0.76538670877E+02  0.28176511506E+02  0.28333765491E+03  0.39507784190E+03  0.26297184361E+03 0.  0.
         25    1    4    4    0    0 -0.16044430969E+02  0.89678521780E+01  0.18376540149E+03  0.22305846100E+03  0.12509000000E+03 0.  0.
         25    1    4    4    0    0 -0.60494239908E+02  0.19208659328E+02  0.99572253415E+02  0.17201938090E+03  0.12509000000E+03 0.  0.
         25    1    3    3    0    0  0.76538670877E+02 -0.28176511506E+02  0.31866367116E+03  0.35191778494E+03  0.12509000000E+03 0.  0.
<mgrwt>
<rscale>  2 0.44226335E+03</rscale>
<asrwt>0</asrwt>
<pdfrwt beam="1">  1       21 0.99190949E-01 0.44226335E+03</pdfrwt>
<pdfrwt beam="2">  1       21 0.10661346E-01 0.44226335E+03</pdfrwt>
<totfact> 0.55804847E+04</totfact>
</mgrwt>
</event>
<event>
 7    0  0.4750554E-002  0.4613374E+03  0.7546771E-02  0.1024394E+00
         21   -1    0    0  502  501  0.00000000000E+00  0.00000000000E+00  0.59894525925E+03  0.59894525925E+03  0.00000000000E+00 0. -1.
         21   -1    0    0  501  502 -0.00000000000E+00 -0.00000000000E+00 -0.88836228972E+02  0.88836228972E+02  0.00000000000E+00 0. -1.
      99926    2    1    2    0    0  0.00000000000E+00  0.00000000000E+00  0.51010903028E+03  0.68778148822E+03  0.46133735245E+03 0.  0.
      99925    2    3    3    0    0 -0.74914553353E+02  0.64064525988E+02  0.21892918117E+03  0.35589345527E+03  0.26270460852E+03 0.  0.
         25    1    4    4    0    0 -0.43624704410E+02  0.65044660483E+02  0.14671037653E+03  0.20809941224E+03  0.12509000000E+03 0.  0.
         25    1    3    3    0    0  0.74914553353E+02 -0.64064525988E+02  0.29117984910E+03  0.33188803295E+03  0.12509000000E+03 0.  0.
         25    1    4    4    0    0 -0.31289848943E+02 -0.98013449444E+00  0.72218804640E+02  0.14779404303E+03  0.12509000000E+03 0.  0.
<mgrwt>
<rscale>  2 0.46133735E+03</rscale>
<asrwt>0</asrwt>
<pdfrwt beam="1">  1       21 0.88080183E-01 0.46133735E+03</pdfrwt>
<pdfrwt beam="2">  1       21 0.13064152E-01 0.46133735E+03</pdfrwt>
<totfact> 0.50979302E+04</totfact>
</mgrwt>
</event>
<event>
 7    0  0.4750554E-002  0.4568741E+03  0.7546771E-02  0.1025692E+00
         21   -1    0    0  502  501  0.00000000000E+00  0.00000000000E+00  0.45105410846E+02  0.45105410846E+02  0.00000000000E+00 0. -1.
         21   -1    0    0  501  502 -0.00000000000E+00 -0.00000000000E+00 -0.11569231466E+04  0.11569231466E+04  0.00000000000E+00 0. -1.
      99926    2    1    2    0    0 -0.35527136788E-14  0.00000000000E+00 -0.11118177357E+04  0.12020285574E+04  0.45687413515E+03 0.  0.
      99925    2    3    3    0    0 -0.30375112291E+02 -0.10421478364E+03 -0.79770434052E+03  0.84692561217E+03  0.26299697544E+03 0.  0.
         25    1    3    3    0    0  0.30375112291E+02  0.10421478364E+03 -0.31411339521E+03  0.35510294525E+03  0.12509000000E+03 0.  0.
         25    1    4    4    0    0  0.20277428218E+02 -0.61883096970E+02 -0.34749227340E+03  0.37501877281E+03  0.12509000000E+03 0.  0.
         25    1    4    4    0    0 -0.50652540509E+02 -0.42331686670E+02 -0.45021206712E+03  0.47190683936E+03  0.12509000000E+03 0.  0.
<mgrwt>
<rscale>  2 0.45687414E+03</rscale>
<asrwt>0</asrwt>
<pdfrwt beam="1">  1       21 0.66331482E-02 0.45687414E+03</pdfrwt>
<pdfrwt beam="2">  1       21 0.17013577E+00 0.45687414E+03</pdfrwt>
<totfact> 0.31627454E+04</totfact>
</mgrwt>
</event>
<event>
 7    0  0.4750554E-002  0.4522503E+03  0.7546771E-02  0.1027053E+00
         21   -1    0    0  502  501  0.00000000000E+00  0.00000000000E+00  0.30591632940E+02  0.30591632940E+02  0.00000000000E+00 0. -1.
         21   -1    0    0  501  502 -0.00000000000E+00 -0.00000000000E+00 -0.16714566971E+04  0.16714566971E+04  0.00000000000E+00 0. -1.
      99926    2    1    2    0    0  0.00000000000E+00  0.17763568394E-14 -0.16408650641E+04  0.17020483300E+04  0.45225032781E+03 0.  0.
      99925    2    3    3    0    0 -0.26963402865E+02 -0.10423647744E+02 -0.14367797917E+04  0.14609384297E+04  0.26300047122E+03 0.  0.
         25    1    4    4    0    0 -0.33223234359E+02 -0.40129906395E+02 -0.69881868454E+03  0.71183513165E+03  0.12509000000E+03 0.  0.
         25    1    4    4    0    0  0.62598314945E+01  0.29706258651E+02 -0.73796110719E+03  0.74910329803E+03  0.12509000000E+03 0.  0.
         25    1    3    3    0    0  0.26963402865E+02  0.10423647744E+02 -0.20408527239E+03  0.24110990032E+03  0.12509000000E+03 0.  0.
<mgrwt>
<rscale>  2 0.45225033E+03</rscale>
<asrwt>0</asrwt>
<pdfrwt beam="1">  1       21 0.44987693E-02 0.45225033E+03</pdfrwt>
<pdfrwt beam="2">  1       21 0.24580247E+00 0.45225033E+03</pdfrwt>
<totfact> 0.19634938E+04</totfact>
</mgrwt>
</event>
<event>
 7    0  0.4750554E-002  0.4480537E+03  0.7546771E-02  0.1028304E+00
         21   -1    0    0  502  501  0.00000000000E+00  0.00000000000E+00  0.59370785560E+03  0.59370785560E+03  0.00000000000E+00 0.  1.
         21   -1    0    0  501  502 -0.00000000000E+00 -0.00000000000E+00 -0.84533219096E+02  0.84533219096E+02  0.00000000000E+00 0.  1.
      99926    2    1    2    0    0  0.00000000000E+00  0.00000000000E+00  0.50917463651E+03  0.67824107470E+03  0.44805372998E+03 0.  0.
      99925    2    3    3    0    0  0.26165788864E+02  0.10056659956E+03  0.28744304417E+03  0.40326708212E+03  0.26306376874E+03 0.  0.
         25    1    4    4    0    0  0.30581477608E+02  0.41563932796E+02  0.19308767667E+03  0.23578198885E+03  0.12509000000E+03 0.  0.
         25    1    4    4    0    0 -0.44156887436E+01  0.59002666768E+02  0.94355367500E+02  0.16748509327E+03  0.12509000000E+03 0.  0.
         25    1    3    3    0    0 -0.26165788864E+02 -0.10056659956E+03  0.22173159234E+03  0.27497399258E+03  0.12509000000E+03 0.  0.
<mgrwt>
<rscale>  2 0.44805373E+03</rscale>
<asrwt>0</asrwt>
<pdfrwt beam="1">  1       21 0.87309977E-01 0.44805373E+03</pdfrwt>
<pdfrwt beam="2">  1       21 0.12431356E-01 0.44805373E+03</pdfrwt>
<totfact> 0.57163985E+04</totfact>
</mgrwt>
</event>
<event>
 7    0  0.4750554E-002  0.4552513E+03  0.7546771E-02  0.1026168E+00
         21   -1    0    0  502  501  0.00000000000E+00  0.00000000000E+00  0.29582505637E+03  0.29582505637E+03  0.00000000000E+00 0.  1.
         21   -1    0    0  501  502 -0.00000000000E+00 -0.00000000000E+00 -0.17514892250E+03  0.17514892250E+03  0.00000000000E+00 0.  1.
      99926    2    1    2    0    0  0.17763568394E-14  0.00000000000E+00  0.12067613387E+03  0.47097397887E+03  0.45525131465E+03 0.  0.
      99925    2    3    3    0    0  0.13070532904E+02 -0.13261510084E+02 -0.39765310348E+02  0.26668087668E+03  0.26304125836E+03 0.  0.
         25    1    4    4    0    0  0.47496613424E+01 -0.40086696127E+02  0.31638245414E+01  0.13148011399E+03  0.12509000000E+03 0.  0.
         25    1    3    3    0    0 -0.13070532904E+02  0.13261510084E+02  0.16044144421E+03  0.20429310219E+03  0.12509000000E+03 0.  0.
         25    1    4    4    0    0  0.83208715620E+01  0.26825186043E+02 -0.42929134889E+02  0.13520076269E+03  0.12509000000E+03 0.  0.
<mgrwt>
<rscale>  2 0.45525131E+03</rscale>
<asrwt>0</asrwt>
<pdfrwt beam="1">  1       21 0.43503685E-01 0.45525131E+03</pdfrwt>
<pdfrwt beam="2">  1       21 0.25757194E-01 0.45525131E+03</pdfrwt>
<totfact> 0.67229202E+04</totfact>
</mgrwt>
</event>
<event>
 7    0  0.4750554E-002  0.4547232E+03  0.7546771E-02  0.1026323E+00
         21   -1    0    0  502  501  0.00000000000E+00  0.00000000000E+00  0.17707633330E+03  0.17707633330E+03  0.00000000000E+00 0. -1.
         21   -1    0    0  501  502 -0.00000000000E+00 -0.00000000000E+00 -0.29192666991E+03  0.29192666991E+03  0.00000000000E+00 0. -1.
      99926    2    1    2    0    0  0.00000000000E+00  0.35527136788E-14 -0.11485033661E+03  0.46900300322E+03  0.45472323144E+03 0.  0.
      99925    2    3    3    0    0 -0.90931374035E+02  0.23770621135E+02 -0.77977227954E+01  0.27942102243E+03  0.26302423098E+03 0.  0.
         25    1    3    3    0    0  0.90931374035E+02 -0.23770621135E+02 -0.10705261381E+03  0.18958198078E+03  0.12509000000E+03 0.  0.
         25    1    4    4    0    0 -0.46453817098E+02 -0.27573620789E+02 -0.13776116423E+02  0.13695090788E+03  0.12509000000E+03 0.  0.
         25    1    4    4    0    0 -0.44477556937E+02  0.51344241924E+02  0.59783936272E+01  0.14247011455E+03  0.12509000000E+03 0.  0.
<mgrwt>
<rscale>  2 0.45472323E+03</rscale>
<asrwt>0</asrwt>
<pdfrwt beam="1">  1       21 0.26040637E-01 0.45472323E+03</pdfrwt>
<pdfrwt beam="2">  1       21 0.42930392E-01 0.45472323E+03</pdfrwt>
<totfact> 0.67658389E+04</totfact>
</mgrwt>
</event>
<event>
 7    0  0.4750554E-002  0.4568778E+03  0.7546771E-02  0.1025691E+00
         21   -1    0    0  502  501  0.00000000000E+00  0.00000000000E+00  0.10675113780E+04  0.10675113780E+04  0.00000000000E+00 0.  1.
         21   -1    0    0  501  502 -0.00000000000E+00 -0.00000000000E+00 -0.48884094263E+02  0.48884094263E+02  0.00000000000E+00 0.  1.
      99926    2    1    2    0    0  0.00000000000E+00  0.00000000000E+00  0.10186272837E+04  0.11163954723E+04  0.45687778159E+03 0.  0.
      99925    2    3    3    0    0  0.10473144311E+03  0.41200189172E+02  0.58338165490E+03  0.64975600085E+03  0.26302580595E+03 0.  0.
         25    1    4    4    0    0  0.89146108590E+02  0.30093531273E+02  0.36876565122E+03  0.40060986373E+03  0.12509000000E+03 0.  0.
         25    1    3    3    0    0 -0.10473144311E+03 -0.41200189172E+02  0.43524562882E+03  0.46663947140E+03  0.12509000000E+03 0.  0.
         25    1    4    4    0    0  0.15585334520E+02  0.11106657899E+02  0.21461600368E+03  0.24914613711E+03  0.12509000000E+03 0.  0.
<mgrwt>
<rscale>  2 0.45687778E+03</rscale>
<asrwt>0</asrwt>
<pdfrwt beam="1">  1       21 0.15698695E+00 0.45687778E+03</pdfrwt>
<pdfrwt beam="2">  1       21 0.71888381E-02 0.45687778E+03</pdfrwt>
<totfact> 0.34417682E+04</totfact>
</mgrwt>
</event>
<event>
 7    0  0.4750554E-002  0.4620298E+03  0.7546771E-02  0.1024194E+00
         21   -1    0    0  502  501  0.00000000000E+00  0.00000000000E+00  0.12638685027E+03  0.12638685027E+03  0.00000000000E+00 0.  1.
         21   -1    0    0  501  502 -0.00000000000E+00 -0.00000000000E+00 -0.42225814341E+03  0.42225814341E+03  0.00000000000E+00 0.  1.
      99926    2    1    2    0    0  0.00000000000E+00 -0.71054273576E-14 -0.29587129314E+03  0.54864499369E+03  0.46202976851E+03 0.  0.
      99925    2    3    3    0    0  0.72753476184E+01 -0.35421415892E+02 -0.32050191415E+03  0.41612411617E+03  0.26292621720E+03 0.  0.
         25    1    4    4    0    0  0.12592474202E+02 -0.26136728768E+02 -0.22234066495E+03  0.25675782050E+03  0.12509000000E+03 0.  0.
         25    1    4    4    0    0 -0.53171265833E+01 -0.92846871248E+01 -0.98161249208E+02  0.15936629567E+03  0.12509000000E+03 0.  0.
         25    1    3    3    0    0 -0.72753476184E+01  0.35421415892E+02  0.24630621013E+02  0.13252087752E+03  0.12509000000E+03 0.  0.
<mgrwt>
<rscale>  2 0.46202977E+03</rscale>
<asrwt>0</asrwt>
<pdfrwt beam="1">  1       21 0.18586302E-01 0.46202977E+03</pdfrwt>
<pdfrwt beam="2">  1       21 0.62096785E-01 0.46202977E+03</pdfrwt>
<totfact> 0.58626537E+04</totfact>
</mgrwt>
</event>
<event>
 7    0  0.4750554E-002  0.4520426E+03  0.7546771E-02  0.1027115E+00
         21   -1    0    0  502  501  0.00000000000E+00  0.00000000000E+00  0.17801796875E+04  0.17801796875E+04  0.00000000000E+00 0.  1.
         21   -1    0    0  501  502 -0.00000000000E+00 -0.00000000000E+00 -0.28696888297E+02  0.28696888297E+02  0.00000000000E+00 0.  1.
      99926    2    1    2    0    0  0.54470317146E-15  0.00000000000E+00  0.17514827992E+04  0.18088765758E+04  0.45204255394E+03 0.  0.
      99925    2    3    3    0    0  0.15184890024E-01 -0.39948993432E+02  0.15174163670E+04  0.15404915444E+04  0.26261349007E+03 0.  0.
         25    1    4    4    0    0  0.64060148648E+01 -0.27417154652E+02  0.98962531204E+03  0.99789704065E+03  0.12509000000E+03 0.  0.
         25    1    3    3    0    0 -0.15184890024E-01  0.39948993432E+02  0.23406643225E+03  0.26838503147E+03  0.12509000000E+03 0.  0.
         25    1    4    4    0    0 -0.63908299748E+01 -0.12531838781E+02  0.52779105494E+03  0.54259450372E+03  0.12509000000E+03 0.  0.
<mgrwt>
<rscale>  2 0.45204255E+03</rscale>
<asrwt>0</asrwt>
<pdfrwt beam="1">  1       21 0.26179106E+00 0.45204255E+03</pdfrwt>
<pdfrwt beam="2">  1       21 0.42201318E-02 0.45204255E+03</pdfrwt>
<totfact> 0.17487594E+04</totfact>
</mgrwt>
</event>
<event>
 7    0  0.4750554E-002  0.4537197E+03  0.7546771E-02  0.1026619E+00
         21   -1    0    0  502  501  0.00000000000E+00  0.00000000000E+00  0.14518507580E+03  0.14518507580E+03  0.00000000000E+00 0. -1.
         21   -1    0    0  501  502 -0.00000000000E+00 -0.00000000000E+00 -0.35448134775E+03  0.35448134775E+03  0.00000000000E+00 0. -1.
      99926    2    1    2    0    0  0.00000000000E+00  0.00000000000E+00 -0.20929627195E+03  0.49966642355E+03  0.45371974321E+03 0.  0.
      99925    2    3    3    0    0  0.67546295416E+02 -0.10051693773E+02 -0.22947769496E+03  0.35572776819E+03  0.26309445834E+03 0.  0.
         25    1    4    4    0    0  0.64669953624E+02 -0.16157575527E+02 -0.15478219014E+03  0.20987687970E+03  0.12509000000E+03 0.  0.
         25    1    3    3    0    0 -0.67546295416E+02  0.10051693773E+02  0.20181423014E+02  0.14393865536E+03  0.12509000000E+03 0.  0.
         25    1    4    4    0    0  0.28763417921E+01  0.61058817537E+01 -0.74695504821E+02  0.14585088849E+03  0.12509000000E+03 0.  0.
<mgrwt>
<rscale>  2 0.45371974E+03</rscale>
<asrwt>0</asrwt>
<pdfrwt beam="1">  1       21 0.21350746E-01 0.45371974E+03</pdfrwt>
<pdfrwt beam="2">  1       21 0.52129610E-01 0.45371974E+03</pdfrwt>
<totfact> 0.65961907E+04</totfact>
</mgrwt>
</event>
<event>
 7    0  0.4750554E-002  0.4538105E+03  0.7546771E-02  0.1026592E+00
         21   -1    0    0  502  501  0.00000000000E+00  0.00000000000E+00  0.19232872108E+03  0.19232872108E+03  0.00000000000E+00 0.  1.
         21   -1    0    0  501  502 -0.00000000000E+00 -0.00000000000E+00 -0.26769793563E+03  0.26769793563E+03  0.00000000000E+00 0.  1.
      99926    2    1    2    0    0  0.14210854715E-13 -0.35527136788E-14 -0.75369214548E+02  0.46002665671E+03  0.45381054018E+03 0.  0.
      99925    2    3    3    0    0  0.10907244610E+03 -0.25053197104E+02 -0.42976492816E+02  0.28908439246E+03  0.26305578467E+03 0.  0.
         25    1    4    4    0    0  0.25971369824E+02  0.11131803854E+01 -0.48206880698E+02  0.13655461423E+03  0.12509000000E+03 0.  0.
         25    1    4    4    0    0  0.83101076280E+02 -0.26166377490E+02  0.52303878818E+01  0.15252977823E+03  0.12509000000E+03 0.  0.
         25    1    3    3    0    0 -0.10907244610E+03  0.25053197104E+02 -0.32392721732E+02  0.17094226425E+03  0.12509000000E+03 0.  0.
<mgrwt>
<rscale>  2 0.45381054E+03</rscale>
<asrwt>0</asrwt>
<pdfrwt beam="1">  1       21 0.28283636E-01 0.45381054E+03</pdfrwt>
<pdfrwt beam="2">  1       21 0.39367343E-01 0.45381054E+03</pdfrwt>
<totfact> 0.68829100E+04</totfact>
</mgrwt>
</event>
<event>
 7    0  0.4750554E-002  0.4450977E+03  0.7546771E-02  0.1029194E+00
         21   -1    0    0  502  501  0.00000000000E+00  0.00000000000E+00  0.50766155252E+03  0.50766155252E+03  0.00000000000E+00 0.  1.
         21   -1    0    0  501  502 -0.00000000000E+00 -0.00000000000E+00 -0.97561055847E+02  0.97561055847E+02  0.00000000000E+00 0.  1.
      99926    2    1    2    0    0  0.00000000000E+00  0.00000000000E+00  0.41010049667E+03  0.60522260837E+03  0.44509772894E+03 0.  0.
      99925    2    3    3    0    0 -0.34457569603E+02  0.68563670853E+02  0.16571686902E+03  0.32016267322E+03  0.26297101661E+03 0.  0.
         25    1    4    4    0    0 -0.50487561681E+02  0.47961219765E+02  0.63924567126E+02  0.15679008536E+03  0.12509000000E+03 0.  0.
         25    1    3    3    0    0  0.34457569603E+02 -0.68563670853E+02  0.24438362765E+03  0.28505993515E+03  0.12509000000E+03 0.  0.
         25    1    4    4    0    0  0.16029992078E+02  0.20602451088E+02  0.10179230190E+03  0.16337258786E+03  0.12509000000E+03 0.  0.
<mgrwt>
<rscale>  2 0.44509773E+03</rscale>
<asrwt>0</asrwt>
<pdfrwt beam="1">  1       21 0.74656109E-01 0.44509773E+03</pdfrwt>
<pdfrwt beam="2">  1       21 0.14347214E-01 0.44509773E+03</pdfrwt>
<totfact> 0.63155122E+04</totfact>
</mgrwt>
</event>
<event>
 7    0  0.4750554E-002  0.4543175E+03  0.7546771E-02  0.1026442E+00
         21   -1    0    0  502  501  0.00000000000E+00  0.00000000000E+00  0.59762284094E+02  0.59762284094E+02  0.00000000000E+00 0. -1.
         21   -1    0    0  501  502 -0.00000000000E+00 -0.00000000000E+00 -0.86343922849E+03  0.86343922849E+03  0.00000000000E+00 0. -1.
      99926    2    1    2    0    0  0.00000000000E+00  0.00000000000E+00 -0.80367694440E+03  0.92320151259E+03  0.45431751219E+03 0.  0.
      99925    2    3    3    0    0  0.84046614623E+02  0.73939547840E+02 -0.53032062457E+03  0.60241797832E+03  0.26293833041E+03 0.  0.
         25    1    3    3    0    0 -0.84046614623E+02 -0.73939547840E+02 -0.27335631983E+03  0.32078353427E+03  0.12509000000E+03 0.  0.
         25    1    4    4    0    0  0.50142670672E+02  0.11925298369E+02 -0.19224466036E+03  0.23507874787E+03  0.12509000000E+03 0.  0.
         25    1    4    4    0    0  0.33903943950E+02  0.62014249470E+02 -0.33807596421E+03  0.36733923045E+03  0.12509000000E+03 0.  0.
<mgrwt>
<rscale>  2 0.45431751E+03</rscale>
<asrwt>0</asrwt>
<pdfrwt beam="1">  1       21 0.87885718E-02 0.45431751E+03</pdfrwt>
<pdfrwt beam="2">  1       21 0.12697635E+00 0.45431751E+03</pdfrwt>
<totfact> 0.42471787E+04</totfact>
</mgrwt>
</event>
<event>
 7    0  0.4750554E-002  0.4560412E+03  0.7546771E-02  0.1025936E+00
         21   -1    0    0  502  501  0.00000000000E+00  0.00000000000E+00  0.10424030528E+03  0.10424030528E+03  0.00000000000E+00 0.  1.
         21   -1    0    0  501  502 -0.00000000000E+00 -0.00000000000E+00 -0.49878401887E+03  0.49878401887E+03  0.00000000000E+00 0.  1.
      99926    2    1    2    0    0  0.00000000000E+00  0.00000000000E+00 -0.39454371358E+03  0.60302432415E+03  0.45604121918E+03 0.  0.
      99925    2    3    3    0    0  0.58563893176E+02  0.93377797417E+02 -0.28547908399E+03  0.40379645420E+03  0.26344662913E+03 0.  0.
         25    1    4    4    0    0  0.22120219652E+02  0.83797107554E+02 -0.18128735048E+03  0.23669362242E+03  0.12509000000E+03 0.  0.
         25    1    3    3    0    0 -0.58563893176E+02 -0.93377797417E+02 -0.10906462959E+03  0.19922786994E+03  0.12509000000E+03 0.  0.
         25    1    4    4    0    0  0.36443673524E+02  0.95806898627E+01 -0.10419173351E+03  0.16710283178E+03  0.12509000000E+03 0.  0.
<mgrwt>
<rscale>  2 0.45604122E+03</rscale>
<asrwt>0</asrwt>
<pdfrwt beam="1">  1       21 0.15329457E-01 0.45604122E+03</pdfrwt>
<pdfrwt beam="2">  1       21 0.73350589E-01 0.45604122E+03</pdfrwt>
<totfact> 0.58013787E+04</totfact>
</mgrwt>
</event>
<event>
 7    0  0.4750554E-002  0.4402023E+03  0.7546771E-02  0.1030685E+00
         21   -1    0    0  502  501  0.00000000000E+00  0.00000000000E+00  0.96160411504E+03  0.96160411504E+03  0.00000000000E+00 0.  1.
         21   -1    0    0  501  502 -0.00000000000E+00 -0.00000000000E+00 -0.50378857873E+02  0.50378857873E+02  0.00000000000E+00 0.  1.
      99926    2    1    2    0    0 -0.71054273576E-14  0.44408920985E-15  0.91122525716E+03  0.10119829729E+04  0.44020230368E+03 0.  0.
      99925    2    3    3    0    0  0.36686313763E+02  0.38559858930E+01  0.79138882093E+03  0.83486991920E+03  0.26334532813E+03 0.  0.
         25    1    3    3    0    0 -0.36686313763E+02 -0.38559858930E+01  0.11983643623E+03  0.17711305371E+03  0.12509000000E+03 0.  0.
         25    1    4    4    0    0  0.36348588286E+02  0.69811206821E+01  0.28807769583E+03  0.31623760505E+03  0.12509000000E+03 0.  0.
         25    1    4    4    0    0  0.33772547653E+00 -0.31251347891E+01  0.50331112510E+03  0.51863231415E+03  0.12509000000E+03 0.  0.
<mgrwt>
<rscale>  2 0.44020230E+03</rscale>
<asrwt>0</asrwt>
<pdfrwt beam="1">  1       21 0.14141236E+00 0.44020230E+03</pdfrwt>
<pdfrwt beam="2">  1       21 0.74086562E-02 0.44020230E+03</pdfrwt>
<totfact> 0.43519153E+04</totfact>
</mgrwt>
</event>
<event>
 7    0  0.4750554E-002  0.4468008E+03  0.7546771E-02  0.1028680E+00
         21   -1    0    0  502  501  0.00000000000E+00  0.00000000000E+00  0.92950996179E+03  0.92950996179E+03  0.00000000000E+00 0. -1.
         21   -1    0    0  501  502 -0.00000000000E+00 -0.00000000000E+00 -0.53692536642E+02  0.53692536642E+02  0.00000000000E+00 0. -1.
      99926    2    1    2    0    0  0.00000000000E+00 -0.35527136788E-14  0.87581742515E+03  0.98320249843E+03  0.44680084012E+03 0.  0.
      99925    2    3    3    0    0 -0.34200021392E+02 -0.29628435120E+02  0.76566987443E+03  0.81049616774E+03  0.26192784442E+03 0.  0.
         25    1    4    4    0    0 -0.25475749810E+02  0.57884966453E+01  0.28237622212E+03  0.30994573629E+03  0.12509000000E+03 0.  0.
         25    1    4    4    0    0 -0.87242715818E+01 -0.35416931765E+02  0.48329365231E+03  0.50055043146E+03  0.12509000000E+03 0.  0.
         25    1    3    3    0    0  0.34200021392E+02  0.29628435120E+02  0.11014755072E+03  0.17270633069E+03  0.12509000000E+03 0.  0.
<mgrwt>
<rscale>  2 0.44680084E+03</rscale>
<asrwt>0</asrwt>
<pdfrwt beam="1">  1       21 0.13669263E+00 0.44680084E+03</pdfrwt>
<pdfrwt beam="2">  1       21 0.78959619E-02 0.44680084E+03</pdfrwt>
<totfact> 0.42482553E+04</totfact>
</mgrwt>
</event>
<event>
 7    0  0.4750554E-002  0.4577297E+03  0.7546771E-02  0.1025442E+00
         21   -1    0    0  502  501  0.00000000000E+00  0.00000000000E+00  0.25441385833E+03  0.25441385833E+03  0.00000000000E+00 0.  1.
         21   -1    0    0  501  502 -0.00000000000E+00 -0.00000000000E+00 -0.20588153925E+03  0.20588153925E+03  0.00000000000E+00 0.  1.
      99926    2    1    2    0    0  0.00000000000E+00  0.35527136788E-14  0.48532319078E+02  0.46029539758E+03  0.45772968774E+03 0.  0.
      99925    2    3    3    0    0 -0.11379733787E+03 -0.12691218564E+02  0.46969070238E+02  0.29070514733E+03  0.26304465018E+03 0.  0.
         25    1    4    4    0    0 -0.85419697702E+02  0.23311069116E+02  0.17426589515E+02  0.15424371890E+03  0.12509000000E+03 0.  0.
         25    1    3    3    0    0  0.11379733787E+03  0.12691218564E+02  0.15632488404E+01  0.16959025026E+03  0.12509000000E+03 0.  0.
         25    1    4    4    0    0 -0.28377640171E+02 -0.36002287680E+02  0.29542480723E+02  0.13646142842E+03  0.12509000000E+03 0.  0.
<mgrwt>
<rscale>  2 0.45772969E+03</rscale>
<asrwt>0</asrwt>
<pdfrwt beam="1">  1       21 0.37413803E-01 0.45772969E+03</pdfrwt>
<pdfrwt beam="2">  1       21 0.30276697E-01 0.45772969E+03</pdfrwt>
<totfact> 0.66695128E+04</totfact>
</mgrwt>
</event>
<event>
 7    0  0.4750554E-002  0.4606681E+03  0.7546771E-02  0.1024588E+00
         21   -1    0    0  502  501  0.00000000000E+00  0.00000000000E+00  0.91770392912E+02  0.91770392912E+02  0.00000000000E+00 0. -1.
         21   -1    0    0  501  502 -0.00000000000E+00 -0.00000000000E+00 -0.57811422652E+03  0.57811422652E+03  0.00000000000E+00 0. -1.
      99926    2    1    2    0    0 -0.14210854715E-13 -0.71054273576E-14 -0.48634383361E+03  0.66988461943E+03  0.46066807884E+03 0.  0.
      99925    2    3    3    0    0  0.11157867415E+03  0.36012990912E+02 -0.28043412453E+03  0.40194236365E+03  0.26299739439E+03 0.  0.
         25    1    3    3    0    0 -0.11157867415E+03 -0.36012990912E+02 -0.20590970908E+03  0.26794225578E+03  0.12509000000E+03 0.  0.
         25    1    4    4    0    0  0.93803217795E+02  0.11923311537E+02 -0.18021415148E+03  0.23888461131E+03  0.12509000000E+03 0.  0.
         25    1    4    4    0    0  0.17775456355E+02  0.24089679375E+02 -0.10021997305E+03  0.16305775234E+03  0.12509000000E+03 0.  0.
<mgrwt>
<rscale>  2 0.46066808E+03</rscale>
<asrwt>0</asrwt>
<pdfrwt beam="1">  1       21 0.13495647E-01 0.46066808E+03</pdfrwt>
<pdfrwt beam="2">  1       21 0.85016795E-01 0.46066808E+03</pdfrwt>
<totfact> 0.52197026E+04</totfact>
</mgrwt>
</event>
<event>
 7    0  0.4750554E-002  0.4552987E+03  0.7546771E-02  0.1026154E+00
         21   -1    0    0  502  501  0.00000000000E+00  0.00000000000E+00  0.25400917156E+03  0.25400917156E+03  0.00000000000E+00 0.  1.
         21   -1    0    0  501  502 -0.00000000000E+00 -0.00000000000E+00 -0.20402501580E+03  0.20402501580E+03  0.00000000000E+00 0.  1.
      99926    2    1    2    0    0  0.00000000000E+00  0.00000000000E+00  0.49984155760E+02  0.45803418736E+03  0.45529869422E+03 0.  0.
      99925    2    3    3    0    0 -0.10310552508E+03  0.38636454618E+02  0.51952881440E+01  0.28547383360E+03  0.26333399652E+03 0.  0.
         25    1    4    4    0    0 -0.50927943537E+02  0.52047615369E+02 -0.22524566451E+02  0.14648369838E+03  0.12509000000E+03 0.  0.
         25    1    3    3    0    0  0.10310552508E+03 -0.38636454618E+02  0.44788867616E+02  0.17256035376E+03  0.12509000000E+03 0.  0.
         25    1    4    4    0    0 -0.52177581542E+02 -0.13411160751E+02  0.27719854595E+02  0.13899013521E+03  0.12509000000E+03 0.  0.
<mgrwt>
<rscale>  2 0.45529869E+03</rscale>
<asrwt>0</asrwt>
<pdfrwt beam="1">  1       21 0.37354290E-01 0.45529869E+03</pdfrwt>
<pdfrwt beam="2">  1       21 0.30003679E-01 0.45529869E+03</pdfrwt>
<totfact> 0.68161445E+04</totfact>
</mgrwt>
</event>
<event>
 7    0  0.4750554E-002  0.4480605E+03  0.7546771E-02  0.1028302E+00
         21   -1    0    0  502  501  0.00000000000E+00  0.00000000000E+00  0.90808596284E+03  0.90808596284E+03  0.00000000000E+00 0. -1.
         21   -1    0    0  501  502 -0.00000000000E+00 -0.00000000000E+00 -0.55269606907E+02  0.55269606907E+02  0.00000000000E+00 0. -1.
      99926    2    1    2    0    0  0.00000000000E+00  0.39968028887E-14  0.85281635593E+03  0.96335556974E+03  0.44806050575E+03 0.  0.
      99925    2    3    3    0    0 -0.15680214359E+02 -0.16018857802E+01  0.31365888034E+03  0.40965282752E+03  0.26303062696E+03 0.  0.
         25    1    4    4    0    0  0.55262627118E+01 -0.39054561583E+02  0.15202072763E+03  0.20078248950E+03  0.12509000000E+03 0.  0.
         25    1    4    4    0    0 -0.21206477071E+02  0.37452675802E+02  0.16163815271E+03  0.20887033802E+03  0.12509000000E+03 0.  0.
         25    1    3    3    0    0  0.15680214359E+02  0.16018857802E+01  0.53915747559E+03  0.55370274222E+03  0.12509000000E+03 0.  0.
<mgrwt>
<rscale>  2 0.44806051E+03</rscale>
<asrwt>0</asrwt>
<pdfrwt beam="1">  1       21 0.13354204E+00 0.44806051E+03</pdfrwt>
<pdfrwt beam="2">  1       21 0.81278839E-02 0.44806051E+03</pdfrwt>
<totfact> 0.42884627E+04</totfact>
</mgrwt>
</event>
<event>
 7    0  0.4750554E-002  0.4654769E+03  0.7546771E-02  0.1023205E+00
         21   -1    0    0  502  501  0.00000000000E+00  0.00000000000E+00  0.17474143997E+03  0.17474143997E+03  0.00000000000E+00 0.  1.
         21   -1    0    0  501  502 -0.00000000000E+00 -0.00000000000E+00 -0.30998481052E+03  0.30998481052E+03  0.00000000000E+00 0.  1.
      99926    2    1    2    0    0  0.00000000000E+00  0.00000000000E+00 -0.13524337056E+03  0.48472625049E+03  0.46547692600E+03 0.  0.
      99925    2    3    3    0    0 -0.49105737116E+02 -0.99105226812E+02 -0.13960026863E+03  0.31769418752E+03  0.26307440466E+03 0.  0.
         25    1    3    3    0    0  0.49105737116E+02  0.99105226812E+02  0.43568980701E+01  0.16703206297E+03  0.12509000000E+03 0.  0.
         25    1    4    4    0    0  0.57422884096E+01 -0.51446759337E+02 -0.37005667582E+02  0.14034482696E+03  0.12509000000E+03 0.  0.
         25    1    4    4    0    0 -0.54848025526E+02 -0.47658467475E+02 -0.10259460105E+03  0.17734936056E+03  0.12509000000E+03 0.  0.
<mgrwt>
<rscale>  2 0.46547693E+03</rscale>
<asrwt>0</asrwt>
<pdfrwt beam="1">  1       21 0.25697271E-01 0.46547693E+03</pdfrwt>
<pdfrwt beam="2">  1       21 0.45586001E-01 0.46547693E+03</pdfrwt>
<totfact> 0.61115273E+04</totfact>
</mgrwt>
</event>
<event>
 7    0  0.4750554E-002  0.4565865E+03  0.7546771E-02  0.1025776E+00
         21   -1    0    0  502  501  0.00000000000E+00  0.00000000000E+00  0.14768718836E+03  0.14768718836E+03  0.00000000000E+00 0. -1.
         21   -1    0    0  501  502 -0.00000000000E+00 -0.00000000000E+00 -0.35289326541E+03  0.35289326541E+03  0.00000000000E+00 0. -1.
      99926    2    1    2    0    0  0.00000000000E+00  0.00000000000E+00 -0.20520607705E+03  0.50058045377E+03  0.45658652699E+03 0.  0.
      99925    2    3    3    0    0  0.59727613570E+02 -0.63697750693E+02 -0.20933925440E+03  0.34797186121E+03  0.26388766833E+03 0.  0.
         25    1    4    4    0    0  0.18377372123E+02 -0.72707965082E+02 -0.10636467102E+03  0.18051351011E+03  0.12509000000E+03 0.  0.
         25    1    3    3    0    0 -0.59727613570E+02  0.63697750693E+02  0.41331773421E+01  0.15260859255E+03  0.12509000000E+03 0.  0.
         25    1    4    4    0    0  0.41350241447E+02  0.90102143892E+01 -0.10297458338E+03  0.16745835110E+03  0.12509000000E+03 0.  0.
<mgrwt>
<rscale>  2 0.45658653E+03</rscale>
<asrwt>0</asrwt>
<pdfrwt beam="1">  1       21 0.21718704E-01 0.45658653E+03</pdfrwt>
<pdfrwt beam="2">  1       21 0.51896068E-01 0.45658653E+03</pdfrwt>
<totfact> 0.64414832E+04</totfact>
</mgrwt>
</event>
<event>
 7    0  0.4750554E-002  0.4582693E+03  0.7546771E-02  0.1025284E+00
         21   -1    0    0  502  501  0.00000000000E+00  0.00000000000E+00  0.88453698625E+03  0.88453698625E+03  0.00000000000E+00 0.  1.
         21   -1    0    0  501  502 -0.00000000000E+00 -0.00000000000E+00 -0.59356118965E+02  0.59356118965E+02  0.00000000000E+00 0.  1.
      99926    2    1    2    0    0  0.00000000000E+00  0.00000000000E+00  0.82518086728E+03  0.94389310521E+03  0.45826927711E+03 0.  0.
      99925    2    3    3    0    0  0.71145231405E+02 -0.61633449659E+02  0.65769231430E+03  0.71463288287E+03  0.26321217852E+03 0.  0.
         25    1    3    3    0    0 -0.71145231405E+02  0.61633449659E+02  0.16748855298E+03  0.22926022234E+03  0.12509000000E+03 0.  0.
         25    1    4    4    0    0  0.47106634842E+02 -0.29838065699E+02  0.43576617068E+03  0.45678113886E+03  0.12509000000E+03 0.  0.
         25    1    4    4    0    0  0.24038596563E+02 -0.31795383960E+02  0.22192614363E+03  0.25785174402E+03  0.12509000000E+03 0.  0.
<mgrwt>
<rscale>  2 0.45826928E+03</rscale>
<asrwt>0</asrwt>
<pdfrwt beam="1">  1       21 0.13007896E+00 0.45826928E+03</pdfrwt>
<pdfrwt beam="2">  1       21 0.87288415E-02 0.45826928E+03</pdfrwt>
<totfact> 0.40347595E+04</totfact>
</mgrwt>
</event>
<event>
 7    0  0.4750554E-002  0.4413397E+03  0.7546771E-02  0.1030337E+00
         21   -1    0    0  502  501  0.00000000000E+00  0.00000000000E+00  0.50438946128E+02  0.50438946128E+02  0.00000000000E+00 0. -1.
         21   -1    0    0  501  502 -0.00000000000E+00 -0.00000000000E+00 -0.96542823606E+03  0.96542823606E+03  0.00000000000E+00 0. -1.
      99926    2    1    2    0    0  0.71054273576E-14  0.00000000000E+00 -0.91498928994E+03  0.10158671822E+04  0.44133970041E+03 0.  0.
      99925    2    3    3    0    0  0.61300094873E+02 -0.49501231965E+02 -0.44169031922E+03  0.52001690501E+03  0.26290524873E+03 0.  0.
         25    1    4    4    0    0  0.48476428832E+02 -0.60660843326E+02 -0.21571561605E+03  0.26117127938E+03  0.12509000000E+03 0.  0.
         25    1    4    4    0    0  0.12823666041E+02  0.11159611361E+02 -0.22597470317E+03  0.25884562563E+03  0.12509000000E+03 0.  0.
         25    1    3    3    0    0 -0.61300094873E+02  0.49501231965E+02 -0.47329897072E+03  0.49585027718E+03  0.12509000000E+03 0.  0.
<mgrwt>
<rscale>  2 0.44133970E+03</rscale>
<asrwt>0</asrwt>
<pdfrwt beam="1">  1       21 0.74174925E-02 0.44133970E+03</pdfrwt>
<pdfrwt beam="2">  1       21 0.14197473E+00 0.44133970E+03</pdfrwt>
<totfact> 0.42957465E+04</totfact>
</mgrwt>
</event>
<event>
 7    0  0.4750554E-002  0.4555352E+03  0.7546771E-02  0.1026084E+00
         21   -1    0    0  502  501  0.00000000000E+00  0.00000000000E+00  0.87961402487E+03  0.87961402487E+03  0.00000000000E+00 0. -1.
         21   -1    0    0  501  502 -0.00000000000E+00 -0.00000000000E+00 -0.58978236050E+02  0.58978236050E+02  0.00000000000E+00 0. -1.
      99926    2    1    2    0    0  0.00000000000E+00 -0.14210854715E-13  0.82063578882E+03  0.93859226092E+03  0.45553521748E+03 0.  0.
      99925    2    3    3    0    0  0.41104096839E+02  0.10163346146E+03  0.45390129083E+03  0.53590055827E+03  0.26295269399E+03 0.  0.
         25    1    3    3    0    0 -0.41104096839E+02 -0.10163346146E+03  0.36673449799E+03  0.40269170264E+03  0.12509000000E+03 0.  0.
         25    1    4    4    0    0 -0.52563097754E+01  0.69470510782E+02  0.27895014140E+03  0.31355138358E+03  0.12509000000E+03 0.  0.
         25    1    4    4    0    0  0.46360406614E+02  0.32162950677E+02  0.17495114944E+03  0.22234917469E+03  0.12509000000E+03 0.  0.
<mgrwt>
<rscale>  2 0.45553522E+03</rscale>
<asrwt>0</asrwt>
<pdfrwt beam="1">  1       21 0.12935500E+00 0.45553522E+03</pdfrwt>
<pdfrwt beam="2">  1       21 0.86732705E-02 0.45553522E+03</pdfrwt>
<totfact> 0.41432521E+04</totfact>
</mgrwt>
</event>
<event>
 7    0  0.4750554E-002  0.4528398E+03  0.7546771E-02  0.1026879E+00
         21   -1    0    0  502  501  0.00000000000E+00  0.00000000000E+00  0.61861245006E+03  0.61861245006E+03  0.00000000000E+00 0. -1.
         21   -1    0    0  501  502 -0.00000000000E+00 -0.00000000000E+00 -0.82872505240E+02  0.82872505240E+02  0.00000000000E+00 0. -1.
      99926    2    1    2    0    0  0.00000000000E+00  0.00000000000E+00  0.53573994482E+03  0.70148495531E+03  0.45283976641E+03 0.  0.
      99925    2    3    3    0    0  0.42282280118E+02 -0.56671122845E+02  0.20497918168E+03  0.34086105439E+03  0.26300263516E+03 0.  0.
         25    1    4    4    0    0  0.20925860853E+02 -0.55313075462E+02  0.14523378604E+03  0.20059359082E+03  0.12509000000E+03 0.  0.
         25    1    3    3    0    0 -0.42282280118E+02  0.56671122845E+02  0.33076076314E+03  0.36062390092E+03  0.12509000000E+03 0.  0.
         25    1    4    4    0    0  0.21356419266E+02 -0.13580473834E+01  0.59745395641E+02  0.14026746357E+03  0.12509000000E+03 0.  0.
<mgrwt>
<rscale>  2 0.45283977E+03</rscale>
<asrwt>0</asrwt>
<pdfrwt beam="1">  1       21 0.90972416E-01 0.45283977E+03</pdfrwt>
<pdfrwt beam="2">  1       21 0.12187133E-01 0.45283977E+03</pdfrwt>
<totfact> 0.53729995E+04</totfact>
</mgrwt>
</event>
<event>
 7    0  0.4750554E-002  0.4364275E+03  0.7546771E-02  0.1031849E+00
         21   -1    0    0  502  501  0.00000000000E+00  0.00000000000E+00  0.31689854306E+03  0.31689854306E+03  0.00000000000E+00 0. -1.
         21   -1    0    0  501  502 -0.00000000000E+00 -0.00000000000E+00 -0.15026020492E+03  0.15026020492E+03  0.00000000000E+00 0. -1.
      99926    2    1    2    0    0  0.00000000000E+00  0.35527136788E-14  0.16663833814E+03  0.46715874798E+03  0.43642749693E+03 0.  0.
      99925    2    3    3    0    0  0.43815384335E+01 -0.20593152626E+02  0.20554957662E+03  0.33447540918E+03  0.26302071228E+03 0.  0.
         25    1    4    4    0    0  0.21765309375E+02  0.26187746685E+01  0.14424586151E+03  0.19218471150E+03  0.12509000000E+03 0.  0.
         25    1    4    4    0    0 -0.17383770942E+02 -0.23211927294E+02  0.61303715105E+02  0.14229069768E+03  0.12509000000E+03 0.  0.
         25    1    3    3    0    0 -0.43815384335E+01  0.20593152626E+02 -0.38911238479E+02  0.13268333880E+03  0.12509000000E+03 0.  0.
<mgrwt>
<rscale>  2 0.43642750E+03</rscale>
<asrwt>0</asrwt>
<pdfrwt beam="1">  1       21 0.46602727E-01 0.43642750E+03</pdfrwt>
<pdfrwt beam="2">  1       21 0.22097089E-01 0.43642750E+03</pdfrwt>
<totfact> 0.78611454E+04</totfact>
</mgrwt>
</event>
<event>
 7    0  0.4750554E-002  0.4002830E+03  0.7546771E-02  0.1043682E+00
         21   -1    0    0  502  501  0.00000000000E+00  0.00000000000E+00  0.67057788995E+02  0.67057788995E+02  0.00000000000E+00 0.  1.
         21   -1    0    0  501  502 -0.00000000000E+00 -0.00000000000E+00 -0.59734486885E+03  0.59734486885E+03  0.00000000000E+00 0.  1.
      99926    2    1    2    0    0 -0.88817841970E-15  0.35527136788E-14 -0.53028707985E+03  0.66440265784E+03  0.40028303073E+03 0.  0.
      99925    2    3    3    0    0 -0.73100376904E+01  0.22967139262E+02 -0.28866105742E+03  0.39125147452E+03  0.26300491270E+03 0.  0.
         25    1    4    4    0    0  0.34910482839E+02  0.23808786670E+02 -0.14801777844E+03  0.19834911386E+03  0.12509000000E+03 0.  0.
         25    1    4    4    0    0 -0.42220520530E+02 -0.84164740885E+00 -0.14064327899E+03  0.19290236066E+03  0.12509000000E+03 0.  0.
         25    1    3    3    0    0  0.73100376904E+01 -0.22967139262E+02 -0.24162602243E+03  0.27315118332E+03  0.12509000000E+03 0.  0.
<mgrwt>
<rscale>  2 0.40028303E+03</rscale>
<asrwt>0</asrwt>
<pdfrwt beam="1">  1       21 0.98614400E-02 0.40028303E+03</pdfrwt>
<pdfrwt beam="2">  1       21 0.87844830E-01 0.40028303E+03</pdfrwt>
<totfact> 0.86596472E+04</totfact>
</mgrwt>
</event>
<event>
 7    0  0.4750554E-002  0.4401948E+03  0.7546771E-02  0.1030687E+00
         21   -1    0    0  502  501  0.00000000000E+00  0.00000000000E+00  0.43101512713E+03  0.43101512713E+03  0.00000000000E+00 0. -1.
         21   -1    0    0  501  502 -0.00000000000E+00 -0.00000000000E+00 -0.11239251787E+03  0.11239251787E+03  0.00000000000E+00 0. -1.
      99926    2    1    2    0    0  0.00000000000E+00  0.00000000000E+00  0.31862260926E+03  0.54340764500E+03  0.44019484494E+03 0.  0.
      99925    2    3    3    0    0 -0.82232544938E+02  0.23380002945E+02  0.26423617087E+03  0.38242873717E+03  0.26291095267E+03 0.  0.
         25    1    4    4    0    0 -0.76074554483E+02  0.21041237414E+02  0.17211416616E+03  0.22693802194E+03  0.12509000000E+03 0.  0.
         25    1    4    4    0    0 -0.61579904549E+01  0.23387655313E+01  0.92122004710E+02  0.15549071523E+03  0.12509000000E+03 0.  0.
         25    1    3    3    0    0  0.82232544938E+02 -0.23380002945E+02  0.54386438390E+02  0.16097890783E+03  0.12509000000E+03 0.  0.
<mgrwt>
<rscale>  2 0.44019484E+03</rscale>
<asrwt>0</asrwt>
<pdfrwt beam="1">  1       21 0.63384577E-01 0.44019484E+03</pdfrwt>
<pdfrwt beam="2">  1       21 0.16528312E-01 0.44019484E+03</pdfrwt>
<totfact> 0.70170796E+04</totfact>
</mgrwt>
</event>
<event>
 7    0  0.4750554E-002  0.4586597E+03  0.7546771E-02  0.1025171E+00
         21   -1    0    0  502  501  0.00000000000E+00  0.00000000000E+00  0.95844907273E+02  0.95844907273E+02  0.00000000000E+00 0.  1.
         21   -1    0    0  501  502 -0.00000000000E+00 -0.00000000000E+00 -0.54872173744E+03  0.54872173744E+03  0.00000000000E+00 0.  1.
      99926    2    1    2    0    0  0.00000000000E+00  0.00000000000E+00 -0.45287683016E+03  0.64456664471E+03  0.45865971719E+03 0.  0.
      99925    2    3    3    0    0 -0.46786251490E+02  0.91171121528E+02 -0.20566804073E+03  0.34916721952E+03  0.26290164983E+03 0.  0.
         25    1    4    4    0    0 -0.59031797138E+02  0.46219980226E+02 -0.82582601534E+02  0.16759604357E+03  0.12509000000E+03 0.  0.
         25    1    4    4    0    0  0.12245545648E+02  0.44951141302E+02 -0.12308543920E+03  0.18157117595E+03  0.12509000000E+03 0.  0.
         25    1    3    3    0    0  0.46786251490E+02 -0.91171121528E+02 -0.24720878943E+03  0.29539942519E+03  0.12509000000E+03 0.  0.
<mgrwt>
<rscale>  2 0.45865972E+03</rscale>
<asrwt>0</asrwt>
<pdfrwt beam="1">  1       21 0.14094839E-01 0.45865972E+03</pdfrwt>
<pdfrwt beam="2">  1       21 0.80694374E-01 0.45865972E+03</pdfrwt>
<totfact> 0.54426779E+04</totfact>
</mgrwt>
</event>
<event>
 7    0  0.4750554E-002  0.4546110E+03  0.7546771E-02  0.1026356E+00
         21   -1    0    0  502  501  0.00000000000E+00  0.00000000000E+00  0.12785816096E+03  0.12785816096E+03  0.00000000000E+00 0.  1.
         21   -1    0    0  501  502 -0.00000000000E+00 -0.00000000000E+00 -0.40410236461E+03  0.40410236461E+03  0.00000000000E+00 0.  1.
      99926    2    1    2    0    0 -0.17763568394E-14 -0.14210854715E-13 -0.27624420365E+03  0.53196052557E+03  0.45461097734E+03 0.  0.
      99925    2    3    3    0    0  0.96464137776E+01  0.77087026810E+02 -0.26970514290E+03  0.38456401809E+03  0.26289381298E+03 0.  0.
         25    1    4    4    0    0  0.95468649599E+01 -0.25490673651E+01 -0.13352527111E+03  0.18323249303E+03  0.12509000000E+03 0.  0.
         25    1    4    4    0    0  0.99548817711E-01  0.79636094175E+02 -0.13617987179E+03  0.20133152507E+03  0.12509000000E+03 0.  0.
         25    1    3    3    0    0 -0.96464137776E+01 -0.77087026810E+02 -0.65390607518E+01  0.14739650748E+03  0.12509000000E+03 0.  0.
<mgrwt>
<rscale>  2 0.45461098E+03</rscale>
<asrwt>0</asrwt>
<pdfrwt beam="1">  1       21 0.18802671E-01 0.45461098E+03</pdfrwt>
<pdfrwt beam="2">  1       21 0.59426819E-01 0.45461098E+03</pdfrwt>
<totfact> 0.63268817E+04</totfact>
</mgrwt>
</event>
<event>
 7    0  0.4750554E-002  0.4346554E+03  0.7546771E-02  0.1032399E+00
         21   -1    0    0  502  501  0.00000000000E+00  0.00000000000E+00  0.72342047660E+02  0.72342047660E+02  0.00000000000E+00 0. -1.
         21   -1    0    0  501  502 -0.00000000000E+00 -0.00000000000E+00 -0.65288900562E+03  0.65288900562E+03  0.00000000000E+00 0. -1.
      99926    2    1    2    0    0  0.00000000000E+00  0.00000000000E+00 -0.58054695796E+03  0.72523105328E+03  0.43465539252E+03 0.  0.
      99925    2    3    3    0    0  0.54336039418E+02  0.67940275749E+02 -0.31900190123E+03  0.42254043392E+03  0.26307778139E+03 0.  0.
         25    1    4    4    0    0 -0.73306487340E+01  0.17402104315E+02 -0.12029306327E+03  0.17456947275E+03  0.12509000000E+03 0.  0.
         25    1    4    4    0    0  0.61666688152E+02  0.50538171434E+02 -0.19870883797E+03  0.24797096117E+03  0.12509000000E+03 0.  0.
         25    1    3    3    0    0 -0.54336039418E+02 -0.67940275749E+02 -0.26154505672E+03  0.30269061935E+03  0.12509000000E+03 0.  0.
<mgrwt>
<rscale>  2 0.43465539E+03</rscale>
<asrwt>0</asrwt>
<pdfrwt beam="1">  1       21 0.10638536E-01 0.43465539E+03</pdfrwt>
<pdfrwt beam="2">  1       21 0.96013089E-01 0.43465539E+03</pdfrwt>
<totfact> 0.60698602E+04</totfact>
</mgrwt>
</event>
<event>
 7    0  0.4750554E-002  0.4402079E+03  0.7546771E-02  0.1030683E+00
         21   -1    0    0  502  501  0.00000000000E+00  0.00000000000E+00  0.20555082355E+03  0.20555082355E+03  0.00000000000E+00 0.  1.
         21   -1    0    0  501  502 -0.00000000000E+00 -0.00000000000E+00 -0.23568749748E+03  0.23568749748E+03  0.00000000000E+00 0.  1.
      99926    2    1    2    0    0  0.00000000000E+00  0.00000000000E+00 -0.30136673927E+02  0.44123832103E+03  0.44020794726E+03 0.  0.
      99925    2    3    3    0    0 -0.84707318170E+02 -0.47305612449E+02 -0.92103962668E+00  0.28025940282E+03  0.26292838157E+03 0.  0.
         25    1    4    4    0    0 -0.27843627055E+02 -0.61212609742E+02 -0.46935992038E+01  0.14209781537E+03  0.12509000000E+03 0.  0.
         25    1    4    4    0    0 -0.56863691115E+02  0.13906997293E+02  0.37725595771E+01  0.13816158745E+03  0.12509000000E+03 0.  0.
         25    1    3    3    0    0  0.84707318170E+02  0.47305612449E+02 -0.29215634300E+02  0.16097891821E+03  0.12509000000E+03 0.  0.
<mgrwt>
<rscale>  2 0.44020795E+03</rscale>
<asrwt>0</asrwt>
<pdfrwt beam="1">  1       21 0.30228062E-01 0.44020795E+03</pdfrwt>
<pdfrwt beam="2">  1       21 0.34659926E-01 0.44020795E+03</pdfrwt>
<totfact> 0.78420681E+04</totfact>
</mgrwt>
</event>
<event>
 7    0  0.4750554E-002  0.4651385E+03  0.7546771E-02  0.1023301E+00
         21   -1    0    0  502  501  0.00000000000E+00  0.00000000000E+00  0.40330234289E+03  0.40330234289E+03  0.00000000000E+00 0. -1.
         21   -1    0    0  501  502 -0.00000000000E+00 -0.00000000000E+00 -0.13411391274E+03  0.13411391274E+03  0.00000000000E+00 0. -1.
      99926    2    1    2    0    0  0.00000000000E+00  0.00000000000E+00  0.26918843015E+03  0.53741625564E+03  0.46513849647E+03 0.  0.
      99925    2    3    3    0    0 -0.76753397159E+02 -0.11566381301E+02  0.57153029278E+02  0.27928569860E+03  0.26212433602E+03 0.  0.
         25    1    3    3    0    0  0.76753397159E+02  0.11566381301E+02  0.21203540087E+03  0.25813055703E+03  0.12509000000E+03 0.  0.
         25    1    4    4    0    0 -0.67356096324E+02 -0.33443174395E+02  0.27055251942E+02  0.14844118156E+03  0.12509000000E+03 0.  0.
         25    1    4    4    0    0 -0.93973008345E+01  0.21876793094E+02  0.30097777335E+02  0.13084451704E+03  0.12509000000E+03 0.  0.
<mgrwt>
<rscale>  2 0.46513850E+03</rscale>
<asrwt>0</asrwt>
<pdfrwt beam="1">  1       21 0.59309168E-01 0.46513850E+03</pdfrwt>
<pdfrwt beam="2">  1       21 0.19722634E-01 0.46513850E+03</pdfrwt>
<totfact> 0.57911944E+04</totfact>
</mgrwt>
</event>
<event>
 7    0  0.4750554E-002  0.4536395E+03  0.7546771E-02  0.1026642E+00
         21   -1    0    0  502  501  0.00000000000E+00  0.00000000000E+00  0.28679703558E+03  0.28679703558E+03  0.00000000000E+00 0.  1.
         21   -1    0    0  501  502 -0.00000000000E+00 -0.00000000000E+00 -0.17938536746E+03  0.17938536746E+03  0.00000000000E+00 0.  1.
      99926    2    1    2    0    0  0.00000000000E+00 -0.35527136788E-14  0.10741166812E+03  0.46618240304E+03  0.45363946748E+03 0.  0.
      99925    2    3    3    0    0 -0.10666068681E+03 -0.20794077869E+02  0.95021224565E+02  0.30002005177E+03  0.26300970051E+03 0.  0.
         25    1    4    4    0    0 -0.93675120379E+02 -0.85871931854E+01  0.68838765376E+02  0.17098260667E+03  0.12509000000E+03 0.  0.
         25    1    4    4    0    0 -0.12985566435E+02 -0.12206884684E+02  0.26182459189E+02  0.12903744510E+03  0.12509000000E+03 0.  0.
         25    1    3    3    0    0  0.10666068681E+03  0.20794077869E+02  0.12390443555E+02  0.16616235126E+03  0.12509000000E+03 0.  0.
<mgrwt>
<rscale>  2 0.45363947E+03</rscale>
<asrwt>0</asrwt>
<pdfrwt beam="1">  1       21 0.42176035E-01 0.45363947E+03</pdfrwt>
<pdfrwt beam="2">  1       21 0.26380201E-01 0.45363947E+03</pdfrwt>
<totfact> 0.68456713E+04</totfact>
</mgrwt>
</event>
<event>
 7    0  0.4750554E-002  0.4589769E+03  0.7546771E-02  0.1025078E+00
         21   -1    0    0  502  501  0.00000000000E+00  0.00000000000E+00  0.55795252165E+03  0.55795252165E+03  0.00000000000E+00 0. -1.
         21   -1    0    0  501  502 -0.00000000000E+00 -0.00000000000E+00 -0.94389648741E+02  0.94389648741E+02  0.00000000000E+00 0. -1.
      99926    2    1    2    0    0 -0.71054273576E-14  0.71054273576E-14  0.46356287291E+03  0.65234217039E+03  0.45897687320E+03 0.  0.
      99925    2    3    3    0    0  0.20119509461E+02 -0.51277289802E+02  0.43722160771E+03  0.51314617381E+03  0.26291083344E+03 0.  0.
         25    1    3    3    0    0 -0.20119509461E+02  0.51277289802E+02  0.26341265199E+02  0.13919599658E+03  0.12509000000E+03 0.  0.
         25    1    4    4    0    0 -0.25070704474E+02 -0.47242626144E+01  0.20341912872E+03  0.24016183900E+03  0.12509000000E+03 0.  0.
         25    1    4    4    0    0  0.45190213935E+02 -0.46553027188E+02  0.23380247898E+03  0.27298433482E+03  0.12509000000E+03 0.  0.
<mgrwt>
<rscale>  2 0.45897687E+03</rscale>
<asrwt>0</asrwt>
<pdfrwt beam="1">  1       21 0.82051840E-01 0.45897687E+03</pdfrwt>
<pdfrwt beam="2">  1       21 0.13880831E-01 0.45897687E+03</pdfrwt>
<totfact> 0.53857160E+04</totfact>
</mgrwt>
</event>
<event>
 7    0  0.4750554E-002  0.4455180E+03  0.7546771E-02  0.1029067E+00
         21   -1    0    0  502  501  0.00000000000E+00  0.00000000000E+00  0.11249118070E+03  0.11249118070E+03  0.00000000000E+00 0. -1.
         21   -1    0    0  501  502 -0.00000000000E+00 -0.00000000000E+00 -0.44111516106E+03  0.44111516106E+03  0.00000000000E+00 0. -1.
      99926    2    1    2    0    0  0.00000000000E+00  0.14210854715E-13 -0.32862398037E+03  0.55360634176E+03  0.44551796952E+03 0.  0.
      99925    2    3    3    0    0 -0.29382107153E+02 -0.70770281066E+02 -0.12118483192E+03  0.29953893080E+03  0.26299442328E+03 0.  0.
         25    1    4    4    0    0 -0.46816322909E+01 -0.34321946873E+02 -0.17021694756E+02  0.13090897567E+03  0.12509000000E+03 0.  0.
         25    1    3    3    0    0  0.29382107153E+02  0.70770281066E+02 -0.20743914845E+03  0.25406741096E+03  0.12509000000E+03 0.  0.
         25    1    4    4    0    0 -0.24700474863E+02 -0.36448334193E+02 -0.10416313716E+03  0.16862995513E+03  0.12509000000E+03 0.  0.
<mgrwt>
<rscale>  2 0.44551797E+03</rscale>
<asrwt>0</asrwt>
<pdfrwt beam="1">  1       21 0.16542821E-01 0.44551797E+03</pdfrwt>
<pdfrwt beam="2">  1       21 0.64869876E-01 0.44551797E+03</pdfrwt>
<totfact> 0.66476869E+04</totfact>
</mgrwt>
</event>
<event>
 7    0  0.4750554E-002  0.4524860E+03  0.7546771E-02  0.1026983E+00
         21   -1    0    0  502  501  0.00000000000E+00  0.00000000000E+00  0.92863304631E+02  0.92863304631E+02  0.00000000000E+00 0.  1.
         21   -1    0    0  501  502 -0.00000000000E+00 -0.00000000000E+00 -0.55119612604E+03  0.55119612604E+03  0.00000000000E+00 0.  1.
      99926    2    1    2    0    0  0.71054273576E-14  0.00000000000E+00 -0.45833282141E+03  0.64405943067E+03  0.45248599432E+03 0.  0.
      99925    2    3    3    0    0  0.62081114224E+02  0.90766919555E+02 -0.30583050772E+03  0.41823391792E+03  0.26323869818E+03 0.  0.
         25    1    3    3    0    0 -0.62081114224E+02 -0.90766919555E+02 -0.15250231369E+03  0.22582551275E+03  0.12509000000E+03 0.  0.
         25    1    4    4    0    0  0.56645144367E+02  0.64727953942E+02 -0.12444153719E+03  0.19629463742E+03  0.12509000000E+03 0.  0.
         25    1    4    4    0    0  0.54359698572E+01  0.26038965613E+02 -0.18138897053E+03  0.22193928050E+03  0.12509000000E+03 0.  0.
<mgrwt>
<rscale>  2 0.45248599E+03</rscale>
<asrwt>0</asrwt>
<pdfrwt beam="1">  1       21 0.13656368E-01 0.45248599E+03</pdfrwt>
<pdfrwt beam="2">  1       21 0.81058255E-01 0.45248599E+03</pdfrwt>
<totfact> 0.57170672E+04</totfact>
</mgrwt>
</event>
<event>
 7    0  0.4750554E-002  0.4758180E+03  0.7546771E-02  0.1020291E+00
         21   -1    0    0  502  501  0.00000000000E+00  0.00000000000E+00  0.36862010289E+03  0.36862010289E+03  0.00000000000E+00 0. -1.
         21   -1    0    0  501  502 -0.00000000000E+00 -0.00000000000E+00 -0.15354748052E+03  0.15354748052E+03  0.00000000000E+00 0. -1.
      99926    2    1    2    0    0  0.00000000000E+00  0.00000000000E+00  0.21507262237E+03  0.52216758340E+03  0.47581798228E+03 0.  0.
      99925    2    3    3    0    0  0.83891453382E+02 -0.65597576298E+02  0.47956043967E+02  0.28782536176E+03  0.26306432437E+03 0.  0.
         25    1    4    4    0    0  0.75840917842E+02 -0.11137806118E+02  0.32696938729E+02  0.15030799528E+03  0.12509000000E+03 0.  0.
         25    1    3    3    0    0 -0.83891453382E+02  0.65597576298E+02  0.16711657840E+03  0.23434222164E+03  0.12509000000E+03 0.  0.
         25    1    4    4    0    0  0.80505355394E+01 -0.54459770180E+02  0.15259105239E+02  0.13751736648E+03  0.12509000000E+03 0.  0.
<mgrwt>
<rscale>  2 0.47581798E+03</rscale>
<asrwt>0</asrwt>
<pdfrwt beam="1">  1       21 0.54208838E-01 0.47581798E+03</pdfrwt>
<pdfrwt beam="2">  1       21 0.22580512E-01 0.47581798E+03</pdfrwt>
<totfact> 0.54213829E+04</totfact>
</mgrwt>
</event>
<event>
 7    0  0.4750554E-002  0.4599595E+03  0.7546771E-02  0.1024793E+00
         21   -1    0    0  502  501  0.00000000000E+00  0.00000000000E+00  0.29721827265E+03  0.29721827265E+03  0.00000000000E+00 0. -1.
         21   -1    0    0  501  502 -0.00000000000E+00 -0.00000000000E+00 -0.17795232974E+03  0.17795232974E+03  0.00000000000E+00 0. -1.
      99926    2    1    2    0    0  0.00000000000E+00  0.00000000000E+00  0.11926594291E+03  0.47517060239E+03  0.45995949413E+03 0.  0.
      99925    2    3    3    0    0  0.23247355955E+02  0.79385194082E+02  0.16140768272E+03  0.31939549869E+03  0.26290415734E+03 0.  0.
         25    1    3    3    0    0 -0.23247355955E+02 -0.79385194082E+02 -0.42141739809E+02  0.15577510370E+03  0.12509000000E+03 0.  0.
         25    1    4    4    0    0 -0.67911542288E+00  0.28408764530E+02  0.35270163021E+02  0.13303763227E+03  0.12509000000E+03 0.  0.
         25    1    4    4    0    0  0.23926471378E+02  0.50976429552E+02  0.12613751970E+03  0.18635786642E+03  0.12509000000E+03 0.  0.
<mgrwt>
<rscale>  2 0.45995949E+03</rscale>
<asrwt>0</asrwt>
<pdfrwt beam="1">  1       21 0.43708570E-01 0.45995949E+03</pdfrwt>
<pdfrwt beam="2">  1       21 0.26169460E-01 0.45995949E+03</pdfrwt>
<totfact> 0.64478511E+04</totfact>
</mgrwt>
</event>
<event>
 7    0  0.4750554E-002  0.4364000E+03  0.7546771E-02  0.1031857E+00
         21   -1    0    0  502  501  0.00000000000E+00  0.00000000000E+00  0.14226223829E+03  0.14226223829E+03  0.00000000000E+00 0. -1.
         21   -1    0    0  501  502 -0.00000000000E+00 -0.00000000000E+00 -0.33467236800E+03  0.33467236800E+03  0.00000000000E+00 0. -1.
      99926    2    1    2    0    0  0.00000000000E+00  0.00000000000E+00 -0.19241012971E+03  0.47693460629E+03  0.43640000076E+03 0.  0.
      99925    2    3    3    0    0 -0.93402780387E+02 -0.11537610075E+02 -0.13391545596E+03  0.30982287485E+03  0.26305829887E+03 0.  0.
         25    1    3    3    0    0  0.93402780387E+02  0.11537610075E+02 -0.58494673743E+02  0.16711173144E+03  0.12509000000E+03 0.  0.
         25    1    4    4    0    0 -0.57571859050E+02 -0.39304763877E+02 -0.92486177578E+02  0.17047165325E+03  0.12509000000E+03 0.  0.
         25    1    4    4    0    0 -0.35830921337E+02  0.27767153803E+02 -0.41429278387E+02  0.13935122160E+03  0.12509000000E+03 0.  0.
<mgrwt>
<rscale>  2 0.43640000E+03</rscale>
<asrwt>0</asrwt>
<pdfrwt beam="1">  1       21 0.20920918E-01 0.43640000E+03</pdfrwt>
<pdfrwt beam="2">  1       21 0.49216524E-01 0.43640000E+03</pdfrwt>
<totfact> 0.77790991E+04</totfact>
</mgrwt>
</event>
<event>
 7    0  0.4750554E-002  0.4341815E+03  0.7546771E-02  0.1032547E+00
         21   -1    0    0  502  501  0.00000000000E+00  0.00000000000E+00  0.12386730377E+03  0.12386730377E+03  0.00000000000E+00 0.  1.
         21   -1    0    0  501  502 -0.00000000000E+00 -0.00000000000E+00 -0.38047476716E+03  0.38047476716E+03  0.00000000000E+00 0.  1.
      99926    2    1    2    0    0  0.88817841970E-15  0.00000000000E+00 -0.25660746339E+03  0.50434207093E+03  0.43418145313E+03 0.  0.
      99925    2    3    3    0    0  0.16502375483E+01 -0.75388642407E+02 -0.22666072865E+03  0.35524315843E+03  0.26293810110E+03 0.  0.
         25    1    4    4    0    0  0.30219823080E+02 -0.34458490014E+02 -0.14860210817E+03  0.19957635104E+03  0.12509000000E+03 0.  0.
         25    1    3    3    0    0 -0.16502375483E+01  0.75388642407E+02 -0.29946734742E+02  0.14909891250E+03  0.12509000000E+03 0.  0.
         25    1    4    4    0    0 -0.28569585532E+02 -0.40930152393E+02 -0.78058620479E+02  0.15566680739E+03  0.12509000000E+03 0.  0.
<mgrwt>
<rscale>  2 0.43418145E+03</rscale>
<asrwt>0</asrwt>
<pdfrwt beam="1">  1       21 0.18215780E-01 0.43418145E+03</pdfrwt>
<pdfrwt beam="2">  1       21 0.55952170E-01 0.43418145E+03</pdfrwt>
<totfact> 0.76903722E+04</totfact>
</mgrwt>
</event>
<event>
 7    0  0.4750554E-002  0.4545658E+03  0.7546771E-02  0.1026369E+00
         21   -1    0    0  502  501  0.00000000000E+00  0.00000000000E+00  0.11216300953E+03  0.11216300953E+03  0.00000000000E+00 0. -1.
         21   -1    0    0  501  502 -0.00000000000E+00 -0.00000000000E+00 -0.46055749569E+03  0.46055749569E+03  0.00000000000E+00 0. -1.
      99926    2    1    2    0    0  0.00000000000E+00 -0.35527136788E-14 -0.34839448615E+03  0.57272050522E+03  0.45456579184E+03 0.  0.
      99925    2    3    3    0    0 -0.87236590286E+02  0.23774350411E+02 -0.13444233030E+03  0.30890527533E+03  0.26300624808E+03 0.  0.
         25    1    4    4    0    0 -0.48419086200E+01 -0.60290474887E+01 -0.63840554892E+02  0.14065176160E+03  0.12509000000E+03 0.  0.
         25    1    4    4    0    0 -0.82394681666E+02  0.29803397899E+02 -0.70601775404E+02  0.16825351373E+03  0.12509000000E+03 0.  0.
         25    1    3    3    0    0  0.87236590286E+02 -0.23774350411E+02 -0.21395215586E+03  0.26381522988E+03  0.12509000000E+03 0.  0.
<mgrwt>
<rscale>  2 0.45456579E+03</rscale>
<asrwt>0</asrwt>
<pdfrwt beam="1">  1       21 0.16494561E-01 0.45456579E+03</pdfrwt>
<pdfrwt beam="2">  1       21 0.67729042E-01 0.45456579E+03</pdfrwt>
<totfact> 0.60597405E+04</totfact>
</mgrwt>
</event>
<event>
 7    0  0.4750554E-002  0.4486437E+03  0.7546771E-02  0.1028127E+00
         21   -1    0    0  502  501  0.00000000000E+00  0.00000000000E+00  0.64430090393E+03  0.64430090393E+03  0.00000000000E+00 0. -1.
         21   -1    0    0  501  502 -0.00000000000E+00 -0.00000000000E+00 -0.78100594914E+02  0.78100594914E+02  0.00000000000E+00 0. -1.
      99926    2    1    2    0    0  0.00000000000E+00 -0.35527136788E-14  0.56620030902E+03  0.72240149885E+03  0.44864366217E+03 0.  0.
      99925    2    3    3    0    0 -0.19534763793E+02  0.25322338914E+02  0.52293301769E+03  0.58623103787E+03  0.26303053230E+03 0.  0.
         25    1    3    3    0    0  0.19534763793E+02 -0.25322338914E+02  0.43267291326E+02  0.13617046098E+03  0.12509000000E+03 0.  0.
         25    1    4    4    0    0 -0.22709102346E+02  0.34487720527E+02  0.19701009833E+03  0.23699281242E+03  0.12509000000E+03 0.  0.
         25    1    4    4    0    0  0.31743385530E+01 -0.91653816130E+01  0.32592291937E+03  0.34923822545E+03  0.12509000000E+03 0.  0.
<mgrwt>
<rscale>  2 0.44864366E+03</rscale>
<asrwt>0</asrwt>
<pdfrwt beam="1">  1       21 0.94750130E-01 0.44864366E+03</pdfrwt>
<pdfrwt beam="2">  1       21 0.11485382E-01 0.44864366E+03</pdfrwt>
<totfact> 0.54371164E+04</totfact>
</mgrwt>
</event>
<event>
 7    0  0.4750554E-002  0.4597315E+03  0.7546771E-02  0.1024859E+00
         21   -1    0    0  502  501  0.00000000000E+00  0.00000000000E+00  0.17437661877E+03  0.17437661877E+03  0.00000000000E+00 0. -1.
         21   -1    0    0  501  502 -0.00000000000E+00 -0.00000000000E+00 -0.30301238136E+03  0.30301238136E+03  0.00000000000E+00 0. -1.
      99926    2    1    2    0    0  0.00000000000E+00  0.00000000000E+00 -0.12863576260E+03  0.47738900013E+03  0.45973154996E+03 0.  0.
      99925    2    3    3    0    0  0.11458174719E+03 -0.20987644397E+02 -0.94840184226E+02  0.30315034993E+03  0.26331732969E+03 0.  0.
         25    1    3    3    0    0 -0.11458174719E+03  0.20987644397E+02 -0.33795578370E+02  0.17423865020E+03  0.12509000000E+03 0.  0.
         25    1    4    4    0    0  0.78691598744E+02  0.19516677921E+00 -0.13892313648E+02  0.14843486882E+03  0.12509000000E+03 0.  0.
         25    1    4    4    0    0  0.35890148444E+02 -0.21182811176E+02 -0.80947870577E+02  0.15471548111E+03  0.12509000000E+03 0.  0.
<mgrwt>
<rscale>  2 0.45973155E+03</rscale>
<asrwt>0</asrwt>
<pdfrwt beam="1">  1       21 0.25643621E-01 0.45973155E+03</pdfrwt>
<pdfrwt beam="2">  1       21 0.44560644E-01 0.45973155E+03</pdfrwt>
<totfact> 0.64436997E+04</totfact>
</mgrwt>
</event>
<event>
 7    0  0.4750554E-002  0.4473631E+03  0.7546771E-02  0.1028511E+00
         21   -1    0    0  502  501  0.00000000000E+00  0.00000000000E+00  0.20242191408E+03  0.20242191408E+03  0.00000000000E+00 0. -1.
         21   -1    0    0  501  502 -0.00000000000E+00 -0.00000000000E+00 -0.24717396731E+03  0.24717396731E+03  0.00000000000E+00 0. -1.
      99926    2    1    2    0    0  0.14210854715E-13  0.00000000000E+00 -0.44752053226E+02  0.44959588139E+03  0.44736306318E+03 0.  0.
      99925    2    3    3    0    0  0.74273436334E+02 -0.26375466958E+01 -0.10257148281E+03  0.29302610610E+03  0.26423453554E+03 0.  0.
         25    1    3    3    0    0 -0.74273436334E+02  0.26375466958E+01  0.57819429587E+02  0.15656977529E+03  0.12509000000E+03 0.  0.
         25    1    4    4    0    0 -0.58292159649E+01 -0.50154238911E+01 -0.37283427522E+02  0.13075433570E+03  0.12509000000E+03 0.  0.
         25    1    4    4    0    0  0.80102652299E+02  0.23778771952E+01 -0.65288055292E+02  0.16227177040E+03  0.12509000000E+03 0.  0.
<mgrwt>
<rscale>  2 0.44736306E+03</rscale>
<asrwt>0</asrwt>
<pdfrwt beam="1">  1       21 0.29767929E-01 0.44736306E+03</pdfrwt>
<pdfrwt beam="2">  1       21 0.36349113E-01 0.44736306E+03</pdfrwt>
<totfact> 0.73309588E+04</totfact>
</mgrwt>
</event>
<event>
 7    0  0.4750554E-002  0.4505235E+03  0.7546771E-02  0.1027566E+00
         21   -1    0    0  502  501  0.00000000000E+00  0.00000000000E+00  0.25658723093E+03  0.25658723093E+03  0.00000000000E+00 0. -1.
         21   -1    0    0  501  502 -0.00000000000E+00 -0.00000000000E+00 -0.19776063499E+03  0.19776063499E+03  0.00000000000E+00 0. -1.
      99926    2    1    2    0    0 -0.17763568394E-14  0.00000000000E+00  0.58826595935E+02  0.45434786592E+03  0.45052348982E+03 0.  0.
      99925    2    3    3    0    0  0.15555170559E+02  0.29931269538E+02 -0.67207165210E+02  0.27359980569E+03  0.26306312245E+03 0.  0.
         25    1    3    3    0    0 -0.15555170559E+02 -0.29931269538E+02  0.12603376115E+03  0.18074806023E+03  0.12509000000E+03 0.  0.
         25    1    4    4    0    0 -0.18402902947E+02  0.24008821932E+02 -0.64181598594E+02  0.14381194688E+03  0.12509000000E+03 0.  0.
         25    1    4    4    0    0  0.33958073506E+02  0.59224476062E+01 -0.30255666160E+01  0.12978785881E+03  0.12509000000E+03 0.  0.
<mgrwt>
<rscale>  2 0.45052349E+03</rscale>
<asrwt>0</asrwt>
<pdfrwt beam="1">  1       21 0.37733416E-01 0.45052349E+03</pdfrwt>
<pdfrwt beam="2">  1       21 0.29082446E-01 0.45052349E+03</pdfrwt>
<totfact> 0.71098936E+04</totfact>
</mgrwt>
</event>
<event>
 7    0  0.4750554E-002  0.5482367E+03  0.7546771E-02  0.1001903E+00
         21   -1    0    0  502  501  0.00000000000E+00  0.00000000000E+00  0.18718806654E+03  0.18718806654E+03  0.00000000000E+00 0.  1.
         21   -1    0    0  501  502 -0.00000000000E+00 -0.00000000000E+00 -0.40141916381E+03  0.40141916381E+03  0.00000000000E+00 0.  1.
      99926    2    1    2    0    0  0.00000000000E+00  0.00000000000E+00 -0.21423109727E+03  0.58860723036E+03  0.54823672678E+03 0.  0.
      99925    2    3    3    0    0 -0.16441160791E+03  0.30158745625E+02 -0.35037853657E+02  0.31347371112E+03  0.26286382334E+03 0.  0.
         25    1    4    4    0    0 -0.46834075662E+02  0.28034318829E+02 -0.38310659997E+02  0.14175531187E+03  0.12509000000E+03 0.  0.
         25    1    3    3    0    0  0.16441160791E+03 -0.30158745625E+02 -0.17919324361E+03  0.27513351924E+03  0.12509000000E+03 0.  0.
         25    1    4    4    0    0 -0.11757753224E+03  0.21244267964E+01  0.32728063403E+01  0.17171839924E+03  0.12509000000E+03 0.  0.
<mgrwt>
<rscale>  2 0.54823673E+03</rscale>
<asrwt>0</asrwt>
<pdfrwt beam="1">  1       21 0.27527657E-01 0.54823673E+03</pdfrwt>
<pdfrwt beam="2">  1       21 0.59032229E-01 0.54823673E+03</pdfrwt>
<totfact> 0.30164330E+04</totfact>
</mgrwt>
</event>
<event>
 7    0  0.4750554E-002  0.4468956E+03  0.7546771E-02  0.1028652E+00
         21   -1    0    0  502  501  0.00000000000E+00  0.00000000000E+00  0.83066735706E+02  0.83066735706E+02  0.00000000000E+00 0. -1.
         21   -1    0    0  501  502 -0.00000000000E+00 -0.00000000000E+00 -0.60106988730E+03  0.60106988730E+03  0.00000000000E+00 0. -1.
      99926    2    1    2    0    0  0.00000000000E+00 -0.71054273576E-14 -0.51800315159E+03  0.68413662301E+03  0.44689557379E+03 0.  0.
      99925    2    3    3    0    0  0.99109967161E+02 -0.32220289539E+02 -0.35202027329E+03  0.45163123245E+03  0.26304289511E+03 0.  0.
         25    1    4    4    0    0  0.18685213323E+02 -0.43348776798E+02 -0.17259063362E+03  0.21831923543E+03  0.12509000000E+03 0.  0.
         25    1    4    4    0    0  0.80424753838E+02  0.11128487259E+02 -0.17942963968E+03  0.23331199702E+03  0.12509000000E+03 0.  0.
         25    1    3    3    0    0 -0.99109967161E+02  0.32220289539E+02 -0.16598287830E+03  0.23250539056E+03  0.12509000000E+03 0.  0.
<mgrwt>
<rscale>  2 0.44689557E+03</rscale>
<asrwt>0</asrwt>
<pdfrwt beam="1">  1       21 0.12215696E-01 0.44689557E+03</pdfrwt>
<pdfrwt beam="2">  1       21 0.88392631E-01 0.44689557E+03</pdfrwt>
<totfact> 0.57345339E+04</totfact>
</mgrwt>
</event>
<event>
 6    0  0.4750554E-002  0.4664814E+03  0.7546771E-02  0.1022918E+00
         21   -1    0    0  502  501  0.00000000000E+00  0.00000000000E+00  0.60836597588E+03  0.60836597588E+03  0.00000000000E+00 0. -1.
         21   -1    0    0  501  502 -0.00000000000E+00 -0.00000000000E+00 -0.89421882724E+02  0.89421882724E+02  0.00000000000E+00 0. -1.
      99926    2    1    2    0    0  0.00000000000E+00  0.00000000000E+00  0.51894409315E+03  0.69778785860E+03  0.46648142921E+03 0.  0.
         25    1    3    3    0    0 -0.83548948356E+02 -0.34391357763E+02  0.81267371563E+02  0.17439921457E+03  0.12509000000E+03 0.  0.
         25    1    3    3    0    0 -0.12444955411E+02  0.29479753634E+02  0.20507817702E+03  0.24233963683E+03  0.12509000000E+03 0.  0.
         25    1    3    3    0    0  0.95993903766E+02  0.49116041287E+01  0.23259854457E+03  0.28104900721E+03  0.12509000000E+03 0.  0.
<mgrwt>
<rscale>  2 0.46648143E+03</rscale>
<asrwt>0</asrwt>
<pdfrwt beam="1">  1       21 0.89465582E-01 0.46648143E+03</pdfrwt>
<pdfrwt beam="2">  1       21 0.13150277E-01 0.46648143E+03</pdfrwt>
<totfact> 0.48489398E+04</totfact>
</mgrwt>
</event>
<event>
 7    0  0.4750554E-002  0.4586412E+03  0.7546771E-02  0.1025176E+00
         21   -1    0    0  502  501  0.00000000000E+00  0.00000000000E+00  0.39531932969E+02  0.39531932969E+02  0.00000000000E+00 0. -1.
         21   -1    0    0  501  502 -0.00000000000E+00 -0.00000000000E+00 -0.13302650187E+04  0.13302650187E+04  0.00000000000E+00 0. -1.
      99926    2    1    2    0    0 -0.35527136788E-14  0.00000000000E+00 -0.12907330857E+04  0.13697969516E+04  0.45864124346E+03 0.  0.
      99925    2    3    3    0    0  0.14569373236E+02  0.71982615532E+02 -0.10798440789E+04  0.11138371016E+04  0.26301347958E+03 0.  0.
         25    1    3    3    0    0 -0.14569373236E+02 -0.71982615532E+02 -0.21088900677E+03  0.25595985008E+03  0.12509000000E+03 0.  0.
         25    1    4    4    0    0  0.47725667081E+02  0.32476613185E+02 -0.54294685197E+03  0.56015289151E+03  0.12509000000E+03 0.  0.
         25    1    4    4    0    0 -0.33156293845E+02  0.39506002347E+02 -0.53689722696E+03  0.55368421005E+03  0.12509000000E+03 0.  0.
<mgrwt>
<rscale>  2 0.45864124E+03</rscale>
<asrwt>0</asrwt>
<pdfrwt beam="1">  1       21 0.58135194E-02 0.45864124E+03</pdfrwt>
<pdfrwt beam="2">  1       21 0.19562721E+00 0.45864124E+03</pdfrwt>
<totfact> 0.26393208E+04</totfact>
</mgrwt>
</event>
<event>
 7    0  0.4750554E-002  0.4582030E+03  0.7546771E-02  0.1025304E+00
         21   -1    0    0  502  501  0.00000000000E+00  0.00000000000E+00  0.66995738135E+03  0.66995738135E+03  0.00000000000E+00 0.  1.
         21   -1    0    0  501  502 -0.00000000000E+00 -0.00000000000E+00 -0.78344543232E+02  0.78344543232E+02  0.00000000000E+00 0.  1.
      99926    2    1    2    0    0  0.14210854715E-13 -0.31086244690E-14  0.59161283812E+03  0.74830192458E+03  0.45820303372E+03 0.  0.
      99925    2    3    3    0    0  0.87251365080E+02 -0.33000578326E+01  0.24714527096E+03  0.37156713190E+03  0.26335842015E+03 0.  0.
         25    1    4    4    0    0  0.80784476274E+02  0.18290978618E+02  0.12483191388E+03  0.19516968599E+03  0.12509000000E+03 0.  0.
         25    1    4    4    0    0  0.64668888058E+01 -0.21591036451E+02  0.12231335708E+03  0.17639744592E+03  0.12509000000E+03 0.  0.
         25    1    3    3    0    0 -0.87251365080E+02  0.33000578326E+01  0.34446756716E+03  0.37673479268E+03  0.12509000000E+03 0.  0.
<mgrwt>
<rscale>  2 0.45820303E+03</rscale>
<asrwt>0</asrwt>
<pdfrwt beam="1">  1       21 0.98523141E-01 0.45820303E+03</pdfrwt>
<pdfrwt beam="2">  1       21 0.11521257E-01 0.45820303E+03</pdfrwt>
<totfact> 0.49109608E+04</totfact>
</mgrwt>
</event>
<event>
 7    0  0.4750554E-002  0.4546117E+03  0.7546771E-02  0.1026356E+00
         21   -1    0    0  502  501  0.00000000000E+00  0.00000000000E+00  0.33103666161E+03  0.33103666161E+03  0.00000000000E+00 0.  1.
         21   -1    0    0  501  502 -0.00000000000E+00 -0.00000000000E+00 -0.15607920661E+03  0.15607920661E+03  0.00000000000E+00 0.  1.
      99926    2    1    2    0    0  0.71054273576E-14  0.00000000000E+00  0.17495745500E+03  0.48711586822E+03  0.45461165626E+03 0.  0.
      99925    2    3    3    0    0 -0.53411199250E+02  0.98477034626E+02  0.12494854820E+03  0.31190490562E+03  0.26291072230E+03 0.  0.
         25    1    4    4    0    0 -0.38985448678E+02  0.57715559679E+02  0.10613540610E+03  0.17822228695E+03  0.12509000000E+03 0.  0.
         25    1    4    4    0    0 -0.14425750572E+02  0.40761474947E+02  0.18813142100E+02  0.13368261867E+03  0.12509000000E+03 0.  0.
         25    1    3    3    0    0  0.53411199250E+02 -0.98477034626E+02  0.50008906801E+02  0.17521096260E+03  0.12509000000E+03 0.  0.
<mgrwt>
<rscale>  2 0.45461166E+03</rscale>
<asrwt>0</asrwt>
<pdfrwt beam="1">  1       21 0.48681862E-01 0.45461166E+03</pdfrwt>
<pdfrwt beam="2">  1       21 0.22952825E-01 0.45461166E+03</pdfrwt>
<totfact> 0.66390092E+04</totfact>
</mgrwt>
</event>
<event>
 7    0  0.4750554E-002  0.4627828E+03  0.7546771E-02  0.1023977E+00
         21   -1    0    0  502  501  0.00000000000E+00  0.00000000000E+00  0.31983801778E+02  0.31983801778E+02  0.00000000000E+00 0. -1.
         21   -1    0    0  501  502 -0.00000000000E+00 -0.00000000000E+00 -0.16740346129E+04  0.16740346129E+04  0.00000000000E+00 0. -1.
      99926    2    1    2    0    0 -0.14210854715E-13  0.00000000000E+00 -0.16420508111E+04  0.17060184147E+04  0.46278284855E+03 0.  0.
      99925    2    3    3    0    0 -0.11961334081E+03 -0.62282102327E+01 -0.99150703630E+03  0.10328164740E+04  0.26320623850E+03 0.  0.
         25    1    3    3    0    0  0.11961334081E+03  0.62282102327E+01 -0.65054377481E+03  0.67320194069E+03  0.12509000000E+03 0.  0.
         25    1    4    4    0    0 -0.77952809961E+02 -0.25054863324E+01 -0.65500142955E+03  0.67138461321E+03  0.12509000000E+03 0.  0.
         25    1    4    4    0    0 -0.41660530850E+02 -0.37227239002E+01 -0.33650560675E+03  0.36143186077E+03  0.12509000000E+03 0.  0.
<mgrwt>
<rscale>  2 0.46278285E+03</rscale>
<asrwt>0</asrwt>
<pdfrwt beam="1">  1       21 0.47034992E-02 0.46278285E+03</pdfrwt>
<pdfrwt beam="2">  1       21 0.24618162E+00 0.46278285E+03</pdfrwt>
<totfact> 0.18022906E+04</totfact>
</mgrwt>
</event>
<event>
 7    0  0.4750554E-002  0.4541721E+03  0.7546771E-02  0.1026485E+00
         21   -1    0    0  502  501  0.00000000000E+00  0.00000000000E+00  0.60383068608E+03  0.60383068608E+03  0.00000000000E+00 0. -1.
         21   -1    0    0  501  502 -0.00000000000E+00 -0.00000000000E+00 -0.85401550425E+02  0.85401550425E+02  0.00000000000E+00 0. -1.
      99926    2    1    2    0    0  0.00000000000E+00  0.71054273576E-14  0.51842913565E+03  0.68923223650E+03  0.45417211180E+03 0.  0.
      99925    2    3    3    0    0 -0.88416013787E+02 -0.55617616388E+02  0.38931237003E+03  0.48131552719E+03  0.26303954932E+03 0.  0.
         25    1    4    4    0    0 -0.12513342534E+02 -0.15849830196E+02  0.22124380891E+03  0.25495907896E+03  0.12509000000E+03 0.  0.
         25    1    3    3    0    0  0.88416013787E+02  0.55617616388E+02  0.12911676562E+03  0.20791670931E+03  0.12509000000E+03 0.  0.
         25    1    4    4    0    0 -0.75902671253E+02 -0.39767786192E+02  0.16806856112E+03  0.22635644823E+03  0.12509000000E+03 0.  0.
<mgrwt>
<rscale>  2 0.45417211E+03</rscale>
<asrwt>0</asrwt>
<pdfrwt beam="1">  1       21 0.88798628E-01 0.45417211E+03</pdfrwt>
<pdfrwt beam="2">  1       21 0.12559052E-01 0.45417211E+03</pdfrwt>
<totfact> 0.53841647E+04</totfact>
</mgrwt>
</event>
<event>
 7    0  0.4750554E-002  0.4546636E+03  0.7546771E-02  0.1026340E+00
         21   -1    0    0  502  501  0.00000000000E+00  0.00000000000E+00  0.85373167284E+02  0.85373167284E+02  0.00000000000E+00 0. -1.
         21   -1    0    0  501  502 -0.00000000000E+00 -0.00000000000E+00 -0.60533943757E+03  0.60533943757E+03  0.00000000000E+00 0. -1.
      99926    2    1    2    0    0  0.00000000000E+00 -0.71054273576E-14 -0.51996627029E+03  0.69071260486E+03  0.45466359022E+03 0.  0.
      99925    2    3    3    0    0 -0.53617649526E+02  0.42659927135E+02 -0.18981122944E+03  0.33106752867E+03  0.26245510854E+03 0.  0.
         25    1    4    4    0    0 -0.46354478285E+02  0.18400009024E+01 -0.13024173779E+03  0.18644715504E+03  0.12509000000E+03 0.  0.
         25    1    4    4    0    0 -0.72631712406E+01  0.40819926232E+02 -0.59569491648E+02  0.14462037363E+03  0.12509000000E+03 0.  0.
         25    1    3    3    0    0  0.53617649526E+02 -0.42659927135E+02 -0.33015504085E+03  0.35964507619E+03  0.12509000000E+03 0.  0.
<mgrwt>
<rscale>  2 0.45466359E+03</rscale>
<asrwt>0</asrwt>
<pdfrwt beam="1">  1       21 0.12554878E-01 0.45466359E+03</pdfrwt>
<pdfrwt beam="2">  1       21 0.89020502E-01 0.45466359E+03</pdfrwt>
<totfact> 0.53551873E+04</totfact>
</mgrwt>
</event>
<event>
 7    0  0.4750554E-002  0.4168227E+03  0.7546771E-02  0.1038105E+00
         21   -1    0    0  502  501  0.00000000000E+00  0.00000000000E+00  0.11165321616E+04  0.11165321616E+04  0.00000000000E+00 0. -1.
         21   -1    0    0  501  502 -0.00000000000E+00 -0.00000000000E+00 -0.38901963813E+02  0.38901963813E+02  0.00000000000E+00 0. -1.
      99926    2    1    2    0    0  0.00000000000E+00  0.00000000000E+00  0.10776301978E+04  0.11554341255E+04  0.41682271410E+03 0.  0.
      99925    2    3    3    0    0  0.49000545763E+02 -0.30940345983E+02  0.81945814056E+03  0.86275908766E+03  0.26359673881E+03 0.  0.
         25    1    3    3    0    0 -0.49000545763E+02  0.30940345983E+02  0.25817205727E+03  0.29267503780E+03  0.12509000000E+03 0.  0.
         25    1    4    4    0    0  0.50039529903E+02  0.11290708834E+02  0.47492325509E+03  0.49379250803E+03  0.12509000000E+03 0.  0.
         25    1    4    4    0    0 -0.10389841400E+01 -0.42231054817E+02  0.34453488547E+03  0.36896657963E+03  0.12509000000E+03 0.  0.
<mgrwt>
<rscale>  2 0.41682271E+03</rscale>
<asrwt>0</asrwt>
<pdfrwt beam="1">  1       21 0.16419589E+00 0.41682271E+03</pdfrwt>
<pdfrwt beam="2">  1       21 0.57208778E-02 0.41682271E+03</pdfrwt>
<totfact> 0.45776786E+04</totfact>
</mgrwt>
</event>
<event>
 7    0  0.4750554E-002  0.4849166E+03  0.7546771E-02  0.1017793E+00
         21   -1    0    0  502  501  0.00000000000E+00  0.00000000000E+00  0.16934258848E+03  0.16934258848E+03  0.00000000000E+00 0.  1.
         21   -1    0    0  501  502 -0.00000000000E+00 -0.00000000000E+00 -0.34714261468E+03  0.34714261468E+03  0.00000000000E+00 0.  1.
      99926    2    1    2    0    0  0.00000000000E+00  0.00000000000E+00 -0.17780002620E+03  0.51648520316E+03  0.48491660703E+03 0.  0.
      99925    2    3    3    0    0  0.43009823412E+02 -0.11719648219E+03 -0.17507525341E+03  0.33973738045E+03  0.26303095439E+03 0.  0.
         25    1    4    4    0    0  0.41391645908E+02 -0.41734435764E+02 -0.12182123787E+03  0.18423613537E+03  0.12509000000E+03 0.  0.
         25    1    4    4    0    0  0.16181775036E+01 -0.75462046427E+02 -0.53254015543E+02  0.15550124508E+03  0.12509000000E+03 0.  0.
         25    1    3    3    0    0 -0.43009823412E+02  0.11719648219E+03 -0.27247727872E+01  0.17674782272E+03  0.12509000000E+03 0.  0.
<mgrwt>
<rscale>  2 0.48491661E+03</rscale>
<asrwt>0</asrwt>
<pdfrwt beam="1">  1       21 0.24903322E-01 0.48491661E+03</pdfrwt>
<pdfrwt beam="2">  1       21 0.51050384E-01 0.48491661E+03</pdfrwt>
<totfact> 0.50918274E+04</totfact>
</mgrwt>
</event>
<event>
 7    0  0.4750554E-002  0.4506054E+03  0.7546771E-02  0.1027542E+00
         21   -1    0    0  502  501  0.00000000000E+00  0.00000000000E+00  0.54825889858E+03  0.54825889858E+03  0.00000000000E+00 0.  1.
         21   -1    0    0  501  502 -0.00000000000E+00 -0.00000000000E+00 -0.92586384483E+02  0.92586384483E+02  0.00000000000E+00 0.  1.
      99926    2    1    2    0    0  0.00000000000E+00  0.00000000000E+00  0.45567251410E+03  0.64084528306E+03  0.45060541133E+03 0.  0.
      99925    2    3    3    0    0  0.23551184462E+02  0.10506228995E+03  0.31198530128E+03  0.42201597450E+03  0.26300173281E+03 0.  0.
         25    1    4    4    0    0  0.20301280758E+02  0.13020658241E+02  0.16196451551E+03  0.20606234961E+03  0.12509000000E+03 0.  0.
         25    1    3    3    0    0 -0.23551184462E+02 -0.10506228995E+03  0.14368721282E+03  0.21882930856E+03  0.12509000000E+03 0.  0.
         25    1    4    4    0    0  0.32499037044E+01  0.92041631707E+02  0.15002078577E+03  0.21595362489E+03  0.12509000000E+03 0.  0.
<mgrwt>
<rscale>  2 0.45060541E+03</rscale>
<asrwt>0</asrwt>
<pdfrwt beam="1">  1       21 0.80626307E-01 0.45060541E+03</pdfrwt>
<pdfrwt beam="2">  1       21 0.13615645E-01 0.45060541E+03</pdfrwt>
<totfact> 0.58224998E+04</totfact>
</mgrwt>
</event>
<event>
 7    0  0.4750554E-002  0.4672471E+03  0.7546771E-02  0.1022700E+00
         21   -1    0    0  502  501  0.00000000000E+00  0.00000000000E+00  0.75009201290E+03  0.75009201290E+03  0.00000000000E+00 0.  1.
         21   -1    0    0  501  502 -0.00000000000E+00 -0.00000000000E+00 -0.72764347181E+02  0.72764347181E+02  0.00000000000E+00 0.  1.
      99926    2    1    2    0    0 -0.35527136788E-14  0.00000000000E+00  0.67732766572E+03  0.82285636008E+03  0.46724706802E+03 0.  0.
      99925    2    3    3    0    0  0.15440301274E+02  0.95814738890E+02  0.28507408567E+03  0.39985606901E+03  0.26305659943E+03 0.  0.
         25    1    4    4    0    0 -0.29857889346E+02  0.37700850860E+02  0.15530419559E+03  0.20513349063E+03  0.12509000000E+03 0.  0.
         25    1    4    4    0    0  0.45298190620E+02  0.58113888030E+02  0.12976989008E+03  0.19472257837E+03  0.12509000000E+03 0.  0.
         25    1    3    3    0    0 -0.15440301274E+02 -0.95814738890E+02  0.39225358004E+03  0.42300029107E+03  0.12509000000E+03 0.  0.
<mgrwt>
<rscale>  2 0.46724707E+03</rscale>
<asrwt>0</asrwt>
<pdfrwt beam="1">  1       21 0.11030764E+00 0.46724707E+03</pdfrwt>
<pdfrwt beam="2">  1       21 0.10700640E-01 0.46724707E+03</pdfrwt>
<totfact> 0.42450302E+04</totfact>
</mgrwt>
</event>
<event>
 7    0  0.4750554E-002  0.4499213E+03  0.7546771E-02  0.1027746E+00
         21   -1    0    0  502  501  0.00000000000E+00  0.00000000000E+00  0.55382591423E+03  0.55382591423E+03  0.00000000000E+00 0.  1.
         21   -1    0    0  501  502 -0.00000000000E+00 -0.00000000000E+00 -0.91377606386E+02  0.91377606386E+02  0.00000000000E+00 0.  1.
      99926    2    1    2    0    0 -0.71054273576E-14  0.00000000000E+00  0.46244830785E+03  0.64520352062E+03  0.44992126599E+03 0.  0.
      99925    2    3    3    0    0  0.35178368382E+02 -0.83503890375E+02  0.20720849237E+03  0.34686597888E+03  0.26300233969E+03 0.  0.
         25    1    3    3    0    0 -0.35178368382E+02  0.83503890375E+02  0.25523981548E+03  0.29833754175E+03  0.12509000000E+03 0.  0.
         25    1    4    4    0    0  0.35181059021E+02 -0.78712521906E+02  0.12863954005E+03  0.19907035787E+03  0.12509000000E+03 0.  0.
         25    1    4    4    0    0 -0.26906387603E-02 -0.47913684692E+01  0.78568952320E+02  0.14779562100E+03  0.12509000000E+03 0.  0.
<mgrwt>
<rscale>  2 0.44992127E+03</rscale>
<asrwt>0</asrwt>
<pdfrwt beam="1">  1       21 0.81444986E-01 0.44992127E+03</pdfrwt>
<pdfrwt beam="2">  1       21 0.13437884E-01 0.44992127E+03</pdfrwt>
<totfact> 0.58279063E+04</totfact>
</mgrwt>
</event>
<event>
 7    0  0.4750554E-002  0.4522744E+03  0.7546771E-02  0.1027046E+00
         21   -1    0    0  502  501  0.00000000000E+00  0.00000000000E+00  0.25239781031E+03  0.25239781031E+03  0.00000000000E+00 0.  1.
         21   -1    0    0  501  502 -0.00000000000E+00 -0.00000000000E+00 -0.20260884655E+03  0.20260884655E+03  0.00000000000E+00 0.  1.
      99926    2    1    2    0    0  0.00000000000E+00  0.00000000000E+00  0.49788963754E+02  0.45500665686E+03  0.45227438229E+03 0.  0.
      99925    2    3    3    0    0 -0.93525002264E+01 -0.10878823783E+03  0.49383371042E+02  0.28896442562E+03  0.26294366695E+03 0.  0.
         25    1    3    3    0    0  0.93525002264E+01  0.10878823783E+03  0.40559271248E+00  0.16604223124E+03  0.12509000000E+03 0.  0.
         25    1    4    4    0    0 -0.13160994206E+02 -0.24365261922E+02 -0.57576669085E+01  0.12824794963E+03  0.12509000000E+03 0.  0.
         25    1    4    4    0    0  0.38084939797E+01 -0.84422975907E+02  0.55141037950E+02  0.16071647599E+03  0.12509000000E+03 0.  0.
<mgrwt>
<rscale>  2 0.45227438E+03</rscale>
<asrwt>0</asrwt>
<pdfrwt beam="1">  1       21 0.37117325E-01 0.45227438E+03</pdfrwt>
<pdfrwt beam="2">  1       21 0.29795418E-01 0.45227438E+03</pdfrwt>
<totfact> 0.70056365E+04</totfact>
</mgrwt>
</event>
<event>
 7    0  0.4750554E-002  0.4542005E+03  0.7546771E-02  0.1026477E+00
         21   -1    0    0  502  501  0.00000000000E+00  0.00000000000E+00  0.16751962074E+03  0.16751962074E+03  0.00000000000E+00 0.  1.
         21   -1    0    0  501  502 -0.00000000000E+00 -0.00000000000E+00 -0.30787159743E+03  0.30787159743E+03  0.00000000000E+00 0.  1.
      99926    2    1    2    0    0  0.00000000000E+00  0.00000000000E+00 -0.14035197670E+03  0.47539121817E+03  0.45420054266E+03 0.  0.
      99925    2    3    3    0    0  0.10900723671E+03 -0.71844946333E+01 -0.60529412030E+02  0.29112688481E+03  0.26297691671E+03 0.  0.
         25    1    4    4    0    0  0.94687756073E+02  0.11156936532E+02 -0.39478527230E+02  0.16216137208E+03  0.12509000000E+03 0.  0.
         25    1    4    4    0    0  0.14319480634E+02 -0.18341431165E+02 -0.21050884800E+02  0.12896551273E+03  0.12509000000E+03 0.  0.
         25    1    3    3    0    0 -0.10900723671E+03  0.71844946333E+01 -0.79822564670E+02  0.18426433336E+03  0.12509000000E+03 0.  0.
<mgrwt>
<rscale>  2 0.45420054E+03</rscale>
<asrwt>0</asrwt>
<pdfrwt beam="1">  1       21 0.24635239E-01 0.45420054E+03</pdfrwt>
<pdfrwt beam="2">  1       21 0.45275234E-01 0.45420054E+03</pdfrwt>
<totfact> 0.67464165E+04</totfact>
</mgrwt>
</event>
<event>
 7    0  0.4750554E-002  0.4543911E+03  0.7546771E-02  0.1026421E+00
         21   -1    0    0  502  501  0.00000000000E+00  0.00000000000E+00  0.54471798705E+03  0.54471798705E+03  0.00000000000E+00 0. -1.
         21   -1    0    0  501  502 -0.00000000000E+00 -0.00000000000E+00 -0.94760636407E+02  0.94760636407E+02  0.00000000000E+00 0. -1.
      99926    2    1    2    0    0  0.00000000000E+00 -0.35527136788E-14  0.44995735065E+03  0.63947862346E+03  0.45439112278E+03 0.  0.
      99925    2    3    3    0    0  0.93846116589E+02  0.29181728202E+02  0.36051126611E+03  0.45697717963E+03  0.26306102496E+03 0.  0.
         25    1    4    4    0    0  0.82178419846E+02 -0.69993408536E+01  0.20208229381E+03  0.25156916550E+03  0.12509000000E+03 0.  0.
         25    1    3    3    0    0 -0.93846116589E+02 -0.29181728202E+02  0.89446084537E+02  0.18250144383E+03  0.12509000000E+03 0.  0.
         25    1    4    4    0    0  0.11667696743E+02  0.36181069056E+02  0.15842897230E+03  0.20540801413E+03  0.12509000000E+03 0.  0.
<mgrwt>
<rscale>  2 0.45439112E+03</rscale>
<asrwt>0</asrwt>
<pdfrwt beam="1">  1       21 0.80105585E-01 0.45439112E+03</pdfrwt>
<pdfrwt beam="2">  1       21 0.13935388E-01 0.45439112E+03</pdfrwt>
<totfact> 0.56583125E+04</totfact>
</mgrwt>
</event>
<event>
 7    0  0.4750554E-002  0.4983154E+03  0.7546771E-02  0.1014220E+00
         21   -1    0    0  502  501  0.00000000000E+00  0.00000000000E+00  0.15314264854E+04  0.15314264854E+04  0.00000000000E+00 0. -1.
         21   -1    0    0  501  502 -0.00000000000E+00 -0.00000000000E+00 -0.40537076293E+02  0.40537076293E+02  0.00000000000E+00 0. -1.
      99926    2    1    2    0    0  0.00000000000E+00  0.00000000000E+00  0.14908894091E+04  0.15719635617E+04  0.49831537113E+03 0.  0.
      99925    2    3    3    0    0 -0.98307378147E+02  0.15493486762E+02  0.12610558449E+04  0.12920075579E+04  0.26290168686E+03 0.  0.
         25    1    4    4    0    0 -0.66831379572E+02 -0.23834218896E+02  0.73541085376E+03  0.74934046682E+03  0.12509000000E+03 0.  0.
         25    1    3    3    0    0  0.98307378147E+02 -0.15493486762E+02  0.22983356421E+03  0.27995600381E+03  0.12509000000E+03 0.  0.
         25    1    4    4    0    0 -0.31475998575E+02  0.39327705658E+02  0.52564499110E+03  0.54266709103E+03  0.12509000000E+03 0.  0.
<mgrwt>
<rscale>  2 0.49831537E+03</rscale>
<asrwt>0</asrwt>
<pdfrwt beam="1">  1       21 0.22520974E+00 0.49831537E+03</pdfrwt>
<pdfrwt beam="2">  1       21 0.59613358E-02 0.49831537E+03</pdfrwt>
<totfact> 0.15980523E+04</totfact>
</mgrwt>
</event>
<event>
 7    0  0.4750554E-002  0.4609800E+03  0.7546771E-02  0.1024497E+00
         21   -1    0    0  502  501  0.00000000000E+00  0.00000000000E+00  0.10536692953E+04  0.10536692953E+04  0.00000000000E+00 0.  1.
         21   -1    0    0  501  502 -0.00000000000E+00 -0.00000000000E+00 -0.50419652697E+02  0.50419652697E+02  0.00000000000E+00 0.  1.
      99926    2    1    2    0    0  0.00000000000E+00  0.00000000000E+00  0.10032496426E+04  0.11040889480E+04  0.46097999924E+03 0.  0.
      99925    2    3    3    0    0 -0.11250139790E+03  0.90085120885E+01  0.53696008874E+03  0.60829546885E+03  0.26260145222E+03 0.  0.
         25    1    4    4    0    0 -0.39034353169E+02  0.15924949042E+02  0.18249759164E+03  0.22523357606E+03  0.12509000000E+03 0.  0.
         25    1    4    4    0    0 -0.73467044729E+02 -0.69164369531E+01  0.35446249709E+03  0.38306189279E+03  0.12509000000E+03 0.  0.
         25    1    3    3    0    0  0.11250139790E+03 -0.90085120885E+01  0.46628955383E+03  0.49579347911E+03  0.12509000000E+03 0.  0.
<mgrwt>
<rscale>  2 0.46098000E+03</rscale>
<asrwt>0</asrwt>
<pdfrwt beam="1">  1       21 0.15495135E+00 0.46098000E+03</pdfrwt>
<pdfrwt beam="2">  1       21 0.74146555E-02 0.46098000E+03</pdfrwt>
<totfact> 0.33750613E+04</totfact>
</mgrwt>
</event>
<event>
 7    0  0.4750554E-002  0.4598400E+03  0.7546771E-02  0.1024828E+00
         21   -1    0    0  502  501  0.00000000000E+00  0.00000000000E+00  0.12858980079E+03  0.12858980079E+03  0.00000000000E+00 0.  1.
         21   -1    0    0  501  502 -0.00000000000E+00 -0.00000000000E+00 -0.41109952438E+03  0.41109952438E+03  0.00000000000E+00 0.  1.
      99926    2    1    2    0    0  0.00000000000E+00 -0.71054273576E-14 -0.28250972359E+03  0.53968932517E+03  0.45983999802E+03 0.  0.
      99925    2    3    3    0    0  0.49593221764E+02 -0.57516912494E+02 -0.71340916758E+02  0.28277016289E+03  0.26287212813E+03 0.  0.
         25    1    3    3    0    0 -0.49593221764E+02  0.57516912494E+02 -0.21116880683E+03  0.25691916228E+03  0.12509000000E+03 0.  0.
         25    1    4    4    0    0  0.49732967290E+02  0.14185316119E+01 -0.45466262066E+02  0.14209176385E+03  0.12509000000E+03 0.  0.
         25    1    4    4    0    0 -0.13974552570E+00 -0.58935444106E+02 -0.25874654692E+02  0.14067839904E+03  0.12509000000E+03 0.  0.
<mgrwt>
<rscale>  2 0.45984000E+03</rscale>
<asrwt>0</asrwt>
<pdfrwt beam="1">  1       21 0.18910265E-01 0.45984000E+03</pdfrwt>
<pdfrwt beam="2">  1       21 0.60455812E-01 0.45984000E+03</pdfrwt>
<totfact> 0.60212421E+04</totfact>
</mgrwt>
</event>
<event>
 7    0  0.4750554E-002  0.4561534E+03  0.7546771E-02  0.1025903E+00
         21   -1    0    0  502  501  0.00000000000E+00  0.00000000000E+00  0.56398646778E+02  0.56398646778E+02  0.00000000000E+00 0. -1.
         21   -1    0    0  501  502 -0.00000000000E+00 -0.00000000000E+00 -0.92234437229E+03  0.92234437229E+03  0.00000000000E+00 0. -1.
      99926    2    1    2    0    0  0.00000000000E+00  0.00000000000E+00 -0.86594572551E+03  0.97874301907E+03  0.45615337097E+03 0.  0.
      99925    2    3    3    0    0 -0.62284870806E+02  0.89416428884E+02 -0.61805950673E+03  0.68046498024E+03  0.26298352151E+03 0.  0.
         25    1    3    3    0    0  0.62284870806E+02 -0.89416428884E+02 -0.24788621879E+03  0.29827803883E+03  0.12509000000E+03 0.  0.
         25    1    4    4    0    0  0.14726899722E+01  0.68756797208E+02 -0.30798182083E+03  0.33945541097E+03  0.12509000000E+03 0.  0.
         25    1    4    4    0    0 -0.63757560779E+02  0.20659631676E+02 -0.31007768590E+03  0.34100956926E+03  0.12509000000E+03 0.  0.
<mgrwt>
<rscale>  2 0.45615337E+03</rscale>
<asrwt>0</asrwt>
<pdfrwt beam="1">  1       21 0.82939183E-02 0.45615337E+03</pdfrwt>
<pdfrwt beam="2">  1       21 0.13563888E+00 0.45615337E+03</pdfrwt>
<totfact> 0.39639611E+04</totfact>
</mgrwt>
</event>
<event>
 7    0  0.4750554E-002  0.4495756E+03  0.7546771E-02  0.1027849E+00
         21   -1    0    0  502  501  0.00000000000E+00  0.00000000000E+00  0.90843106306E+03  0.90843106306E+03  0.00000000000E+00 0.  1.
         21   -1    0    0  501  502 -0.00000000000E+00 -0.00000000000E+00 -0.55622872004E+02  0.55622872004E+02  0.00000000000E+00 0.  1.
      99926    2    1    2    0    0  0.00000000000E+00  0.00000000000E+00  0.85280819106E+03  0.96405393507E+03  0.44957555425E+03 0.  0.
      99925    2    3    3    0    0  0.49390264051E+02 -0.95367175722E+02  0.56486565336E+03  0.63225172063E+03  0.26293485031E+03 0.  0.
         25    1    3    3    0    0 -0.49390264051E+02  0.95367175722E+02  0.28794253770E+03  0.33180221444E+03  0.12509000000E+03 0.  0.
         25    1    4    4    0    0  0.20221941445E+01 -0.71048863791E+02  0.23605925321E+03  0.27644802304E+03  0.12509000000E+03 0.  0.
         25    1    4    4    0    0  0.47368069907E+02 -0.24318311931E+02  0.32880640015E+03  0.35580369759E+03  0.12509000000E+03 0.  0.
<mgrwt>
<rscale>  2 0.44957555E+03</rscale>
<asrwt>0</asrwt>
<pdfrwt beam="1">  1       21 0.13359279E+00 0.44957555E+03</pdfrwt>
<pdfrwt beam="2">  1       21 0.81798347E-02 0.44957555E+03</pdfrwt>
<totfact> 0.42344470E+04</totfact>
</mgrwt>
</event>
<event>
 7    0  0.4750554E-002  0.4740390E+03  0.7546771E-02  0.1020786E+00
         21   -1    0    0  502  501  0.00000000000E+00  0.00000000000E+00  0.94840663452E+03  0.94840663452E+03  0.00000000000E+00 0. -1.
         21   -1    0    0  501  502 -0.00000000000E+00 -0.00000000000E+00 -0.59234350345E+02  0.59234350345E+02  0.00000000000E+00 0. -1.
      99926    2    1    2    0    0 -0.14210854715E-13  0.00000000000E+00  0.88917228418E+03  0.10076409849E+04  0.47403903155E+03 0.  0.
      99925    2    3    3    0    0  0.11247115552E+03  0.53158370135E+02  0.46902159256E+03  0.55195503500E+03  0.26305424010E+03 0.  0.
         25    1    4    4    0    0  0.45871116722E+02  0.15489870563E+02  0.29721357832E+03  0.32607900067E+03  0.12509000000E+03 0.  0.
         25    1    3    3    0    0 -0.11247115552E+03 -0.53158370135E+02  0.42015069162E+03  0.45568594987E+03  0.12509000000E+03 0.  0.
         25    1    4    4    0    0  0.66600038800E+02  0.37668499572E+02  0.17180801424E+03  0.22587603433E+03  0.12509000000E+03 0.  0.
<mgrwt>
<rscale>  2 0.47403903E+03</rscale>
<asrwt>0</asrwt>
<pdfrwt beam="1">  1       21 0.13947155E+00 0.47403903E+03</pdfrwt>
<pdfrwt beam="2">  1       21 0.87109345E-02 0.47403903E+03</pdfrwt>
<totfact> 0.33591511E+04</totfact>
</mgrwt>
</event>
<event>
 7    0  0.4750554E-002  0.4375927E+03  0.7546771E-02  0.1031488E+00
         21   -1    0    0  502  501  0.00000000000E+00  0.00000000000E+00  0.83707756587E+02  0.83707756587E+02  0.00000000000E+00 0.  1.
         21   -1    0    0  501  502 -0.00000000000E+00 -0.00000000000E+00 -0.57189243916E+03  0.57189243916E+03  0.00000000000E+00 0.  1.
      99926    2    1    2    0    0  0.14210854715E-13  0.00000000000E+00 -0.48818468257E+03  0.65560019575E+03  0.43759265575E+03 0.  0.
      99925    2    3    3    0    0  0.91135499581E+02 -0.18995901234E+02 -0.34694309160E+03  0.44521193878E+03  0.26301642169E+03 0.  0.
         25    1    3    3    0    0 -0.91135499581E+02  0.18995901234E+02 -0.14124159097E+03  0.21038825696E+03  0.12509000000E+03 0.  0.
         25    1    4    4    0    0  0.69239861866E+02 -0.42520870677E+02 -0.20148734374E+03  0.25069272168E+03  0.12509000000E+03 0.  0.
         25    1    4    4    0    0  0.21895637715E+02  0.23524969443E+02 -0.14545574786E+03  0.19451921711E+03  0.12509000000E+03 0.  0.
<mgrwt>
<rscale>  2 0.43759266E+03</rscale>
<asrwt>0</asrwt>
<pdfrwt beam="1">  1       21 0.12309965E-01 0.43759266E+03</pdfrwt>
<pdfrwt beam="2">  1       21 0.84101827E-01 0.43759266E+03</pdfrwt>
<totfact> 0.63677903E+04</totfact>
</mgrwt>
</event>
<event>
 7    0  0.4750554E-002  0.4549640E+03  0.7546771E-02  0.1026252E+00
         21   -1    0    0  502  501  0.00000000000E+00  0.00000000000E+00  0.44017598837E+02  0.44017598837E+02  0.00000000000E+00 0. -1.
         21   -1    0    0  501  502 -0.00000000000E+00 -0.00000000000E+00 -0.11756220419E+04  0.11756220419E+04  0.00000000000E+00 0. -1.
      99926    2    1    2    0    0  0.00000000000E+00  0.00000000000E+00 -0.11316044431E+04  0.12196396407E+04  0.45496399605E+03 0.  0.
      99925    2    3    3    0    0 -0.54446330951E+02  0.22981376833E+02 -0.45018881416E+03  0.52432150201E+03  0.26220320829E+03 0.  0.
         25    1    4    4    0    0 -0.44725185381E+02 -0.92203888498E+01 -0.28351711161E+03  0.31323285021E+03  0.12509000000E+03 0.  0.
         25    1    3    3    0    0  0.54446330951E+02 -0.22981376833E+02 -0.68141562891E+03  0.69531813874E+03  0.12509000000E+03 0.  0.
         25    1    4    4    0    0 -0.97211455700E+01  0.32201765683E+02 -0.16667170255E+03  0.21108865179E+03  0.12509000000E+03 0.  0.
<mgrwt>
<rscale>  2 0.45496400E+03</rscale>
<asrwt>0</asrwt>
<pdfrwt beam="1">  1       21 0.64731753E-02 0.45496400E+03</pdfrwt>
<pdfrwt beam="2">  1       21 0.17288562E+00 0.45496400E+03</pdfrwt>
<totfact> 0.31548428E+04</totfact>
</mgrwt>
</event>
<event>
 7    0  0.4750554E-002  0.4451098E+03  0.7546771E-02  0.1029190E+00
         21   -1    0    0  502  501  0.00000000000E+00  0.00000000000E+00  0.39104589623E+03  0.39104589623E+03  0.00000000000E+00 0.  1.
         21   -1    0    0  501  502 -0.00000000000E+00 -0.00000000000E+00 -0.12666209371E+03  0.12666209371E+03  0.00000000000E+00 0.  1.
      99926    2    1    2    0    0  0.00000000000E+00  0.00000000000E+00  0.26438380251E+03  0.51770798994E+03  0.44510983792E+03 0.  0.
      99925    2    3    3    0    0  0.26939244695E+02  0.90548575074E+02  0.11817680158E+03  0.30335136519E+03  0.26292874886E+03 0.  0.
         25    1    4    4    0    0  0.34690226111E+02  0.78439133582E+02  0.47371935844E+02  0.15889530475E+03  0.12509000000E+03 0.  0.
         25    1    4    4    0    0 -0.77509814161E+01  0.12109441492E+02  0.70804865741E+02  0.14445606044E+03  0.12509000000E+03 0.  0.
         25    1    3    3    0    0 -0.26939244695E+02 -0.90548575074E+02  0.14620700093E+03  0.21435662475E+03  0.12509000000E+03 0.  0.
<mgrwt>
<rscale>  2 0.44510984E+03</rscale>
<asrwt>0</asrwt>
<pdfrwt beam="1">  1       21 0.57506749E-01 0.44510984E+03</pdfrwt>
<pdfrwt beam="2">  1       21 0.18626779E-01 0.44510984E+03</pdfrwt>
<totfact> 0.69323683E+04</totfact>
</mgrwt>
</event>
<event>
 7    0  0.4750554E-002  0.4359664E+03  0.7546771E-02  0.1031992E+00
         21   -1    0    0  502  501  0.00000000000E+00  0.00000000000E+00  0.83854992674E+02  0.83854992674E+02  0.00000000000E+00 0.  1.
         21   -1    0    0  501  502 -0.00000000000E+00 -0.00000000000E+00 -0.56665299760E+03  0.56665299760E+03  0.00000000000E+00 0.  1.
      99926    2    1    2    0    0  0.14210854715E-13 -0.35527136788E-14 -0.48279800492E+03  0.65050799027E+03  0.43596643432E+03 0.  0.
      99925    2    3    3    0    0 -0.83296709379E+02  0.18828563944E+02 -0.24859747163E+03  0.37159894684E+03  0.26266369711E+03 0.  0.
         25    1    3    3    0    0  0.83296709379E+02 -0.18828563944E+02 -0.23420053329E+03  0.27890904343E+03  0.12509000000E+03 0.  0.
         25    1    4    4    0    0 -0.21847311203E+02  0.42211068053E+02 -0.10463543397E+03  0.16986807062E+03  0.12509000000E+03 0.  0.
         25    1    4    4    0    0 -0.61449398176E+02 -0.23382504109E+02 -0.14396203766E+03  0.20173087622E+03  0.12509000000E+03 0.  0.
<mgrwt>
<rscale>  2 0.43596643E+03</rscale>
<asrwt>0</asrwt>
<pdfrwt beam="1">  1       21 0.12331616E-01 0.43596643E+03</pdfrwt>
<pdfrwt beam="2">  1       21 0.83331324E-01 0.43596643E+03</pdfrwt>
<totfact> 0.64873426E+04</totfact>
</mgrwt>
</event>
<event>
 7    0  0.4750554E-002  0.4420058E+03  0.7546771E-02  0.1030133E+00
         21   -1    0    0  502  501  0.00000000000E+00  0.00000000000E+00  0.61596932087E+03  0.61596932087E+03  0.00000000000E+00 0.  1.
         21   -1    0    0  501  502 -0.00000000000E+00 -0.00000000000E+00 -0.79293370863E+02  0.79293370863E+02  0.00000000000E+00 0.  1.
      99926    2    1    2    0    0  0.00000000000E+00  0.00000000000E+00  0.53667595000E+03  0.69526269173E+03  0.44200580901E+03 0.  0.
      99925    2    3    3    0    0 -0.66320576500E+01 -0.60117944959E+02  0.21557283011E+03  0.34538718073E+03  0.26298765757E+03 0.  0.
         25    1    4    4    0    0 -0.40541370494E+02 -0.46092259214E+02  0.11715973191E+03  0.18204947119E+03  0.12509000000E+03 0.  0.
         25    1    3    3    0    0  0.66320576500E+01  0.60117944959E+02  0.32110311989E+03  0.34987551100E+03  0.12509000000E+03 0.  0.
         25    1    4    4    0    0  0.33909312844E+02 -0.14025685745E+02  0.98413098206E+02  0.16333770954E+03  0.12509000000E+03 0.  0.
<mgrwt>
<rscale>  2 0.44200581E+03</rscale>
<asrwt>0</asrwt>
<pdfrwt beam="1">  1       21 0.90583721E-01 0.44200581E+03</pdfrwt>
<pdfrwt beam="2">  1       21 0.11660790E-01 0.44200581E+03</pdfrwt>
<totfact> 0.58963860E+04</totfact>
</mgrwt>
</event>
<event>
 7    0  0.4750554E-002  0.4560086E+03  0.7546771E-02  0.1025945E+00
         21   -1    0    0  502  501  0.00000000000E+00  0.00000000000E+00  0.16263623125E+03  0.16263623125E+03  0.00000000000E+00 0.  1.
         21   -1    0    0  501  502 -0.00000000000E+00 -0.00000000000E+00 -0.31964556137E+03  0.31964556137E+03  0.00000000000E+00 0.  1.
      99926    2    1    2    0    0 -0.17763568394E-14 -0.14432899320E-14 -0.15700933012E+03  0.48228179263E+03  0.45600855009E+03 0.  0.
      99925    2    3    3    0    0 -0.95920127712E+01 -0.62642221304E+00  0.21514653627E+02  0.26408298423E+03  0.26302954801E+03 0.  0.
         25    1    3    3    0    0  0.95920127712E+01  0.62642221304E+00 -0.17852398374E+03  0.21819880840E+03  0.12509000000E+03 0.  0.
         25    1    4    4    0    0  0.25374986203E+02  0.26333482195E+02  0.51993794390E+01  0.13042961265E+03  0.12509000000E+03 0.  0.
         25    1    4    4    0    0 -0.34966998974E+02 -0.26959904408E+02  0.16315274188E+02  0.13365337158E+03  0.12509000000E+03 0.  0.
<mgrwt>
<rscale>  2 0.45600855E+03</rscale>
<asrwt>0</asrwt>
<pdfrwt beam="1">  1       21 0.23917093E-01 0.45600855E+03</pdfrwt>
<pdfrwt beam="2">  1       21 0.47006700E-01 0.45600855E+03</pdfrwt>
<totfact> 0.66004379E+04</totfact>
</mgrwt>
</event>
<event>
 7    0  0.4750554E-002  0.5201940E+03  0.7546771E-02  0.1008638E+00
         21   -1    0    0  502  501  0.00000000000E+00  0.00000000000E+00  0.79459525202E+03  0.79459525202E+03  0.00000000000E+00 0. -1.
         21   -1    0    0  501  502 -0.00000000000E+00 -0.00000000000E+00 -0.85138263477E+02  0.85138263477E+02  0.00000000000E+00 0. -1.
      99926    2    1    2    0    0  0.14210854715E-13  0.00000000000E+00  0.70945698854E+03  0.87973351549E+03  0.52019404043E+03 0.  0.
      99925    2    3    3    0    0 -0.12728132967E+03 -0.39549169305E+02  0.59517608717E+03  0.66415915201E+03  0.26288425359E+03 0.  0.
         25    1    3    3    0    0  0.12728132967E+03  0.39549169305E+02  0.11428090137E+03  0.21557436349E+03  0.12509000000E+03 0.  0.
         25    1    4    4    0    0 -0.10695244408E+03 -0.20714363808E+02  0.35895240631E+03  0.39542666609E+03  0.12509000000E+03 0.  0.
         25    1    4    4    0    0 -0.20328885592E+02 -0.18834805497E+02  0.23622368086E+03  0.26873248591E+03  0.12509000000E+03 0.  0.
<mgrwt>
<rscale>  2 0.52019404E+03</rscale>
<asrwt>0</asrwt>
<pdfrwt beam="1">  1       21 0.11685224E+00 0.52019404E+03</pdfrwt>
<pdfrwt beam="2">  1       21 0.12520333E-01 0.52019404E+03</pdfrwt>
<totfact> 0.27279426E+04</totfact>
</mgrwt>
</event>
<event>
 7    0  0.4750554E-002  0.4527676E+03  0.7546771E-02  0.1026900E+00
         21   -1    0    0  502  501  0.00000000000E+00  0.00000000000E+00  0.20677237777E+03  0.20677237777E+03  0.00000000000E+00 0.  1.
         21   -1    0    0  501  502 -0.00000000000E+00 -0.00000000000E+00 -0.24785530929E+03  0.24785530929E+03  0.00000000000E+00 0.  1.
      99926    2    1    2    0    0  0.00000000000E+00  0.00000000000E+00 -0.41082931524E+02  0.45462768706E+03  0.45276762978E+03 0.  0.
      99925    2    3    3    0    0  0.32939853017E+02 -0.83578251324E+01 -0.13193844777E+03  0.29633327752E+03  0.26315541075E+03 0.  0.
         25    1    3    3    0    0 -0.32939853017E+02  0.83578251324E+01  0.90855516245E+02  0.15829440953E+03  0.12509000000E+03 0.  0.
         25    1    4    4    0    0 -0.21178303916E+02 -0.79482345980E+01 -0.81514952348E+02  0.15100957104E+03  0.12509000000E+03 0.  0.
         25    1    4    4    0    0  0.54118156933E+02 -0.40959053436E+00 -0.50423495421E+02  0.14532370648E+03  0.12509000000E+03 0.  0.
<mgrwt>
<rscale>  2 0.45276763E+03</rscale>
<asrwt>0</asrwt>
<pdfrwt beam="1">  1       21 0.30407703E-01 0.45276763E+03</pdfrwt>
<pdfrwt beam="2">  1       21 0.36449310E-01 0.45276763E+03</pdfrwt>
<totfact> 0.69808203E+04</totfact>
</mgrwt>
</event>
<event>
 7    0  0.4750554E-002  0.4461053E+03  0.7546771E-02  0.1028890E+00
         21   -1    0    0  502  501  0.00000000000E+00  0.00000000000E+00  0.33650336588E+03  0.33650336588E+03  0.00000000000E+00 0.  1.
         21   -1    0    0  501  502 -0.00000000000E+00 -0.00000000000E+00 -0.14785140104E+03  0.14785140104E+03  0.00000000000E+00 0.  1.
      99926    2    1    2    0    0  0.00000000000E+00  0.71054273576E-14  0.18865196484E+03  0.48435476692E+03  0.44610534227E+03 0.  0.
      99925    2    3    3    0    0 -0.28515416197E+02 -0.40809081251E+02  0.19770833271E+02  0.26837593747E+03  0.26297575532E+03 0.  0.
         25    1    4    4    0    0 -0.35363754218E+02 -0.10794843870E+02 -0.23379110486E+02  0.13251873329E+03  0.12509000000E+03 0.  0.
         25    1    3    3    0    0  0.28515416197E+02  0.40809081251E+02  0.16888113157E+03  0.21597882945E+03  0.12509000000E+03 0.  0.
         25    1    4    4    0    0  0.68483380213E+01 -0.30014237381E+02  0.43149943756E+02  0.13585720417E+03  0.12509000000E+03 0.  0.
<mgrwt>
<rscale>  2 0.44610534E+03</rscale>
<asrwt>0</asrwt>
<pdfrwt beam="1">  1       21 0.49485789E-01 0.44610534E+03</pdfrwt>
<pdfrwt beam="2">  1       21 0.21742853E-01 0.44610534E+03</pdfrwt>
<totfact> 0.71286682E+04</totfact>
</mgrwt>
</event>
<event>
 7    0  0.4750554E-002  0.4564818E+03  0.7546771E-02  0.1025807E+00
         21   -1    0    0  502  501  0.00000000000E+00  0.00000000000E+00  0.21135594090E+03  0.21135594090E+03  0.00000000000E+00 0.  1.
         21   -1    0    0  501  502 -0.00000000000E+00 -0.00000000000E+00 -0.24647478850E+03  0.24647478850E+03  0.00000000000E+00 0.  1.
      99926    2    1    2    0    0  0.17763568394E-14 -0.14210854715E-13 -0.35118847601E+02  0.45783072940E+03  0.45648181051E+03 0.  0.
      99925    2    3    3    0    0  0.93119166784E+01 -0.82913071145E+02 -0.10073956647E+03  0.29377319070E+03  0.26304550587E+03 0.  0.
         25    1    3    3    0    0 -0.93119166784E+01  0.82913071145E+02  0.65620718870E+02  0.16405753870E+03  0.12509000000E+03 0.  0.
         25    1    4    4    0    0 -0.75921486337E+01 -0.20345239463E+02 -0.12585603349E+02  0.12758320815E+03  0.12509000000E+03 0.  0.
         25    1    4    4    0    0  0.16904065312E+02 -0.62567831682E+02 -0.88153963122E+02  0.16618998255E+03  0.12509000000E+03 0.  0.
<mgrwt>
<rscale>  2 0.45648181E+03</rscale>
<asrwt>0</asrwt>
<pdfrwt beam="1">  1       21 0.31081756E-01 0.45648181E+03</pdfrwt>
<pdfrwt beam="2">  1       21 0.36246292E-01 0.45648181E+03</pdfrwt>
<totfact> 0.67536921E+04</totfact>
</mgrwt>
</event>
<event>
 7    0  0.4750554E-002  0.4678280E+03  0.7546771E-02  0.1022535E+00
         21   -1    0    0  502  501  0.00000000000E+00  0.00000000000E+00  0.37316361742E+02  0.37316361742E+02  0.00000000000E+00 0. -1.
         21   -1    0    0  501  502 -0.00000000000E+00 -0.00000000000E+00 -0.14662673721E+04  0.14662673721E+04  0.00000000000E+00 0. -1.
      99926    2    1    2    0    0 -0.35527136788E-14  0.14210854715E-13 -0.14289510104E+04  0.15035837339E+04  0.46782801827E+03 0.  0.
      99925    2    3    3    0    0 -0.16171906665E+02  0.87037435535E+02 -0.60688401263E+03  0.66735487605E+03  0.26309177116E+03 0.  0.
         25    1    4    4    0    0  0.26104740553E+02  0.30745051645E+02 -0.33598425893E+03  0.36077644883E+03  0.12509000000E+03 0.  0.
         25    1    3    3    0    0  0.16171906665E+02 -0.87037435535E+02 -0.82206699776E+03  0.83622885782E+03  0.12509000000E+03 0.  0.
         25    1    4    4    0    0 -0.42276647217E+02  0.56292383890E+02 -0.27089975369E+03  0.30657842722E+03  0.12509000000E+03 0.  0.
<mgrwt>
<rscale>  2 0.46782802E+03</rscale>
<asrwt>0</asrwt>
<pdfrwt beam="1">  1       21 0.54877008E-02 0.46782802E+03</pdfrwt>
<pdfrwt beam="2">  1       21 0.21562753E+00 0.46782802E+03</pdfrwt>
<totfact> 0.21471117E+04</totfact>
</mgrwt>
</event>
<event>
 7    0  0.4750554E-002  0.4277502E+03  0.7546771E-02  0.1034573E+00
         21   -1    0    0  502  501  0.00000000000E+00  0.00000000000E+00  0.47279753375E+03  0.47279753375E+03  0.00000000000E+00 0. -1.
         21   -1    0    0  501  502 -0.00000000000E+00 -0.00000000000E+00 -0.96748738169E+02  0.96748738169E+02  0.00000000000E+00 0. -1.
      99926    2    1    2    0    0  0.00000000000E+00  0.71054273576E-14  0.37604879558E+03  0.56954627192E+03  0.42775022992E+03 0.  0.
      99925    2    3    3    0    0 -0.72746949244E+02 -0.40590850807E+02  0.21983610390E+03  0.35277531229E+03  0.26302618233E+03 0.  0.
         25    1    3    3    0    0  0.72746949244E+02  0.40590850807E+02  0.15621269168E+03  0.21677095962E+03  0.12509000000E+03 0.  0.
         25    1    4    4    0    0 -0.33444864105E+01  0.41367108798E+01  0.11362913114E+03  0.16907804562E+03  0.12509000000E+03 0.  0.
         25    1    4    4    0    0 -0.69402462834E+02 -0.44727561686E+02  0.10620697275E+03  0.18369726667E+03  0.12509000000E+03 0.  0.
<mgrwt>
<rscale>  2 0.42775023E+03</rscale>
<asrwt>0</asrwt>
<pdfrwt beam="1">  1       21 0.69529048E-01 0.42775023E+03</pdfrwt>
<pdfrwt beam="2">  1       21 0.14227756E-01 0.42775023E+03</pdfrwt>
<totfact> 0.75616268E+04</totfact>
</mgrwt>
</event>
<event>
 7    0  0.4750554E-002  0.4578291E+03  0.7546771E-02  0.1025413E+00
         21   -1    0    0  502  501  0.00000000000E+00  0.00000000000E+00  0.21309349887E+03  0.21309349887E+03  0.00000000000E+00 0.  1.
         21   -1    0    0  501  502 -0.00000000000E+00 -0.00000000000E+00 -0.24591026987E+03  0.24591026987E+03  0.00000000000E+00 0.  1.
      99926    2    1    2    0    0  0.00000000000E+00 -0.14210854715E-13 -0.32816771007E+02  0.45900376874E+03  0.45782913763E+03 0.  0.
      99925    2    3    3    0    0 -0.88896193682E+01 -0.70881980160E+02 -0.11196015532E+03  0.29464299537E+03  0.26301356980E+03 0.  0.
         25    1    4    4    0    0  0.44968799731E+01  0.54447096113E+01 -0.55578732751E+02  0.13706338106E+03  0.12509000000E+03 0.  0.
         25    1    4    4    0    0 -0.13386499341E+02 -0.76326689771E+02 -0.56381422567E+02  0.15757961431E+03  0.12509000000E+03 0.  0.
         25    1    3    3    0    0  0.88896193682E+01  0.70881980160E+02  0.79143384310E+02  0.16436077337E+03  0.12509000000E+03 0.  0.
<mgrwt>
<rscale>  2 0.45782914E+03</rscale>
<asrwt>0</asrwt>
<pdfrwt beam="1">  1       21 0.31337279E-01 0.45782914E+03</pdfrwt>
<pdfrwt beam="2">  1       21 0.36163275E-01 0.45782914E+03</pdfrwt>
<totfact> 0.66734342E+04</totfact>
</mgrwt>
</event>
<event>
 7    0  0.4750554E-002  0.4546808E+03  0.7546771E-02  0.1026335E+00
         21   -1    0    0  502  501  0.00000000000E+00  0.00000000000E+00  0.92533568194E+03  0.92533568194E+03  0.00000000000E+00 0. -1.
         21   -1    0    0  501  502 -0.00000000000E+00 -0.00000000000E+00 -0.55853949592E+02  0.55853949592E+02  0.00000000000E+00 0. -1.
      99926    2    1    2    0    0  0.14210854715E-13  0.71054273576E-14  0.86948173235E+03  0.98118963153E+03  0.45468077828E+03 0.  0.
      99925    2    3    3    0    0 -0.91969106207E+02 -0.60040057140E+02  0.49142322576E+03  0.56810505489E+03  0.26302745411E+03 0.  0.
         25    1    3    3    0    0  0.91969106207E+02  0.60040057140E+02  0.37805850659E+03  0.41308457665E+03  0.12509000000E+03 0.  0.
         25    1    4    4    0    0 -0.36873007742E+02 -0.54029305985E+02  0.31217978291E+03  0.34261130974E+03  0.12509000000E+03 0.  0.
         25    1    4    4    0    0 -0.55096098465E+02 -0.60107511552E+01  0.17924344285E+03  0.22549374515E+03  0.12509000000E+03 0.  0.
<mgrwt>
<rscale>  2 0.45468078E+03</rscale>
<asrwt>0</asrwt>
<pdfrwt beam="1">  1       21 0.13607877E+00 0.45468078E+03</pdfrwt>
<pdfrwt beam="2">  1       21 0.82138167E-02 0.45468078E+03</pdfrwt>
<totfact> 0.40002552E+04</totfact>
</mgrwt>
</event>
<event>
 7    0  0.4750554E-002  0.4723025E+03  0.7546771E-02  0.1021272E+00
         21   -1    0    0  502  501  0.00000000000E+00  0.00000000000E+00  0.60669647338E+03  0.60669647338E+03  0.00000000000E+00 0.  1.
         21   -1    0    0  501  502 -0.00000000000E+00 -0.00000000000E+00 -0.91919784042E+02  0.91919784042E+02  0.00000000000E+00 0.  1.
      99926    2    1    2    0    0  0.00000000000E+00  0.00000000000E+00  0.51477668934E+03  0.69861625742E+03  0.47230248279E+03 0.  0.
      99925    2    3    3    0    0 -0.52210126085E+02 -0.79241624035E+02  0.19073239798E+03  0.33853662302E+03  0.26310276556E+03 0.  0.
         25    1    4    4    0    0  0.99683605481E+01 -0.16532156368E+02  0.86716984379E+02  0.15342758515E+03  0.12509000000E+03 0.  0.
         25    1    4    4    0    0 -0.62178486633E+02 -0.62709467667E+02  0.10401541360E+03  0.18510903787E+03  0.12509000000E+03 0.  0.
         25    1    3    3    0    0  0.52210126085E+02  0.79241624035E+02  0.32404429136E+03  0.36007963440E+03  0.12509000000E+03 0.  0.
<mgrwt>
<rscale>  2 0.47230248E+03</rscale>
<asrwt>0</asrwt>
<pdfrwt beam="1">  1       21 0.89220068E-01 0.47230248E+03</pdfrwt>
<pdfrwt beam="2">  1       21 0.13517616E-01 0.47230248E+03</pdfrwt>
<totfact> 0.46335151E+04</totfact>
</mgrwt>
</event>
<event>
 7    0  0.4750554E-002  0.4688629E+03  0.7546771E-02  0.1022242E+00
         21   -1    0    0  502  501  0.00000000000E+00  0.00000000000E+00  0.14393521553E+03  0.14393521553E+03  0.00000000000E+00 0.  1.
         21   -1    0    0  501  502 -0.00000000000E+00 -0.00000000000E+00 -0.38182532958E+03  0.38182532958E+03  0.00000000000E+00 0.  1.
      99926    2    1    2    0    0  0.00000000000E+00  0.00000000000E+00 -0.23789011404E+03  0.52576054511E+03  0.46886292712E+03 0.  0.
      99925    2    3    3    0    0 -0.72399248951E+02 -0.49687817618E+02 -0.24871014067E+03  0.37254464663E+03  0.26310121473E+03 0.  0.
         25    1    3    3    0    0  0.72399248951E+02  0.49687817618E+02  0.10820026629E+02  0.15321589847E+03  0.12509000000E+03 0.  0.
         25    1    4    4    0    0 -0.39800236002E+02 -0.15571982214E+02 -0.70664598938E+02  0.14989175781E+03  0.12509000000E+03 0.  0.
         25    1    4    4    0    0 -0.32599012949E+02 -0.34115835404E+02 -0.17804554174E+03  0.22265288883E+03  0.12509000000E+03 0.  0.
<mgrwt>
<rscale>  2 0.46886293E+03</rscale>
<asrwt>0</asrwt>
<pdfrwt beam="1">  1       21 0.21166944E-01 0.46886293E+03</pdfrwt>
<pdfrwt beam="2">  1       21 0.56150783E-01 0.46886293E+03</pdfrwt>
<totfact> 0.56967678E+04</totfact>
</mgrwt>
</event>
<event>
 7    0  0.4750554E-002  0.4593951E+03  0.7546771E-02  0.1024957E+00
         21   -1    0    0  502  501  0.00000000000E+00  0.00000000000E+00  0.16805311934E+03  0.16805311934E+03  0.00000000000E+00 0.  1.
         21   -1    0    0  501  502 -0.00000000000E+00 -0.00000000000E+00 -0.31395410800E+03  0.31395410800E+03  0.00000000000E+00 0.  1.
      99926    2    1    2    0    0  0.00000000000E+00 -0.17763568394E-14 -0.14590098866E+03  0.48200722733E+03  0.45939511176E+03 0.  0.
      99925    2    3    3    0    0  0.80443696952E+02  0.28070820639E+01 -0.18090017600E+03  0.32919518820E+03  0.26299340328E+03 0.  0.
         25    1    3    3    0    0 -0.80443696952E+02 -0.28070820639E+01  0.34999187341E+02  0.15281203913E+03  0.12509000000E+03 0.  0.
         25    1    4    4    0    0  0.20288085945E+02  0.24833555245E+02 -0.54459874566E+02  0.14014884208E+03  0.12509000000E+03 0.  0.
         25    1    4    4    0    0  0.60155611007E+02 -0.22026473181E+02 -0.12644030143E+03  0.18904634613E+03  0.12509000000E+03 0.  0.
<mgrwt>
<rscale>  2 0.45939511E+03</rscale>
<asrwt>0</asrwt>
<pdfrwt beam="1">  1       21 0.24713695E-01 0.45939511E+03</pdfrwt>
<pdfrwt beam="2">  1       21 0.46169721E-01 0.45939511E+03</pdfrwt>
<totfact> 0.64282328E+04</totfact>
</mgrwt>
</event>
<event>
 7    0  0.4750554E-002  0.4668538E+03  0.7546771E-02  0.1022812E+00
         21   -1    0    0  502  501  0.00000000000E+00  0.00000000000E+00  0.91148528264E+02  0.91148528264E+02  0.00000000000E+00 0. -1.
         21   -1    0    0  501  502 -0.00000000000E+00 -0.00000000000E+00 -0.59779485507E+03  0.59779485507E+03  0.00000000000E+00 0. -1.
      99926    2    1    2    0    0 -0.71054273576E-14 -0.71054273576E-14 -0.50664632680E+03  0.68894338333E+03  0.46685381542E+03 0.  0.
      99925    2    3    3    0    0 -0.53679414864E+02 -0.59302898171E+02 -0.45515634924E+03  0.53179046672E+03  0.26312636683E+03 0.  0.
         25    1    4    4    0    0 -0.37914301225E+01 -0.60846104549E+02 -0.25587683187E+03  0.29126806308E+03  0.12509000000E+03 0.  0.
         25    1    4    4    0    0 -0.49887984741E+02  0.15432063787E+01 -0.19927951737E+03  0.24052240364E+03  0.12509000000E+03 0.  0.
         25    1    3    3    0    0  0.53679414864E+02  0.59302898171E+02 -0.51489977559E+02  0.15715291662E+03  0.12509000000E+03 0.  0.
<mgrwt>
<rscale>  2 0.46685382E+03</rscale>
<asrwt>0</asrwt>
<pdfrwt beam="1">  1       21 0.13404196E-01 0.46685382E+03</pdfrwt>
<pdfrwt beam="2">  1       21 0.87911006E-01 0.46685382E+03</pdfrwt>
<totfact> 0.48789932E+04</totfact>
</mgrwt>
</event>
<event>
 7    0  0.4750554E-002  0.4516573E+03  0.7546771E-02  0.1027229E+00
         21   -1    0    0  502  501  0.00000000000E+00  0.00000000000E+00  0.13723898812E+04  0.13723898812E+04  0.00000000000E+00 0. -1.
         21   -1    0    0  501  502 -0.00000000000E+00 -0.00000000000E+00 -0.37160409462E+02  0.37160409462E+02  0.00000000000E+00 0. -1.
      99926    2    1    2    0    0  0.00000000000E+00  0.35527136788E-14  0.13352294718E+04  0.14095502907E+04  0.45165725911E+03 0.  0.
      99925    2    3    3    0    0 -0.46488242927E+02 -0.77294978528E+01  0.11527751258E+04  0.11833689512E+04  0.26315524347E+03 0.  0.
         25    1    3    3    0    0  0.46488242927E+02  0.77294978528E+01  0.18245434600E+03  0.22618133951E+03  0.12509000000E+03 0.  0.
         25    1    4    4    0    0  0.74073965772E+00  0.26158581119E+02  0.48992573091E+03  0.50631961246E+03  0.12509000000E+03 0.  0.
         25    1    4    4    0    0 -0.47228982584E+02 -0.33888078972E+02  0.66284939485E+03  0.67704933871E+03  0.12509000000E+03 0.  0.
<mgrwt>
<rscale>  2 0.45165726E+03</rscale>
<asrwt>0</asrwt>
<pdfrwt beam="1">  1       21 0.20182201E+00 0.45165726E+03</pdfrwt>
<pdfrwt beam="2">  1       21 0.54647670E-02 0.45165726E+03</pdfrwt>
<totfact> 0.26767204E+04</totfact>
</mgrwt>
</event>
<event>
 7    0  0.4750554E-002  0.4556031E+03  0.7546771E-02  0.1026064E+00
         21   -1    0    0  502  501  0.00000000000E+00  0.00000000000E+00  0.37321638112E+02  0.37321638112E+02  0.00000000000E+00 0.  1.
         21   -1    0    0  501  502 -0.00000000000E+00 -0.00000000000E+00 -0.13904414239E+04  0.13904414239E+04  0.00000000000E+00 0.  1.
      99926    2    1    2    0    0  0.00000000000E+00  0.00000000000E+00 -0.13531197858E+04  0.14277630620E+04  0.45560312395E+03 0.  0.
      99925    2    3    3    0    0 -0.20441328924E+02  0.73125830118E+02 -0.11163037286E+04  0.11493845643E+04  0.26303160865E+03 0.  0.
         25    1    4    4    0    0  0.20686323336E+02  0.31007855376E+02 -0.43344072377E+03  0.45266740570E+03  0.12509000000E+03 0.  0.
         25    1    3    3    0    0  0.20441328924E+02 -0.73125830118E+02 -0.23681605716E+03  0.27837849771E+03  0.12509000000E+03 0.  0.
         25    1    4    4    0    0 -0.41127652261E+02  0.42117974742E+02 -0.68286300485E+03  0.69671715859E+03  0.12509000000E+03 0.  0.
<mgrwt>
<rscale>  2 0.45560312E+03</rscale>
<asrwt>0</asrwt>
<pdfrwt beam="1">  1       21 0.54884762E-02 0.45560312E+03</pdfrwt>
<pdfrwt beam="2">  1       21 0.20447668E+00 0.45560312E+03</pdfrwt>
<totfact> 0.25481860E+04</totfact>
</mgrwt>
</event>
<event>
 7    0  0.4750554E-002  0.4573823E+03  0.7546771E-02  0.1025543E+00
         21   -1    0    0  502  501  0.00000000000E+00  0.00000000000E+00  0.71815595038E+03  0.71815595038E+03  0.00000000000E+00 0.  1.
         21   -1    0    0  501  502 -0.00000000000E+00 -0.00000000000E+00 -0.72824917886E+02  0.72824917886E+02  0.00000000000E+00 0.  1.
      99926    2    1    2    0    0  0.00000000000E+00  0.00000000000E+00  0.64533103250E+03  0.79098086827E+03  0.45738232636E+03 0.  0.
      99925    2    3    3    0    0  0.80068441212E+02  0.83000486166E+02  0.41072966910E+03  0.50117861881E+03  0.26302302351E+03 0.  0.
         25    1    3    3    0    0 -0.80068441212E+02 -0.83000486166E+02  0.23460136340E+03  0.28980224946E+03  0.12509000000E+03 0.  0.
         25    1    4    4    0    0  0.67098851259E+02  0.60900472232E+02  0.17761350526E+03  0.23538306801E+03  0.12509000000E+03 0.  0.
         25    1    4    4    0    0  0.12969589952E+02  0.22100013934E+02  0.23311616384E+03  0.26579555080E+03  0.12509000000E+03 0.  0.
<mgrwt>
<rscale>  2 0.45738233E+03</rscale>
<asrwt>0</asrwt>
<pdfrwt beam="1">  1       21 0.10561117E+00 0.45738233E+03</pdfrwt>
<pdfrwt beam="2">  1       21 0.10709547E-01 0.45738233E+03</pdfrwt>
<totfact> 0.47313311E+04</totfact>
</mgrwt>
</event>
<event>
 7    0  0.4750554E-002  0.4533816E+03  0.7546771E-02  0.1026718E+00
         21   -1    0    0  502  501  0.00000000000E+00  0.00000000000E+00  0.20527825161E+03  0.20527825161E+03  0.00000000000E+00 0.  1.
         21   -1    0    0  501  502 -0.00000000000E+00 -0.00000000000E+00 -0.25033692635E+03  0.25033692635E+03  0.00000000000E+00 0.  1.
      99926    2    1    2    0    0  0.35527136788E-14  0.00000000000E+00 -0.45058674742E+02  0.45561517797E+03  0.45338163419E+03 0.  0.
      99925    2    3    3    0    0  0.26536524312E+02  0.10446596287E+03 -0.56738571453E+02  0.29008194079E+03  0.26326971410E+03 0.  0.
         25    1    4    4    0    0  0.45042350819E+02  0.31701181786E+02 -0.44212514866E+02  0.14365247253E+03  0.12509000000E+03 0.  0.
         25    1    4    4    0    0 -0.18505826507E+02  0.72764781088E+02 -0.12526056587E+02  0.14642946826E+03  0.12509000000E+03 0.  0.
         25    1    3    3    0    0 -0.26536524312E+02 -0.10446596287E+03  0.11679896710E+02  0.16553323717E+03  0.12509000000E+03 0.  0.
<mgrwt>
<rscale>  2 0.45338163E+03</rscale>
<asrwt>0</asrwt>
<pdfrwt beam="1">  1       21 0.30187978E-01 0.45338163E+03</pdfrwt>
<pdfrwt beam="2">  1       21 0.36814254E-01 0.45338163E+03</pdfrwt>
<totfact> 0.69392434E+04</totfact>
</mgrwt>
</event>
<event>
 7    0  0.4750554E-002  0.4559038E+03  0.7546771E-02  0.1025976E+00
         21   -1    0    0  502  501  0.00000000000E+00  0.00000000000E+00  0.21229943849E+04  0.21229943849E+04  0.00000000000E+00 0.  1.
         21   -1    0    0  501  502 -0.00000000000E+00 -0.00000000000E+00 -0.24475835166E+02  0.24475835166E+02  0.00000000000E+00 0.  1.
      99926    2    1    2    0    0  0.00000000000E+00  0.00000000000E+00  0.20985185497E+04  0.21474702200E+04  0.45590376451E+03 0.  0.
      99925    2    3    3    0    0 -0.24217298813E+02  0.10688809666E+03  0.14681869460E+04  0.14955676341E+04  0.26294124271E+03 0.  0.
         25    1    4    4    0    0 -0.51678638488E+02  0.60359249548E+02  0.72450573802E+03  0.73950658767E+03  0.12509000000E+03 0.  0.
         25    1    4    4    0    0  0.27461339676E+02  0.46528847113E+02  0.74368120795E+03  0.75606104644E+03  0.12509000000E+03 0.  0.
         25    1    3    3    0    0  0.24217298813E+02 -0.10688809666E+03  0.63033160375E+03  0.65190258594E+03  0.12509000000E+03 0.  0.
<mgrwt>
<rscale>  2 0.45590376E+03</rscale>
<asrwt>0</asrwt>
<pdfrwt beam="1">  1       21 0.31220493E+00 0.45590376E+03</pdfrwt>
<pdfrwt beam="2">  1       21 0.35993890E-02 0.45590376E+03</pdfrwt>
<totfact> 0.11368084E+04</totfact>
</mgrwt>
</event>
<event>
 7    0  0.4750554E-002  0.4518363E+03  0.7546771E-02  0.1027176E+00
         21   -1    0    0  502  501  0.00000000000E+00  0.00000000000E+00  0.64749327761E+02  0.64749327761E+02  0.00000000000E+00 0. -1.
         21   -1    0    0  501  502 -0.00000000000E+00 -0.00000000000E+00 -0.78825561564E+03  0.78825561564E+03  0.00000000000E+00 0. -1.
      99926    2    1    2    0    0  0.00000000000E+00 -0.71054273576E-14 -0.72350628788E+03  0.85300494340E+03  0.45183634744E+03 0.  0.
      99925    2    3    3    0    0  0.84818016936E+02 -0.51217954105E+02 -0.54763213393E+03  0.61552525807E+03  0.26296960734E+03 0.  0.
         25    1    4    4    0    0  0.20070986163E+02 -0.81667719435E+01 -0.18747176616E+03  0.22641270250E+03  0.12509000000E+03 0.  0.
         25    1    3    3    0    0 -0.84818016936E+02  0.51217954105E+02 -0.17587415395E+03  0.23747968533E+03  0.12509000000E+03 0.  0.
         25    1    4    4    0    0  0.64747030774E+02 -0.43051182161E+02 -0.36016036778E+03  0.38911255556E+03  0.12509000000E+03 0.  0.
<mgrwt>
<rscale>  2 0.45183635E+03</rscale>
<asrwt>0</asrwt>
<pdfrwt beam="1">  1       21 0.95219602E-02 0.45183635E+03</pdfrwt>
<pdfrwt beam="2">  1       21 0.11591994E+00 0.45183635E+03</pdfrwt>
<totfact> 0.46447214E+04</totfact>
</mgrwt>
</event>
<event>
 7    0  0.4750554E-002  0.4509140E+03  0.7546771E-02  0.1027450E+00
         21   -1    0    0  502  501  0.00000000000E+00  0.00000000000E+00  0.18189376348E+02  0.18189376348E+02  0.00000000000E+00 0.  1.
         21   -1    0    0  501  502 -0.00000000000E+00 -0.00000000000E+00 -0.27945353873E+04  0.27945353873E+04  0.00000000000E+00 0.  1.
      99926    2    1    2    0    0  0.00000000000E+00  0.00000000000E+00 -0.27763460110E+04  0.28127247637E+04  0.45091398682E+03 0.  0.
      99925    2    3    3    0    0 -0.48712598439E+02 -0.88775117960E+02 -0.14987353733E+04  0.15250173479E+04  0.26308982050E+03 0.  0.
         25    1    3    3    0    0  0.48712598439E+02  0.88775117960E+02 -0.12776106377E+04  0.12877074157E+04  0.12509000000E+03 0.  0.
         25    1    4    4    0    0 -0.42405154847E+02 -0.25881141140E+02 -0.56426826885E+03  0.58009845540E+03  0.12509000000E+03 0.  0.
         25    1    4    4    0    0 -0.63074435915E+01 -0.62893976820E+02 -0.93446710440E+03  0.94491889254E+03  0.12509000000E+03 0.  0.
<mgrwt>
<rscale>  2 0.45091399E+03</rscale>
<asrwt>0</asrwt>
<pdfrwt beam="1">  1       21 0.26749083E-02 0.45091399E+03</pdfrwt>
<pdfrwt beam="2">  1       21 0.41096108E+00 0.45091399E+03</pdfrwt>
<totfact> 0.45760507E+03</totfact>
</mgrwt>
</event>
<event>
 7    0  0.4750554E-002  0.4541702E+03  0.7546771E-02  0.1026486E+00
         21   -1    0    0  502  501  0.00000000000E+00  0.00000000000E+00  0.39211482129E+02  0.39211482129E+02  0.00000000000E+00 0. -1.
         21   -1    0    0  501  502 -0.00000000000E+00 -0.00000000000E+00 -0.13151159491E+04  0.13151159491E+04  0.00000000000E+00 0. -1.
      99926    2    1    2    0    0  0.88817841970E-15  0.88817841970E-15 -0.12759044669E+04  0.13543274312E+04  0.45417021273E+03 0.  0.
      99925    2    3    3    0    0  0.75063047045E+01 -0.65941065179E+01 -0.46984192153E+03  0.53855530489E+03  0.26304098225E+03 0.  0.
         25    1    4    4    0    0  0.12540945891E+02 -0.38892825733E+02 -0.27281655705E+03  0.30289653203E+03  0.12509000000E+03 0.  0.
         25    1    4    4    0    0 -0.50346411866E+01  0.32298719215E+02 -0.19702536449E+03  0.23565877286E+03  0.12509000000E+03 0.  0.
         25    1    3    3    0    0 -0.75063047045E+01  0.65941065179E+01 -0.80606254540E+03  0.81577212630E+03  0.12509000000E+03 0.  0.
<mgrwt>
<rscale>  2 0.45417021E+03</rscale>
<asrwt>0</asrwt>
<pdfrwt beam="1">  1       21 0.57663948E-02 0.45417021E+03</pdfrwt>
<pdfrwt beam="2">  1       21 0.19339939E+00 0.45417021E+03</pdfrwt>
<totfact> 0.27753500E+04</totfact>
</mgrwt>
</event>
<event>
 7    0  0.4750554E-002  0.4521725E+03  0.7546771E-02  0.1027076E+00
         21   -1    0    0  502  501  0.00000000000E+00  0.00000000000E+00  0.21686168874E+03  0.21686168874E+03  0.00000000000E+00 0. -1.
         21   -1    0    0  501  502 -0.00000000000E+00 -0.00000000000E+00 -0.23570315646E+03  0.23570315646E+03  0.00000000000E+00 0. -1.
      99926    2    1    2    0    0  0.14210854715E-13  0.00000000000E+00 -0.18841467720E+02  0.45256484519E+03  0.45217246511E+03 0.  0.
      99925    2    3    3    0    0  0.79823272551E+02  0.21193990602E+02 -0.85379125159E+02  0.28856573533E+03  0.26298222091E+03 0.  0.
         25    1    3    3    0    0 -0.79823272551E+02 -0.21193990602E+02  0.66537657439E+02  0.16399910986E+03  0.12509000000E+03 0.  0.
         25    1    4    4    0    0  0.57838065059E+01 -0.13618926850E+02 -0.44711239571E+02  0.13366200144E+03  0.12509000000E+03 0.  0.
         25    1    4    4    0    0  0.74039466045E+02  0.34812917453E+02 -0.40667885588E+02  0.15490373389E+03  0.12509000000E+03 0.  0.
<mgrwt>
<rscale>  2 0.45217247E+03</rscale>
<asrwt>0</asrwt>
<pdfrwt beam="1">  1       21 0.31891425E-01 0.45217247E+03</pdfrwt>
<pdfrwt beam="2">  1       21 0.34662229E-01 0.45217247E+03</pdfrwt>
<totfact> 0.70297189E+04</totfact>
</mgrwt>
</event>
<event>
 6    0  0.7062716E-002  0.4217875E+03  0.7546771E-02  0.1036486E+00
         21   -1    0    0  502  501  0.00000000000E+00  0.00000000000E+00  0.21643511694E+03  0.21643511694E+03  0.00000000000E+00 0. -1.
         21   -1    0    0  501  502 -0.00000000000E+00 -0.00000000000E+00 -0.20549426965E+03  0.20549426965E+03  0.00000000000E+00 0. -1.
      99926    2    1    2    0    0  0.00000000000E+00  0.00000000000E+00  0.10940847287E+02  0.42192938659E+03  0.42178751182E+03 0.  0.
         25    1    3    3    0    0 -0.17027538668E+02 -0.50631267224E+02 -0.32096105813E+02  0.13975382071E+03  0.12509000000E+03 0.  0.
         25    1    3    3    0    0 -0.34670421160E+02  0.34489037969E+02  0.55438562698E+02  0.14530132201E+03  0.12509000000E+03 0.  0.
         25    1    3    3    0    0  0.51697959828E+02  0.16142229255E+02 -0.12401609598E+02  0.13687424388E+03  0.12509000000E+03 0.  0.
<mgrwt>
<rscale>  2 0.42178751E+03</rscale>
<asrwt>0</asrwt>
<pdfrwt beam="1">  1       21 0.31828694E-01 0.42178751E+03</pdfrwt>
<pdfrwt beam="2">  1       21 0.30219745E-01 0.42178751E+03</pdfrwt>
<totfact> 0.93457257E+04</totfact>
</mgrwt>
</event>
<event>
 7    0  0.4750554E-002  0.4499760E+03  0.7546771E-02  0.1027729E+00
         21   -1    0    0  502  501  0.00000000000E+00  0.00000000000E+00  0.65182468139E+03  0.65182468139E+03  0.00000000000E+00 0.  1.
         21   -1    0    0  501  502 -0.00000000000E+00 -0.00000000000E+00 -0.77658309134E+02  0.77658309134E+02  0.00000000000E+00 0.  1.
      99926    2    1    2    0    0  0.00000000000E+00  0.00000000000E+00  0.57416637225E+03  0.72948299052E+03  0.44997601095E+03 0.  0.
      99925    2    3    3    0    0 -0.16657831535E+02 -0.10441177762E+03  0.32391219210E+03  0.43039443266E+03  0.26294668056E+03 0.  0.
         25    1    4    4    0    0 -0.34095796726E+02 -0.65923695619E+02  0.21318208481E+03  0.25807473023E+03  0.12509000000E+03 0.  0.
         25    1    4    4    0    0  0.17437965191E+02 -0.38488082003E+02  0.11073010729E+03  0.17231970243E+03  0.12509000000E+03 0.  0.
         25    1    3    3    0    0  0.16657831535E+02  0.10441177762E+03  0.25025418016E+03  0.29908855786E+03  0.12509000000E+03 0.  0.
<mgrwt>
<rscale>  2 0.44997601E+03</rscale>
<asrwt>0</asrwt>
<pdfrwt beam="1">  1       21 0.95856568E-01 0.44997601E+03</pdfrwt>
<pdfrwt beam="2">  1       21 0.11420340E-01 0.44997601E+03</pdfrwt>
<totfact> 0.53410304E+04</totfact>
</mgrwt>
</event>
<event>
 7    0  0.4750554E-002  0.4688706E+03  0.7546771E-02  0.1022239E+00
         21   -1    0    0  502  501  0.00000000000E+00  0.00000000000E+00  0.74506297188E+02  0.74506297188E+02  0.00000000000E+00 0.  1.
         21   -1    0    0  501  502 -0.00000000000E+00 -0.00000000000E+00 -0.73765465900E+03  0.73765465900E+03  0.00000000000E+00 0.  1.
      99926    2    1    2    0    0  0.00000000000E+00  0.00000000000E+00 -0.66314836181E+03  0.81216095619E+03  0.46887063139E+03 0.  0.
      99925    2    3    3    0    0 -0.47648871526E+02 -0.95102612185E+02 -0.29581597492E+03  0.40979854198E+03  0.26289319541E+03 0.  0.
         25    1    3    3    0    0  0.47648871526E+02  0.95102612185E+02 -0.36733238690E+03  0.40236241420E+03  0.12509000000E+03 0.  0.
         25    1    4    4    0    0 -0.41155391801E+02 -0.13193705794E+02 -0.16055508879E+03  0.20807038421E+03  0.12509000000E+03 0.  0.
         25    1    4    4    0    0 -0.64934797243E+01 -0.81908906391E+02 -0.13526088612E+03  0.20172815778E+03  0.12509000000E+03 0.  0.
<mgrwt>
<rscale>  2 0.46887063E+03</rscale>
<asrwt>0</asrwt>
<pdfrwt beam="1">  1       21 0.10956808E-01 0.46887063E+03</pdfrwt>
<pdfrwt beam="2">  1       21 0.10847863E+00 0.46887063E+03</pdfrwt>
<totfact> 0.42377881E+04</totfact>
</mgrwt>
</event>
<event>
 7    0  0.4750554E-002  0.4305385E+03  0.7546771E-02  0.1033690E+00
         21   -1    0    0  502  501  0.00000000000E+00  0.00000000000E+00  0.73492567856E+03  0.73492567856E+03  0.00000000000E+00 0.  1.
         21   -1    0    0  501  502 -0.00000000000E+00 -0.00000000000E+00 -0.63055147373E+02  0.63055147373E+02  0.00000000000E+00 0.  1.
      99926    2    1    2    0    0  0.17763568394E-14  0.00000000000E+00  0.67187053118E+03  0.79798082593E+03  0.43053848594E+03 0.  0.
      99925    2    3    3    0    0 -0.12109327664E+02 -0.82838770360E+02  0.48481092771E+03  0.55788146933E+03  0.26302319384E+03 0.  0.
         25    1    3    3    0    0  0.12109327664E+02  0.82838770360E+02  0.18705960347E+03  0.24009935660E+03  0.12509000000E+03 0.  0.
         25    1    4    4    0    0 -0.16599236404E+02 -0.54059195499E+02  0.32536766409E+03  0.35314240216E+03  0.12509000000E+03 0.  0.
         25    1    4    4    0    0  0.44899087402E+01 -0.28779574861E+02  0.15944326363E+03  0.20473906717E+03  0.12509000000E+03 0.  0.
<mgrwt>
<rscale>  2 0.43053849E+03</rscale>
<asrwt>0</asrwt>
<pdfrwt beam="1">  1       21 0.10807730E+00 0.43053849E+03</pdfrwt>
<pdfrwt beam="2">  1       21 0.92728162E-02 0.43053849E+03</pdfrwt>
<totfact> 0.58269345E+04</totfact>
</mgrwt>
</event>
<event>
 7    0  0.4750554E-002  0.4518643E+03  0.7546771E-02  0.1027168E+00
         21   -1    0    0  502  501  0.00000000000E+00  0.00000000000E+00  0.83740073805E+02  0.83740073805E+02  0.00000000000E+00 0.  1.
         21   -1    0    0  501  502 -0.00000000000E+00 -0.00000000000E+00 -0.60956877249E+03  0.60956877249E+03  0.00000000000E+00 0.  1.
      99926    2    1    2    0    0 -0.14210854715E-13  0.00000000000E+00 -0.52582869869E+03  0.69330884630E+03  0.45186428935E+03 0.  0.
      99925    2    3    3    0    0 -0.99437387892E+02  0.29399262749E+02 -0.38989307233E+03  0.48146429628E+03  0.26275302087E+03 0.  0.
         25    1    3    3    0    0  0.99437387892E+02 -0.29399262749E+02 -0.13593562636E+03  0.21184455002E+03  0.12509000000E+03 0.  0.
         25    1    4    4    0    0 -0.87894502701E+02  0.28038299898E+02 -0.19150047040E+03  0.24664048356E+03  0.12509000000E+03 0.  0.
         25    1    4    4    0    0 -0.11542885191E+02  0.13609628510E+01 -0.19839260193E+03  0.23482381272E+03  0.12509000000E+03 0.  0.
<mgrwt>
<rscale>  2 0.45186429E+03</rscale>
<asrwt>0</asrwt>
<pdfrwt beam="1">  1       21 0.12314717E-01 0.45186429E+03</pdfrwt>
<pdfrwt beam="2">  1       21 0.89642465E-01 0.45186429E+03</pdfrwt>
<totfact> 0.54603070E+04</totfact>
</mgrwt>
</event>
<event>
 7    0  0.4750554E-002  0.4580588E+03  0.7546771E-02  0.1025346E+00
         21   -1    0    0  502  501  0.00000000000E+00  0.00000000000E+00  0.88774075464E+02  0.88774075464E+02  0.00000000000E+00 0.  1.
         21   -1    0    0  501  502 -0.00000000000E+00 -0.00000000000E+00 -0.59087591995E+03  0.59087591995E+03  0.00000000000E+00 0.  1.
      99926    2    1    2    0    0  0.00000000000E+00 -0.71054273576E-14 -0.50210184448E+03  0.67964999541E+03  0.45805878884E+03 0.  0.
      99925    2    3    3    0    0 -0.98405961823E+02  0.60413561876E+02 -0.33067257072E+03  0.43805314985E+03  0.26308303117E+03 0.  0.
         25    1    4    4    0    0 -0.58727337940E+02  0.43341398789E+01 -0.11708140339E+03  0.18117187450E+03  0.12509000000E+03 0.  0.
         25    1    3    3    0    0  0.98405961823E+02 -0.60413561876E+02 -0.17142927376E+03  0.24159684556E+03  0.12509000000E+03 0.  0.
         25    1    4    4    0    0 -0.39678623883E+02  0.56079421997E+02 -0.21359116734E+03  0.25688127536E+03  0.12509000000E+03 0.  0.
<mgrwt>
<rscale>  2 0.45805879E+03</rscale>
<asrwt>0</asrwt>
<pdfrwt beam="1">  1       21 0.13055011E-01 0.45805879E+03</pdfrwt>
<pdfrwt beam="2">  1       21 0.86893521E-01 0.45805879E+03</pdfrwt>
<totfact> 0.52739716E+04</totfact>
</mgrwt>
</event>
<event>
 7    0  0.4750554E-002  0.4502918E+03  0.7546771E-02  0.1027635E+00
         21   -1    0    0  502  501  0.00000000000E+00  0.00000000000E+00  0.63929130218E+03  0.63929130218E+03  0.00000000000E+00 0. -1.
         21   -1    0    0  501  502 -0.00000000000E+00 -0.00000000000E+00 -0.79291976217E+02  0.79291976217E+02  0.00000000000E+00 0. -1.
      99926    2    1    2    0    0  0.00000000000E+00  0.00000000000E+00  0.55999932596E+03  0.71858327839E+03  0.45029177531E+03 0.  0.
      99925    2    3    3    0    0 -0.81927827046E+02  0.70851563149E+02  0.33973406472E+03  0.44309025442E+03  0.26301639871E+03 0.  0.
         25    1    4    4    0    0 -0.30023051998E+02  0.59648129325E+02  0.12532783569E+03  0.18924549528E+03  0.12509000000E+03 0.  0.
         25    1    3    3    0    0  0.81927827046E+02 -0.70851563149E+02  0.22026526124E+03  0.27549302397E+03  0.12509000000E+03 0.  0.
         25    1    4    4    0    0 -0.51904775048E+02  0.11203433824E+02  0.21440622903E+03  0.25384475915E+03  0.12509000000E+03 0.  0.
<mgrwt>
<rscale>  2 0.45029178E+03</rscale>
<asrwt>0</asrwt>
<pdfrwt beam="1">  1       21 0.94013424E-01 0.45029178E+03</pdfrwt>
<pdfrwt beam="2">  1       21 0.11660585E-01 0.45029178E+03</pdfrwt>
<totfact> 0.53873220E+04</totfact>
</mgrwt>
</event>
<event>
 7    0  0.4750554E-002  0.4813389E+03  0.7546771E-02  0.1018768E+00
         21   -1    0    0  502  501  0.00000000000E+00  0.00000000000E+00  0.14049960073E+03  0.14049960073E+03  0.00000000000E+00 0.  1.
         21   -1    0    0  501  502 -0.00000000000E+00 -0.00000000000E+00 -0.41225581908E+03  0.41225581908E+03  0.00000000000E+00 0.  1.
      99926    2    1    2    0    0 -0.71054273576E-14  0.00000000000E+00 -0.27175621835E+03  0.55275541981E+03  0.48133887431E+03 0.  0.
      99925    2    3    3    0    0  0.59770804388E+02 -0.86165952779E+02 -0.26741309705E+03  0.38946582652E+03  0.26301472407E+03 0.  0.
         25    1    3    3    0    0 -0.59770804388E+02  0.86165952779E+02 -0.43431213027E+01  0.16328959329E+03  0.12509000000E+03 0.  0.
         25    1    4    4    0    0 -0.32984134769E+01 -0.37146753565E+02 -0.92033892518E+02  0.15971382628E+03  0.12509000000E+03 0.  0.
         25    1    4    4    0    0  0.63069217865E+02 -0.49019199214E+02 -0.17537920453E+03  0.22975200024E+03  0.12509000000E+03 0.  0.
<mgrwt>
<rscale>  2 0.48133887E+03</rscale>
<asrwt>0</asrwt>
<pdfrwt beam="1">  1       21 0.20661706E-01 0.48133887E+03</pdfrwt>
<pdfrwt beam="2">  1       21 0.60625856E-01 0.48133887E+03</pdfrwt>
<totfact> 0.50335983E+04</totfact>
</mgrwt>
</event>
<event>
 7    0  0.4750554E-002  0.4520505E+03  0.7546771E-02  0.1027112E+00
         21   -1    0    0  502  501  0.00000000000E+00  0.00000000000E+00  0.45559079358E+02  0.45559079358E+02  0.00000000000E+00 0.  1.
         21   -1    0    0  501  502 -0.00000000000E+00 -0.00000000000E+00 -0.11213440914E+04  0.11213440914E+04  0.00000000000E+00 0.  1.
      99926    2    1    2    0    0 -0.71054273576E-14 -0.17763568394E-14 -0.10757850121E+04  0.11669031708E+04  0.45205045935E+03 0.  0.
      99925    2    3    3    0    0  0.61390899221E+02  0.14123685020E+02 -0.91329747935E+03  0.95238504247E+03  0.26259600597E+03 0.  0.
         25    1    3    3    0    0 -0.61390899221E+02 -0.14123685020E+02 -0.16248753272E+03  0.21451812831E+03  0.12509000000E+03 0.  0.
         25    1    4    4    0    0  0.35831794661E+02 -0.13713236172E+01 -0.32275797622E+03  0.34800289848E+03  0.12509000000E+03 0.  0.
         25    1    4    4    0    0  0.25559104560E+02  0.15495008638E+02 -0.59053950313E+03  0.60438214399E+03  0.12509000000E+03 0.  0.
<mgrwt>
<rscale>  2 0.45205046E+03</rscale>
<asrwt>0</asrwt>
<pdfrwt beam="1">  1       21 0.66998645E-02 0.45205046E+03</pdfrwt>
<pdfrwt beam="2">  1       21 0.16490355E+00 0.45205046E+03</pdfrwt>
<totfact> 0.33997696E+04</totfact>
</mgrwt>
</event>
<event>
 7    0  0.4750554E-002  0.4527037E+03  0.7546771E-02  0.1026919E+00
         21   -1    0    0  502  501  0.00000000000E+00  0.00000000000E+00  0.17070210596E+03  0.17070210596E+03  0.00000000000E+00 0.  1.
         21   -1    0    0  501  502 -0.00000000000E+00 -0.00000000000E+00 -0.30014370484E+03  0.30014370484E+03  0.00000000000E+00 0.  1.
      99926    2    1    2    0    0 -0.14210854715E-13 -0.22204460493E-14 -0.12944159888E+03  0.47084581080E+03  0.45270371108E+03 0.  0.
      99925    2    3    3    0    0  0.93685370771E+02 -0.23465800764E+01 -0.20090918306E+02  0.28009064160E+03  0.26318181430E+03 0.  0.
         25    1    4    4    0    0  0.82866396904E+02  0.20202166391E+02 -0.18381916097E+02  0.15251350826E+03  0.12509000000E+03 0.  0.
         25    1    3    3    0    0 -0.93685370771E+02  0.23465800764E+01 -0.10935068057E+03  0.19075516920E+03  0.12509000000E+03 0.  0.
         25    1    4    4    0    0  0.10818973867E+02 -0.22548746467E+02 -0.17090022094E+01  0.12757713334E+03  0.12509000000E+03 0.  0.
<mgrwt>
<rscale>  2 0.45270371E+03</rscale>
<asrwt>0</asrwt>
<pdfrwt beam="1">  1       21 0.25103251E-01 0.45270371E+03</pdfrwt>
<pdfrwt beam="2">  1       21 0.44138779E-01 0.45270371E+03</pdfrwt>
<totfact> 0.68614465E+04</totfact>
</mgrwt>
</event>
<event>
 7    0  0.4750554E-002  0.4529453E+03  0.7546771E-02  0.1026847E+00
         21   -1    0    0  502  501  0.00000000000E+00  0.00000000000E+00  0.49735780716E+03  0.49735780716E+03  0.00000000000E+00 0.  1.
         21   -1    0    0  501  502 -0.00000000000E+00 -0.00000000000E+00 -0.10312467816E+03  0.10312467816E+03  0.00000000000E+00 0.  1.
      99926    2    1    2    0    0  0.00000000000E+00  0.00000000000E+00  0.39423312900E+03  0.60048248531E+03  0.45294531145E+03 0.  0.
      99925    2    3    3    0    0 -0.62761069124E+02 -0.34357845281E+02  0.36144238626E+03  0.45269157139E+03  0.26300122983E+03 0.  0.
         25    1    4    4    0    0 -0.54962828773E+01 -0.46532859789E+02  0.19579379163E+03  0.23701947832E+03  0.12509000000E+03 0.  0.
         25    1    4    4    0    0 -0.57264786246E+02  0.12175014508E+02  0.16564859463E+03  0.21567209306E+03  0.12509000000E+03 0.  0.
         25    1    3    3    0    0  0.62761069124E+02  0.34357845281E+02  0.32790742741E+02  0.14779091393E+03  0.12509000000E+03 0.  0.
<mgrwt>
<rscale>  2 0.45294531E+03</rscale>
<asrwt>0</asrwt>
<pdfrwt beam="1">  1       21 0.73140853E-01 0.45294531E+03</pdfrwt>
<pdfrwt beam="2">  1       21 0.15165394E-01 0.45294531E+03</pdfrwt>
<totfact> 0.59610431E+04</totfact>
</mgrwt>
</event>
<event>
 7    0  0.4750554E-002  0.4536927E+03  0.7546771E-02  0.1026627E+00
         21   -1    0    0  502  501  0.00000000000E+00  0.00000000000E+00  0.44590976926E+03  0.44590976926E+03  0.00000000000E+00 0.  1.
         21   -1    0    0  501  502 -0.00000000000E+00 -0.00000000000E+00 -0.11540288191E+03  0.11540288191E+03  0.00000000000E+00 0.  1.
      99926    2    1    2    0    0  0.00000000000E+00  0.00000000000E+00  0.33050688735E+03  0.56131265118E+03  0.45369272617E+03 0.  0.
      99925    2    3    3    0    0 -0.38966864223E+02 -0.10282958029E+03  0.23425240805E+03  0.36894640680E+03  0.26297323309E+03 0.  0.
         25    1    4    4    0    0 -0.53609210100E+02 -0.76708561701E+02  0.13519075783E+03  0.20659670847E+03  0.12509000000E+03 0.  0.
         25    1    3    3    0    0  0.38966864223E+02  0.10282958029E+03  0.96254479305E+02  0.19236624438E+03  0.12509000000E+03 0.  0.
         25    1    4    4    0    0  0.14642345877E+02 -0.26121018590E+02  0.99061650214E+02  0.16234969833E+03  0.12509000000E+03 0.  0.
<mgrwt>
<rscale>  2 0.45369273E+03</rscale>
<asrwt>0</asrwt>
<pdfrwt beam="1">  1       21 0.65574965E-01 0.45369273E+03</pdfrwt>
<pdfrwt beam="2">  1       21 0.16971012E-01 0.45369273E+03</pdfrwt>
<totfact> 0.61761234E+04</totfact>
</mgrwt>
</event>
<event>
 7    0  0.4750554E-002  0.4575017E+03  0.7546771E-02  0.1025508E+00
         21   -1    0    0  502  501  0.00000000000E+00  0.00000000000E+00  0.56340287037E+03  0.56340287037E+03  0.00000000000E+00 0.  1.
         21   -1    0    0  501  502 -0.00000000000E+00 -0.00000000000E+00 -0.92876604607E+02  0.92876604607E+02  0.00000000000E+00 0.  1.
      99926    2    1    2    0    0 -0.71054273576E-14  0.00000000000E+00  0.47052626577E+03  0.65627947498E+03  0.45750167486E+03 0.  0.
      99925    2    3    3    0    0  0.46807359611E+02 -0.10147617755E+03  0.25298093774E+03  0.38157632361E+03  0.26289311965E+03 0.  0.
         25    1    4    4    0    0 -0.12724898329E+02 -0.68753606644E+02  0.12552261567E+03  0.19050568655E+03  0.12509000000E+03 0.  0.
         25    1    4    4    0    0  0.59532257941E+02 -0.32722570907E+02  0.12745832207E+03  0.19107063706E+03  0.12509000000E+03 0.  0.
         25    1    3    3    0    0 -0.46807359611E+02  0.10147617755E+03  0.21754532803E+03  0.27470315137E+03  0.12509000000E+03 0.  0.
<mgrwt>
<rscale>  2 0.45750167E+03</rscale>
<asrwt>0</asrwt>
<pdfrwt beam="1">  1       21 0.82853361E-01 0.45750167E+03</pdfrwt>
<pdfrwt beam="2">  1       21 0.13658325E-01 0.45750167E+03</pdfrwt>
<totfact> 0.54262521E+04</totfact>
</mgrwt>
</event>
<event>
 7    0  0.4750554E-002  0.4519173E+03  0.7546771E-02  0.1027152E+00
         21   -1    0    0  502  501  0.00000000000E+00  0.00000000000E+00  0.89636097321E+03  0.89636097321E+03  0.00000000000E+00 0. -1.
         21   -1    0    0  501  502 -0.00000000000E+00 -0.00000000000E+00 -0.56960647871E+02  0.56960647871E+02  0.00000000000E+00 0. -1.
      99926    2    1    2    0    0  0.00000000000E+00  0.35527136788E-14  0.83940032533E+03  0.95332162108E+03  0.45191725685E+03 0.  0.
      99925    2    3    3    0    0 -0.77481281826E+02  0.21955037822E+02  0.37135761805E+03  0.46220365494E+03  0.26313564076E+03 0.  0.
         25    1    3    3    0    0  0.77481281826E+02 -0.21955037822E+02  0.46804270728E+03  0.49111796613E+03  0.12509000000E+03 0.  0.
         25    1    4    4    0    0 -0.11183142938E+02 -0.20776121846E+02  0.17027649689E+03  0.21259892619E+03  0.12509000000E+03 0.  0.
         25    1    4    4    0    0 -0.66298138887E+02  0.42731159668E+02  0.20108112116E+03  0.24960472875E+03  0.12509000000E+03 0.  0.
<mgrwt>
<rscale>  2 0.45191726E+03</rscale>
<asrwt>0</asrwt>
<pdfrwt beam="1">  1       21 0.13181778E+00 0.45191726E+03</pdfrwt>
<pdfrwt beam="2">  1       21 0.83765664E-02 0.45191726E+03</pdfrwt>
<totfact> 0.42010172E+04</totfact>
</mgrwt>
</event>
<event>
 7    0  0.4750554E-002  0.4617593E+03  0.7546771E-02  0.1024272E+00
         21   -1    0    0  502  501  0.00000000000E+00  0.00000000000E+00  0.87842838971E+02  0.87842838971E+02  0.00000000000E+00 0. -1.
         21   -1    0    0  501  502 -0.00000000000E+00 -0.00000000000E+00 -0.60682706415E+03  0.60682706415E+03  0.00000000000E+00 0. -1.
      99926    2    1    2    0    0  0.00000000000E+00  0.00000000000E+00 -0.51898422517E+03  0.69466990312E+03  0.46175929695E+03 0.  0.
      99925    2    3    3    0    0  0.71840416547E+02 -0.60372047898E+02 -0.21426879690E+03  0.35217197620E+03  0.26326441817E+03 0.  0.
         25    1    4    4    0    0  0.77557872118E+01 -0.27096650672E+02 -0.62455101029E+02  0.14262723603E+03  0.12509000000E+03 0.  0.
         25    1    3    3    0    0 -0.71840416547E+02  0.60372047898E+02 -0.30471542827E+03  0.34249792692E+03  0.12509000000E+03 0.  0.
         25    1    4    4    0    0  0.64084629335E+02 -0.33275397226E+02 -0.15181369588E+03  0.20954474017E+03  0.12509000000E+03 0.  0.
<mgrwt>
<rscale>  2 0.46175930E+03</rscale>
<asrwt>0</asrwt>
<pdfrwt beam="1">  1       21 0.12918065E-01 0.46175930E+03</pdfrwt>
<pdfrwt beam="2">  1       21 0.89239272E-01 0.46175930E+03</pdfrwt>
<totfact> 0.50454885E+04</totfact>
</mgrwt>
</event>
<event>
 7    0  0.4750554E-002  0.4450839E+03  0.7546771E-02  0.1029198E+00
         21   -1    0    0  502  501  0.00000000000E+00  0.00000000000E+00  0.14855109262E+03  0.14855109262E+03  0.00000000000E+00 0. -1.
         21   -1    0    0  501  502 -0.00000000000E+00 -0.00000000000E+00 -0.33338636348E+03  0.33338636348E+03  0.00000000000E+00 0. -1.
      99926    2    1    2    0    0  0.00000000000E+00  0.00000000000E+00 -0.18483527086E+03  0.48193745609E+03  0.44508385079E+03 0.  0.
      99925    2    3    3    0    0 -0.53474554078E+02  0.88330618963E+02 -0.12294568150E+03  0.30832969258E+03  0.26322942949E+03 0.  0.
         25    1    4    4    0    0 -0.51950953880E+02  0.25301123625E+02 -0.32452565493E+02  0.14156173767E+03  0.12509000000E+03 0.  0.
         25    1    3    3    0    0  0.53474554078E+02 -0.88330618963E+02 -0.61889589357E+02  0.17360776351E+03  0.12509000000E+03 0.  0.
         25    1    4    4    0    0 -0.15236001979E+01  0.63029495337E+02 -0.90493116011E+02  0.16676795491E+03  0.12509000000E+03 0.  0.
<mgrwt>
<rscale>  2 0.44508385E+03</rscale>
<asrwt>0</asrwt>
<pdfrwt beam="1">  1       21 0.21845749E-01 0.44508385E+03</pdfrwt>
<pdfrwt beam="2">  1       21 0.49027406E-01 0.44508385E+03</pdfrwt>
<totfact> 0.72067577E+04</totfact>
</mgrwt>
</event>
<event>
 7    0  0.4750554E-002  0.4790056E+03  0.7546771E-02  0.1019409E+00
         21   -1    0    0  502  501  0.00000000000E+00  0.00000000000E+00  0.87300529052E+03  0.87300529052E+03  0.00000000000E+00 0.  1.
         21   -1    0    0  501  502 -0.00000000000E+00 -0.00000000000E+00 -0.65705883842E+02  0.65705883842E+02  0.00000000000E+00 0.  1.
      99926    2    1    2    0    0  0.00000000000E+00  0.35527136788E-14  0.80729940667E+03  0.93871117436E+03  0.47900557079E+03 0.  0.
      99925    2    3    3    0    0  0.63735744216E+02  0.24970667754E+02  0.72451966123E+03  0.77383008480E+03  0.26305604211E+03 0.  0.
         25    1    4    4    0    0  0.24600729587E+02 -0.27870305705E+02  0.34804723321E+03  0.37170732369E+03  0.12509000000E+03 0.  0.
         25    1    4    4    0    0  0.39135014629E+02  0.52840973459E+02  0.37647242801E+03  0.40212276111E+03  0.12509000000E+03 0.  0.
         25    1    3    3    0    0 -0.63735744216E+02 -0.24970667754E+02  0.82779745447E+02  0.16488108956E+03  0.12509000000E+03 0.  0.
<mgrwt>
<rscale>  2 0.47900557E+03</rscale>
<asrwt>0</asrwt>
<pdfrwt beam="1">  1       21 0.12838312E+00 0.47900557E+03</pdfrwt>
<pdfrwt beam="2">  1       21 0.96626305E-02 0.47900557E+03</pdfrwt>
<totfact> 0.34624729E+04</totfact>
</mgrwt>
</event>
<event>
 7    0  0.4750554E-002  0.4512734E+03  0.7546771E-02  0.1027343E+00
         21   -1    0    0  502  501  0.00000000000E+00  0.00000000000E+00  0.47972013084E+03  0.47972013084E+03  0.00000000000E+00 0.  1.
         21   -1    0    0  501  502 -0.00000000000E+00 -0.00000000000E+00 -0.10612839442E+03  0.10612839442E+03  0.00000000000E+00 0.  1.
      99926    2    1    2    0    0  0.71054273576E-14  0.00000000000E+00  0.37359173642E+03  0.58584852526E+03  0.45127343045E+03 0.  0.
      99925    2    3    3    0    0  0.46102970561E+02  0.75332838909E+02  0.15126954498E+03  0.31589448210E+03  0.26288082485E+03 0.  0.
         25    1    4    4    0    0  0.24577857534E+02 -0.35277248969E+01  0.77674805648E+02  0.14932313771E+03  0.12509000000E+03 0.  0.
         25    1    3    3    0    0 -0.46102970561E+02 -0.75332838909E+02  0.22232219144E+03  0.26995404316E+03  0.12509000000E+03 0.  0.
         25    1    4    4    0    0  0.21525113027E+02  0.78860563806E+02  0.73594739332E+02  0.16657134439E+03  0.12509000000E+03 0.  0.
<mgrwt>
<rscale>  2 0.45127343E+03</rscale>
<asrwt>0</asrwt>
<pdfrwt beam="1">  1       21 0.70547077E-01 0.45127343E+03</pdfrwt>
<pdfrwt beam="2">  1       21 0.15607117E-01 0.45127343E+03</pdfrwt>
<totfact> 0.61345000E+04</totfact>
</mgrwt>
</event>
<event>
 7    0  0.4750554E-002  0.4523042E+03  0.7546771E-02  0.1027037E+00
         21   -1    0    0  502  501  0.00000000000E+00  0.00000000000E+00  0.11284366536E+04  0.11284366536E+04  0.00000000000E+00 0. -1.
         21   -1    0    0  501  502 -0.00000000000E+00 -0.00000000000E+00 -0.45323562667E+02  0.45323562667E+02  0.00000000000E+00 0. -1.
      99926    2    1    2    0    0  0.00000000000E+00 -0.17763568394E-14  0.10831130909E+04  0.11737602163E+04  0.45230418696E+03 0.  0.
      99925    2    3    3    0    0  0.16638349219E+02 -0.67701136569E+01  0.40008223146E+03  0.47913705786E+03  0.26302824788E+03 0.  0.
         25    1    3    3    0    0 -0.16638349219E+02  0.67701136569E+01  0.68303085948E+03  0.69462315842E+03  0.12509000000E+03 0.  0.
         25    1    4    4    0    0  0.22875188662E+02  0.15483778529E+02  0.26044553774E+03  0.29024542698E+03  0.12509000000E+03 0.  0.
         25    1    4    4    0    0 -0.62368394428E+01 -0.22253892186E+02  0.13963669372E+03  0.18889163088E+03  0.12509000000E+03 0.  0.
<mgrwt>
<rscale>  2 0.45230419E+03</rscale>
<asrwt>0</asrwt>
<pdfrwt beam="1">  1       21 0.16594655E+00 0.45230419E+03</pdfrwt>
<pdfrwt beam="2">  1       21 0.66652305E-02 0.45230419E+03</pdfrwt>
<totfact> 0.33701259E+04</totfact>
</mgrwt>
</event>
<event>
 7    0  0.4750554E-002  0.4496921E+03  0.7546771E-02  0.1027814E+00
         21   -1    0    0  502  501  0.00000000000E+00  0.00000000000E+00  0.37127920805E+03  0.37127920805E+03  0.00000000000E+00 0. -1.
         21   -1    0    0  501  502 -0.00000000000E+00 -0.00000000000E+00 -0.13616639554E+03  0.13616639554E+03  0.00000000000E+00 0. -1.
      99926    2    1    2    0    0  0.00000000000E+00  0.00000000000E+00  0.23511281252E+03  0.50744560359E+03  0.44969212356E+03 0.  0.
      99925    2    3    3    0    0 -0.26140907979E+02  0.83100832474E+02  0.76374196039E+02  0.28736709058E+03  0.26297857612E+03 0.  0.
         25    1    4    4    0    0 -0.75781961971E+01  0.78101654393E+02  0.20716547079E+02  0.14911063309E+03  0.12509000000E+03 0.  0.
         25    1    3    3    0    0  0.26140907979E+02 -0.83100832474E+02  0.15873861648E+03  0.22007851301E+03  0.12509000000E+03 0.  0.
         25    1    4    4    0    0 -0.18562711782E+02  0.49991780810E+01  0.55657648961E+02  0.13825645749E+03  0.12509000000E+03 0.  0.
<mgrwt>
<rscale>  2 0.44969212E+03</rscale>
<asrwt>0</asrwt>
<pdfrwt beam="1">  1       21 0.54599883E-01 0.44969212E+03</pdfrwt>
<pdfrwt beam="2">  1       21 0.20024470E-01 0.44969212E+03</pdfrwt>
<totfact> 0.67551713E+04</totfact>
</mgrwt>
</event>
<event>
 7    0  0.4750554E-002  0.4596226E+03  0.7546771E-02  0.1024891E+00
         21   -1    0    0  502  501  0.00000000000E+00  0.00000000000E+00  0.27502877221E+03  0.27502877221E+03  0.00000000000E+00 0. -1.
         21   -1    0    0  501  502 -0.00000000000E+00 -0.00000000000E+00 -0.19202806160E+03  0.19202806160E+03  0.00000000000E+00 0. -1.
      99926    2    1    2    0    0  0.14210854715E-13  0.17763568394E-14  0.83000710608E+02  0.46705683382E+03  0.45962263658E+03 0.  0.
      99925    2    3    3    0    0 -0.11626742008E+03  0.15284726081E+02  0.42605975177E+02  0.29090071393E+03  0.26278550268E+03 0.  0.
         25    1    4    4    0    0 -0.76873158905E+02 -0.25681927743E+02  0.82817054465E+01  0.14928207768E+03  0.12509000000E+03 0.  0.
         25    1    4    4    0    0 -0.39394261175E+02  0.40966653825E+02  0.34324269730E+02  0.14161863624E+03  0.12509000000E+03 0.  0.
         25    1    3    3    0    0  0.11626742008E+03 -0.15284726081E+02  0.40394735431E+02  0.17615611989E+03  0.12509000000E+03 0.  0.
<mgrwt>
<rscale>  2 0.45962264E+03</rscale>
<asrwt>0</asrwt>
<pdfrwt beam="1">  1       21 0.40445408E-01 0.45962264E+03</pdfrwt>
<pdfrwt beam="2">  1       21 0.28239421E-01 0.45962264E+03</pdfrwt>
<totfact> 0.65227665E+04</totfact>
</mgrwt>
</event>
<event>
 7    0  0.4750554E-002  0.4370709E+03  0.7546771E-02  0.1031649E+00
         21   -1    0    0  502  501  0.00000000000E+00  0.00000000000E+00  0.63697577276E+03  0.63697577276E+03  0.00000000000E+00 0.  1.
         21   -1    0    0  501  502 -0.00000000000E+00 -0.00000000000E+00 -0.74975764099E+02  0.74975764099E+02  0.00000000000E+00 0.  1.
      99926    2    1    2    0    0  0.00000000000E+00 -0.14210854715E-13  0.56200000866E+03  0.71195153686E+03  0.43707091084E+03 0.  0.
      99925    2    3    3    0    0 -0.66493069410E+02  0.65731279341E+02  0.33089530672E+03  0.43302713721E+03  0.26320879199E+03 0.  0.
         25    1    4    4    0    0 -0.60854399251E+01  0.34856078399E+02  0.11014723626E+03  0.17038750111E+03  0.12509000000E+03 0.  0.
         25    1    3    3    0    0  0.66493069410E+02 -0.65731279341E+02  0.23110470194E+03  0.27892439965E+03  0.12509000000E+03 0.  0.
         25    1    4    4    0    0 -0.60407629485E+02  0.30875200942E+02  0.22074807046E+03  0.26263963609E+03  0.12509000000E+03 0.  0.
<mgrwt>
<rscale>  2 0.43707091E+03</rscale>
<asrwt>0</asrwt>
<pdfrwt beam="1">  1       21 0.93672905E-01 0.43707091E+03</pdfrwt>
<pdfrwt beam="2">  1       21 0.11025848E-01 0.43707091E+03</pdfrwt>
<totfact> 0.60328464E+04</totfact>
</mgrwt>
</event>
<event>
 7    0  0.4750554E-002  0.4540018E+03  0.7546771E-02  0.1026535E+00
         21   -1    0    0  502  501  0.00000000000E+00  0.00000000000E+00  0.11116882788E+04  0.11116882788E+04  0.00000000000E+00 0.  1.
         21   -1    0    0  501  502 -0.00000000000E+00 -0.00000000000E+00 -0.46352388136E+02  0.46352388136E+02  0.00000000000E+00 0.  1.
      99926    2    1    2    0    0  0.00000000000E+00 -0.14210854715E-13  0.10653358907E+04  0.11580406670E+04  0.45400179113E+03 0.  0.
      99925    2    3    3    0    0 -0.83727724660E+01 -0.88220955862E+02  0.49545349973E+03  0.56789959231E+03  0.26302611310E+03 0.  0.
         25    1    4    4    0    0 -0.78583196926E-01 -0.16878418110E+01  0.21504860311E+03  0.24878959943E+03  0.12509000000E+03 0.  0.
         25    1    3    3    0    0  0.83727724660E+01  0.88220955862E+02  0.56988239096E+03  0.59014107466E+03  0.12509000000E+03 0.  0.
         25    1    4    4    0    0 -0.82941892691E+01 -0.86533114051E+02  0.28040489663E+03  0.31910999288E+03  0.12509000000E+03 0.  0.
<mgrwt>
<rscale>  2 0.45400179E+03</rscale>
<asrwt>0</asrwt>
<pdfrwt beam="1">  1       21 0.16348355E+00 0.45400179E+03</pdfrwt>
<pdfrwt beam="2">  1       21 0.68165284E-02 0.45400179E+03</pdfrwt>
<totfact> 0.33777030E+04</totfact>
</mgrwt>
</event>
<event>
 7    0  0.4750554E-002  0.4534774E+03  0.7546771E-02  0.1026690E+00
         21   -1    0    0  502  501  0.00000000000E+00  0.00000000000E+00  0.11162226565E+03  0.11162226565E+03  0.00000000000E+00 0. -1.
         21   -1    0    0  501  502 -0.00000000000E+00 -0.00000000000E+00 -0.46057502163E+03  0.46057502163E+03  0.00000000000E+00 0. -1.
      99926    2    1    2    0    0  0.00000000000E+00  0.00000000000E+00 -0.34895275598E+03  0.57219728728E+03  0.45347735298E+03 0.  0.
      99925    2    3    3    0    0  0.73303942233E+02  0.84202032979E+02 -0.22467351800E+03  0.36349585605E+03  0.26303535384E+03 0.  0.
         25    1    4    4    0    0  0.78324341898E+02  0.51065660466E+02 -0.12687886262E+03  0.20121669437E+03  0.12509000000E+03 0.  0.
         25    1    4    4    0    0 -0.50203996654E+01  0.33136372513E+02 -0.97794655379E+02  0.16227916168E+03  0.12509000000E+03 0.  0.
         25    1    3    3    0    0 -0.73303942233E+02 -0.84202032979E+02 -0.12427923798E+03  0.20870143123E+03  0.12509000000E+03 0.  0.
<mgrwt>
<rscale>  2 0.45347735E+03</rscale>
<asrwt>0</asrwt>
<pdfrwt beam="1">  1       21 0.16415039E-01 0.45347735E+03</pdfrwt>
<pdfrwt beam="2">  1       21 0.67731620E-01 0.45347735E+03</pdfrwt>
<totfact> 0.61156093E+04</totfact>
</mgrwt>
</event>
<event>
 7    0  0.4750554E-002  0.4485742E+03  0.7546771E-02  0.1028148E+00
         21   -1    0    0  502  501  0.00000000000E+00  0.00000000000E+00  0.26142450405E+03  0.26142450405E+03  0.00000000000E+00 0.  1.
         21   -1    0    0  501  502 -0.00000000000E+00 -0.00000000000E+00 -0.19242536219E+03  0.19242536219E+03  0.00000000000E+00 0.  1.
      99926    2    1    2    0    0  0.14210854715E-13  0.00000000000E+00  0.68999141860E+02  0.45384986624E+03  0.44857420736E+03 0.  0.
      99925    2    3    3    0    0 -0.86649262192E+02  0.47562715324E+02  0.84894630389E+02  0.29362976394E+03  0.26313691013E+03 0.  0.
         25    1    4    4    0    0 -0.78589761249E+01  0.29597740548E+02  0.62091269537E+02  0.14297070890E+03  0.12509000000E+03 0.  0.
         25    1    4    4    0    0 -0.78790286067E+02  0.17964974777E+02  0.22803360852E+02  0.15065905503E+03  0.12509000000E+03 0.  0.
         25    1    3    3    0    0  0.86649262192E+02 -0.47562715324E+02 -0.15895488528E+02  0.16022010231E+03  0.12509000000E+03 0.  0.
<mgrwt>
<rscale>  2 0.44857421E+03</rscale>
<asrwt>0</asrwt>
<pdfrwt beam="1">  1       21 0.38444780E-01 0.44857421E+03</pdfrwt>
<pdfrwt beam="2">  1       21 0.28297847E-01 0.44857421E+03</pdfrwt>
<totfact> 0.72263733E+04</totfact>
</mgrwt>
</event>
<event>
 7    0  0.4750554E-002  0.4350845E+03  0.7546771E-02  0.1032266E+00
         21   -1    0    0  502  501  0.00000000000E+00  0.00000000000E+00  0.82069975573E+03  0.82069975573E+03  0.00000000000E+00 0.  1.
         21   -1    0    0  501  502 -0.00000000000E+00 -0.00000000000E+00 -0.57663751839E+02  0.57663751839E+02  0.00000000000E+00 0.  1.
      99926    2    1    2    0    0  0.00000000000E+00  0.00000000000E+00  0.76303600390E+03  0.87836350757E+03  0.43508448398E+03 0.  0.
      99925    2    3    3    0    0  0.54631000490E+02  0.41916822460E+02  0.61682234583E+03  0.67399250149E+03  0.26278226641E+03 0.  0.
         25    1    4    4    0    0 -0.66926139665E-01  0.24553825104E+02  0.22365391659E+03  0.25743247137E+03  0.12509000000E+03 0.  0.
         25    1    3    3    0    0 -0.54631000490E+02 -0.41916822460E+02  0.14621365807E+03  0.20437100608E+03  0.12509000000E+03 0.  0.
         25    1    4    4    0    0  0.54697926630E+02  0.17362997356E+02  0.39316842923E+03  0.41656003013E+03  0.12509000000E+03 0.  0.
<mgrwt>
<rscale>  2 0.43508448E+03</rscale>
<asrwt>0</asrwt>
<pdfrwt beam="1">  1       21 0.12069113E+00 0.43508448E+03</pdfrwt>
<pdfrwt beam="2">  1       21 0.84799640E-02 0.43508448E+03</pdfrwt>
<totfact> 0.51799506E+04</totfact>
</mgrwt>
</event>
<event>
 7    0  0.4750554E-002  0.4396745E+03  0.7546771E-02  0.1030847E+00
         21   -1    0    0  502  501  0.00000000000E+00  0.00000000000E+00  0.49452049377E+03  0.49452049377E+03  0.00000000000E+00 0. -1.
         21   -1    0    0  501  502 -0.00000000000E+00 -0.00000000000E+00 -0.97727843647E+02  0.97727843647E+02  0.00000000000E+00 0. -1.
      99926    2    1    2    0    0  0.00000000000E+00  0.00000000000E+00  0.39679265013E+03  0.59224833742E+03  0.43967452278E+03 0.  0.
      99925    2    3    3    0    0  0.94671504668E+02 -0.17516531128E+02  0.22678119636E+03  0.36025496431E+03  0.26283912499E+03 0.  0.
         25    1    4    4    0    0  0.69037656428E+02 -0.17196526343E+02  0.76247475440E+02  0.16285915428E+03  0.12509000000E+03 0.  0.
         25    1    4    4    0    0  0.25633848240E+02 -0.32000478525E+00  0.15053372092E+03  0.19739581002E+03  0.12509000000E+03 0.  0.
         25    1    3    3    0    0 -0.94671504668E+02  0.17516531128E+02  0.17001145376E+03  0.23199337312E+03  0.12509000000E+03 0.  0.
<mgrwt>
<rscale>  2 0.43967452E+03</rscale>
<asrwt>0</asrwt>
<pdfrwt beam="1">  1       21 0.72723600E-01 0.43967452E+03</pdfrwt>
<pdfrwt beam="2">  1       21 0.14371742E-01 0.43967452E+03</pdfrwt>
<totfact> 0.66899396E+04</totfact>
</mgrwt>
</event>
<event>
 7    0  0.4750554E-002  0.4557402E+03  0.7546771E-02  0.1026024E+00
         21   -1    0    0  502  501  0.00000000000E+00  0.00000000000E+00  0.12484620572E+03  0.12484620572E+03  0.00000000000E+00 0. -1.
         21   -1    0    0  501  502 -0.00000000000E+00 -0.00000000000E+00 -0.41591000189E+03  0.41591000189E+03  0.00000000000E+00 0. -1.
      99926    2    1    2    0    0  0.00000000000E+00  0.00000000000E+00 -0.29106379617E+03  0.54075620761E+03  0.45574021397E+03 0.  0.
      99925    2    3    3    0    0  0.21426218418E+02 -0.10590225057E+03 -0.13808518973E+03  0.31553557881E+03  0.26233721116E+03 0.  0.
         25    1    3    3    0    0 -0.21426218418E+02  0.10590225057E+03 -0.15297860644E+03  0.22522062880E+03  0.12509000000E+03 0.  0.
         25    1    4    4    0    0  0.22355756552E+02 -0.45964583714E+02 -0.10946070319E+03  0.17390134114E+03  0.12509000000E+03 0.  0.
         25    1    4    4    0    0 -0.92953813459E+00 -0.59937666856E+02 -0.28624486542E+02  0.14163423767E+03  0.12509000000E+03 0.  0.
<mgrwt>
<rscale>  2 0.45574021E+03</rscale>
<asrwt>0</asrwt>
<pdfrwt beam="1">  1       21 0.18359736E-01 0.45574021E+03</pdfrwt>
<pdfrwt beam="2">  1       21 0.61163236E-01 0.45574021E+03</pdfrwt>
<totfact> 0.62116839E+04</totfact>
</mgrwt>
</event>
<event>
 7    0  0.4750554E-002  0.4481123E+03  0.7546771E-02  0.1028286E+00
         21   -1    0    0  502  501  0.00000000000E+00  0.00000000000E+00  0.85948084499E+02  0.85948084499E+02  0.00000000000E+00 0.  1.
         21   -1    0    0  501  502 -0.00000000000E+00 -0.00000000000E+00 -0.58408696740E+03  0.58408696740E+03  0.00000000000E+00 0.  1.
      99926    2    1    2    0    0  0.00000000000E+00  0.00000000000E+00 -0.49813888290E+03  0.67003505190E+03  0.44811228963E+03 0.  0.
      99925    2    3    3    0    0 -0.39801144973E+02 -0.54508540797E+02 -0.19230066033E+03  0.33278167735E+03  0.26307563295E+03 0.  0.
         25    1    4    4    0    0 -0.40286812416E+02 -0.34195139630E+02 -0.14187533227E+03  0.19638852521E+03  0.12509000000E+03 0.  0.
         25    1    3    3    0    0  0.39801144973E+02  0.54508540797E+02 -0.30583822256E+03  0.33725337454E+03  0.12509000000E+03 0.  0.
         25    1    4    4    0    0  0.48566744247E+00 -0.20313401167E+02 -0.50425328068E+02  0.13639315214E+03  0.12509000000E+03 0.  0.
<mgrwt>
<rscale>  2 0.44811229E+03</rscale>
<asrwt>0</asrwt>
<pdfrwt beam="1">  1       21 0.12639424E-01 0.44811229E+03</pdfrwt>
<pdfrwt beam="2">  1       21 0.85895141E-01 0.44811229E+03</pdfrwt>
<totfact> 0.57624321E+04</totfact>
</mgrwt>
</event>
<event>
 7    0  0.4750554E-002  0.4383316E+03  0.7546771E-02  0.1031260E+00
         21   -1    0    0  502  501  0.00000000000E+00  0.00000000000E+00  0.42439174109E+03  0.42439174109E+03  0.00000000000E+00 0. -1.
         21   -1    0    0  501  502 -0.00000000000E+00 -0.00000000000E+00 -0.11318232383E+03  0.11318232383E+03  0.00000000000E+00 0. -1.
      99926    2    1    2    0    0 -0.88817841970E-15  0.00000000000E+00  0.31120941726E+03  0.53757406492E+03  0.43833157985E+03 0.  0.
      99925    2    3    3    0    0  0.58213812769E+01 -0.47248237160E+02  0.95627254283E+02  0.28382327874E+03  0.26295398343E+03 0.  0.
         25    1    4    4    0    0  0.42787213026E+02 -0.24140438802E+02  0.40706602911E+02  0.14042094575E+03  0.12509000000E+03 0.  0.
         25    1    4    4    0    0 -0.36965831749E+02 -0.23107798358E+02  0.54920651372E+02  0.14340233300E+03  0.12509000000E+03 0.  0.
         25    1    3    3    0    0 -0.58213812769E+01  0.47248237160E+02  0.21558216297E+03  0.25375078618E+03  0.12509000000E+03 0.  0.
<mgrwt>
<rscale>  2 0.43833158E+03</rscale>
<asrwt>0</asrwt>
<pdfrwt beam="1">  1       21 0.62410550E-01 0.43833158E+03</pdfrwt>
<pdfrwt beam="2">  1       21 0.16644459E-01 0.43833158E+03</pdfrwt>
<totfact> 0.71695268E+04</totfact>
</mgrwt>
</event>
<event>
 7    0  0.4750554E-002  0.4495851E+03  0.7546771E-02  0.1027846E+00
         21   -1    0    0  502  501  0.00000000000E+00  0.00000000000E+00  0.12878631513E+04  0.12878631513E+04  0.00000000000E+00 0. -1.
         21   -1    0    0  501  502 -0.00000000000E+00 -0.00000000000E+00 -0.39236848940E+02  0.39236848940E+02  0.00000000000E+00 0. -1.
      99926    2    1    2    0    0  0.00000000000E+00  0.00000000000E+00  0.12486263023E+04  0.13271000002E+04  0.44958510617E+03 0.  0.
      99925    2    3    3    0    0  0.97933531885E+02  0.39129454261E+02  0.85736701932E+03  0.90300870639E+03  0.26310535367E+03 0.  0.
         25    1    4    4    0    0  0.52081411893E+02  0.31675508837E+02  0.31321110684E+03  0.34273096865E+03  0.12509000000E+03 0.  0.
         25    1    4    4    0    0  0.45852119992E+02  0.74539454230E+01  0.54415591249E+03  0.56027773774E+03  0.12509000000E+03 0.  0.
         25    1    3    3    0    0 -0.97933531885E+02 -0.39129454261E+02  0.39125928302E+03  0.42409129383E+03  0.12509000000E+03 0.  0.
<mgrwt>
<rscale>  2 0.44958511E+03</rscale>
<asrwt>0</asrwt>
<pdfrwt beam="1">  1       21 0.18939161E+00 0.44958511E+03</pdfrwt>
<pdfrwt beam="2">  1       21 0.57701257E-02 0.44958511E+03</pdfrwt>
<totfact> 0.29563015E+04</totfact>
</mgrwt>
</event>
<event>
 7    0  0.4750554E-002  0.4550042E+03  0.7546771E-02  0.1026240E+00
         21   -1    0    0  502  501  0.00000000000E+00  0.00000000000E+00  0.18497268318E+03  0.18497268318E+03  0.00000000000E+00 0. -1.
         21   -1    0    0  501  502 -0.00000000000E+00 -0.00000000000E+00 -0.27980999406E+03  0.27980999406E+03  0.00000000000E+00 0. -1.
      99926    2    1    2    0    0  0.00000000000E+00  0.00000000000E+00 -0.94837310873E+02  0.46478267724E+03  0.45500419946E+03 0.  0.
      99925    2    3    3    0    0 -0.94907592297E+02 -0.38934492380E+02 -0.11295192463E+02  0.28271087980E+03  0.26320052130E+03 0.  0.
         25    1    4    4    0    0 -0.65805723366E+02  0.12982829259E+02 -0.22586613794E+02  0.14372407699E+03  0.12509000000E+03 0.  0.
         25    1    3    3    0    0  0.94907592297E+02  0.38934492380E+02 -0.83542118410E+02  0.18207179743E+03  0.12509000000E+03 0.  0.
         25    1    4    4    0    0 -0.29101868930E+02 -0.51917321639E+02  0.11291421331E+02  0.13898680282E+03  0.12509000000E+03 0.  0.
<mgrwt>
<rscale>  2 0.45500420E+03</rscale>
<asrwt>0</asrwt>
<pdfrwt beam="1">  1       21 0.27201865E-01 0.45500420E+03</pdfrwt>
<pdfrwt beam="2">  1       21 0.41148528E-01 0.45500420E+03</pdfrwt>
<totfact> 0.67824167E+04</totfact>
</mgrwt>
</event>
<event>
 7    0  0.4750554E-002  0.4599829E+03  0.7546771E-02  0.1024786E+00
         21   -1    0    0  502  501  0.00000000000E+00  0.00000000000E+00  0.84830167086E+02  0.84830167086E+02  0.00000000000E+00 0.  1.
         21   -1    0    0  501  502 -0.00000000000E+00 -0.00000000000E+00 -0.62355250081E+03  0.62355250081E+03  0.00000000000E+00 0.  1.
      99926    2    1    2    0    0 -0.71054273576E-14  0.00000000000E+00 -0.53872233372E+03  0.70838266789E+03  0.45998288155E+03 0.  0.
      99925    2    3    3    0    0  0.61061630718E+02 -0.10055424597E+03 -0.32828731857E+03  0.43677618264E+03  0.26298515369E+03 0.  0.
         25    1    3    3    0    0 -0.61061630718E+02  0.10055424597E+03 -0.21043501516E+03  0.27160648526E+03  0.12509000000E+03 0.  0.
         25    1    4    4    0    0  0.61562025447E+02 -0.81481320122E+02 -0.17895541415E+03  0.24104281126E+03  0.12509000000E+03 0.  0.
         25    1    4    4    0    0 -0.50039472954E+00 -0.19072925850E+02 -0.14933190441E+03  0.19573337138E+03  0.12509000000E+03 0.  0.
<mgrwt>
<rscale>  2 0.45998288E+03</rscale>
<asrwt>0</asrwt>
<pdfrwt beam="1">  1       21 0.12475025E-01 0.45998288E+03</pdfrwt>
<pdfrwt beam="2">  1       21 0.91698896E-01 0.45998288E+03</pdfrwt>
<totfact> 0.50443243E+04</totfact>
</mgrwt>
</event>
<event>
 7    0  0.4750554E-002  0.4580111E+03  0.7546771E-02  0.1025360E+00
         21   -1    0    0  502  501  0.00000000000E+00  0.00000000000E+00  0.11192888265E+04  0.11192888265E+04  0.00000000000E+00 0. -1.
         21   -1    0    0  501  502 -0.00000000000E+00 -0.00000000000E+00 -0.46854346760E+02  0.46854346760E+02  0.00000000000E+00 0. -1.
      99926    2    1    2    0    0  0.00000000000E+00  0.00000000000E+00  0.10724344797E+04  0.11661431733E+04  0.45801112127E+03 0.  0.
      99925    2    3    3    0    0  0.34617433693E+02 -0.20105396342E+02  0.95024261408E+03  0.98675266680E+03  0.26290151412E+03 0.  0.
         25    1    4    4    0    0 -0.14516400041E+02 -0.33822534111E+01  0.36792575007E+03  0.38889462734E+03  0.12509000000E+03 0.  0.
         25    1    4    4    0    0  0.49133833734E+02 -0.16723142931E+02  0.58231686402E+03  0.59785803946E+03  0.12509000000E+03 0.  0.
         25    1    3    3    0    0 -0.34617433693E+02  0.20105396342E+02  0.12219186566E+03  0.17939050647E+03  0.12509000000E+03 0.  0.
<mgrwt>
<rscale>  2 0.45801112E+03</rscale>
<asrwt>0</asrwt>
<pdfrwt beam="1">  1       21 0.16460128E+00 0.45801112E+03</pdfrwt>
<pdfrwt beam="2">  1       21 0.68903458E-02 0.45801112E+03</pdfrwt>
<totfact> 0.32479124E+04</totfact>
</mgrwt>
</event>
<event>
 7    0  0.4750554E-002  0.4297945E+03  0.7546771E-02  0.1033925E+00
         21   -1    0    0  502  501  0.00000000000E+00  0.00000000000E+00  0.25943336246E+03  0.25943336246E+03  0.00000000000E+00 0. -1.
         21   -1    0    0  501  502 -0.00000000000E+00 -0.00000000000E+00 -0.17800653924E+03  0.17800653924E+03  0.00000000000E+00 0. -1.
      99926    2    1    2    0    0  0.00000000000E+00  0.00000000000E+00  0.81426823220E+02  0.43743990169E+03  0.42979453237E+03 0.  0.
      99925    2    3    3    0    0 -0.59238507293E+02  0.50366803717E+02  0.11813518770E+02  0.27453030738E+03  0.26302341109E+03 0.  0.
         25    1    3    3    0    0  0.59238507293E+02 -0.50366803717E+02  0.69613304449E+02  0.16290959431E+03  0.12509000000E+03 0.  0.
         25    1    4    4    0    0 -0.44005926099E+02 -0.40982048496E+01 -0.18474255227E+02  0.13394821022E+03  0.12509000000E+03 0.  0.
         25    1    4    4    0    0 -0.15232581194E+02  0.54465008566E+02  0.30287773998E+02  0.14058209716E+03  0.12509000000E+03 0.  0.
<mgrwt>
<rscale>  2 0.42979453E+03</rscale>
<asrwt>0</asrwt>
<pdfrwt beam="1">  1       21 0.38151965E-01 0.42979453E+03</pdfrwt>
<pdfrwt beam="2">  1       21 0.26177432E-01 0.42979453E+03</pdfrwt>
<totfact> 0.85853205E+04</totfact>
</mgrwt>
</event>
<event>
 7    0  0.4750554E-002  0.4227560E+03  0.7546771E-02  0.1036173E+00
         21   -1    0    0  502  501  0.00000000000E+00  0.00000000000E+00  0.40250176533E+03  0.40250176533E+03  0.00000000000E+00 0. -1.
         21   -1    0    0  501  502 -0.00000000000E+00 -0.00000000000E+00 -0.11100735302E+03  0.11100735302E+03  0.00000000000E+00 0. -1.
      99926    2    1    2    0    0  0.35527136788E-14  0.00000000000E+00  0.29149441232E+03  0.51350911835E+03  0.42275598424E+03 0.  0.
      99925    2    3    3    0    0 -0.13850683265E+02 -0.24102914232E+02  0.10040887799E+03  0.28343525753E+03  0.26359212912E+03 0.  0.
         25    1    4    4    0    0  0.22721046599E+02  0.11602191484E+02  0.30343440911E+02  0.13122152762E+03  0.12509000000E+03 0.  0.
         25    1    4    4    0    0 -0.36571729864E+02 -0.35705105717E+02  0.70065437079E+02  0.15221372991E+03  0.12509000000E+03 0.  0.
         25    1    3    3    0    0  0.13850683265E+02  0.24102914232E+02  0.19108553433E+03  0.23007386082E+03  0.12509000000E+03 0.  0.
<mgrwt>
<rscale>  2 0.42275598E+03</rscale>
<asrwt>0</asrwt>
<pdfrwt beam="1">  1       21 0.59191436E-01 0.42275598E+03</pdfrwt>
<pdfrwt beam="2">  1       21 0.16324611E-01 0.42275598E+03</pdfrwt>
<totfact> 0.83772433E+04</totfact>
</mgrwt>
</event>
<event>
 7    0  0.4750554E-002  0.4516011E+03  0.7546771E-02  0.1027246E+00
         21   -1    0    0  502  501  0.00000000000E+00  0.00000000000E+00  0.18531776163E+03  0.18531776163E+03  0.00000000000E+00 0. -1.
         21   -1    0    0  501  502 -0.00000000000E+00 -0.00000000000E+00 -0.27512677146E+03  0.27512677146E+03  0.00000000000E+00 0. -1.
      99926    2    1    2    0    0  0.00000000000E+00  0.00000000000E+00 -0.89809009837E+02  0.46044453309E+03  0.45160105160E+03 0.  0.
      99925    2    3    3    0    0  0.65381156842E+02 -0.22125492919E+02 -0.14392219671E+03  0.30767026104E+03  0.26302691443E+03 0.  0.
         25    1    3    3    0    0 -0.65381156842E+02  0.22125492919E+02  0.54113186873E+02  0.15277427205E+03  0.12509000000E+03 0.  0.
         25    1    4    4    0    0  0.22180147702E+02 -0.48944243927E+02 -0.83743848881E+02  0.15983753718E+03  0.12509000000E+03 0.  0.
         25    1    4    4    0    0  0.43201009140E+02  0.26818751008E+02 -0.60178347828E+02  0.14783272386E+03  0.12509000000E+03 0.  0.
<mgrwt>
<rscale>  2 0.45160105E+03</rscale>
<asrwt>0</asrwt>
<pdfrwt beam="1">  1       21 0.27252612E-01 0.45160105E+03</pdfrwt>
<pdfrwt beam="2">  1       21 0.40459819E-01 0.45160105E+03</pdfrwt>
<totfact> 0.70022637E+04</totfact>
</mgrwt>
</event>
<event>
 7    0  0.4750554E-002  0.4558064E+03  0.7546771E-02  0.1026005E+00
         21   -1    0    0  502  501  0.00000000000E+00  0.00000000000E+00  0.82547468466E+03  0.82547468466E+03  0.00000000000E+00 0.  1.
         21   -1    0    0  501  502 -0.00000000000E+00 -0.00000000000E+00 -0.62921202489E+02  0.62921202489E+02  0.00000000000E+00 0.  1.
      99926    2    1    2    0    0  0.00000000000E+00  0.00000000000E+00  0.76255348217E+03  0.88839588715E+03  0.45580636144E+03 0.  0.
      99925    2    3    3    0    0 -0.10925112114E+03  0.28363664608E+02  0.50926862028E+03  0.58419030813E+03  0.26302753387E+03 0.  0.
         25    1    4    4    0    0 -0.98353463253E+02  0.13936269628E+02  0.27666621275E+03  0.31946725141E+03  0.12509000000E+03 0.  0.
         25    1    3    3    0    0  0.10925112114E+03 -0.28363664608E+02  0.25328486190E+03  0.30420557902E+03  0.12509000000E+03 0.  0.
         25    1    4    4    0    0 -0.10897657889E+02  0.14427394980E+02  0.23260240752E+03  0.26472305672E+03  0.12509000000E+03 0.  0.
<mgrwt>
<rscale>  2 0.45580636E+03</rscale>
<asrwt>0</asrwt>
<pdfrwt beam="1">  1       21 0.12139333E+00 0.45580636E+03</pdfrwt>
<pdfrwt beam="2">  1       21 0.92531185E-02 0.45580636E+03</pdfrwt>
<totfact> 0.43464116E+04</totfact>
</mgrwt>
</event>
<event>
 7    0  0.4750554E-002  0.4521537E+03  0.7546771E-02  0.1027082E+00
         21   -1    0    0  502  501  0.00000000000E+00  0.00000000000E+00  0.17923366289E+03  0.17923366289E+03  0.00000000000E+00 0. -1.
         21   -1    0    0  501  502 -0.00000000000E+00 -0.00000000000E+00 -0.28516268684E+03  0.28516268684E+03  0.00000000000E+00 0. -1.
      99926    2    1    2    0    0  0.71054273576E-14  0.00000000000E+00 -0.10592902395E+03  0.46439634973E+03  0.45215374766E+03 0.  0.
      99925    2    3    3    0    0  0.42166614625E+02  0.92416764481E+02 -0.10805660720E+03  0.30324140424E+03  0.26449997568E+03 0.  0.
         25    1    4    4    0    0  0.40023106968E+02  0.71980817375E+02 -0.91220478044E+02  0.17536182845E+03  0.12509000000E+03 0.  0.
         25    1    3    3    0    0 -0.42166614625E+02 -0.92416764481E+02  0.21275832450E+01  0.16115494549E+03  0.12509000000E+03 0.  0.
         25    1    4    4    0    0  0.21435076576E+01  0.20435947106E+02 -0.16836129155E+02  0.12787957579E+03  0.12509000000E+03 0.  0.
<mgrwt>
<rscale>  2 0.45215375E+03</rscale>
<asrwt>0</asrwt>
<pdfrwt beam="1">  1       21 0.26357892E-01 0.45215375E+03</pdfrwt>
<pdfrwt beam="2">  1       21 0.41935689E-01 0.45215375E+03</pdfrwt>
<totfact> 0.69408863E+04</totfact>
</mgrwt>
</event>
<event>
 7    0  0.4750554E-002  0.4595541E+03  0.7546771E-02  0.1024911E+00
         21   -1    0    0  502  501  0.00000000000E+00  0.00000000000E+00  0.11109208366E+04  0.11109208366E+04  0.00000000000E+00 0.  1.
         21   -1    0    0  501  502 -0.00000000000E+00 -0.00000000000E+00 -0.47525872645E+02  0.47525872645E+02  0.00000000000E+00 0.  1.
      99926    2    1    2    0    0 -0.17763568394E-14  0.00000000000E+00  0.10633949639E+04  0.11584467092E+04  0.45955405427E+03 0.  0.
      99925    2    3    3    0    0 -0.12678728647E+02 -0.30824724162E+02  0.38249559565E+03  0.46535048819E+03  0.26293969344E+03 0.  0.
         25    1    4    4    0    0 -0.35289985777E+02 -0.43975626057E+02  0.19412697711E+03  0.23772259069E+03  0.12509000000E+03 0.  0.
         25    1    3    3    0    0  0.12678728647E+02  0.30824724162E+02  0.68089936828E+03  0.69309622103E+03  0.12509000000E+03 0.  0.
         25    1    4    4    0    0  0.22611257130E+02  0.13150901894E+02  0.18836861854E+03  0.22762789750E+03  0.12509000000E+03 0.  0.
<mgrwt>
<rscale>  2 0.45955405E+03</rscale>
<asrwt>0</asrwt>
<pdfrwt beam="1">  1       21 0.16337070E+00 0.45955405E+03</pdfrwt>
<pdfrwt beam="2">  1       21 0.69890996E-02 0.45955405E+03</pdfrwt>
<totfact> 0.32338571E+04</totfact>
</mgrwt>
</event>
<event>
 7    0  0.4750554E-002  0.4507040E+03  0.7546771E-02  0.1027512E+00
         21   -1    0    0  502  501  0.00000000000E+00  0.00000000000E+00  0.16327814224E+03  0.16327814224E+03  0.00000000000E+00 0. -1.
         21   -1    0    0  501  502 -0.00000000000E+00 -0.00000000000E+00 -0.31102457121E+03  0.31102457121E+03  0.00000000000E+00 0. -1.
      99926    2    1    2    0    0  0.00000000000E+00  0.00000000000E+00 -0.14774642897E+03  0.47430271345E+03  0.45070395684E+03 0.  0.
      99925    2    3    3    0    0 -0.42864379401E+02  0.61188958439E+02 -0.17621801910E+03  0.32584536873E+03  0.26370621989E+03 0.  0.
         25    1    3    3    0    0  0.42864379401E+02 -0.61188958439E+02  0.28471590131E+02  0.14845734472E+03  0.12509000000E+03 0.  0.
         25    1    4    4    0    0 -0.22776193597E+02  0.72472802311E+02 -0.10444856579E+03  0.17980009195E+03  0.12509000000E+03 0.  0.
         25    1    4    4    0    0 -0.20088185804E+02 -0.11283843872E+02 -0.71769453310E+02  0.14604527678E+03  0.12509000000E+03 0.  0.
<mgrwt>
<rscale>  2 0.45070396E+03</rscale>
<asrwt>0</asrwt>
<pdfrwt beam="1">  1       21 0.24011491E-01 0.45070396E+03</pdfrwt>
<pdfrwt beam="2">  1       21 0.45738908E-01 0.45070396E+03</pdfrwt>
<totfact> 0.69455288E+04</totfact>
</mgrwt>
</event>
<event>
 7    0  0.4750554E-002  0.4520589E+03  0.7546771E-02  0.1027110E+00
         21   -1    0    0  502  501  0.00000000000E+00  0.00000000000E+00  0.48668119914E+03  0.48668119914E+03  0.00000000000E+00 0.  1.
         21   -1    0    0  501  502 -0.00000000000E+00 -0.00000000000E+00 -0.10497492151E+03  0.10497492151E+03  0.00000000000E+00 0.  1.
      99926    2    1    2    0    0  0.00000000000E+00  0.00000000000E+00  0.38170627763E+03  0.59165612064E+03  0.45205893721E+03 0.  0.
      99925    2    3    3    0    0  0.10775489630E+03  0.18983217007E+02  0.22185904694E+03  0.36106963912E+03  0.26301780810E+03 0.  0.
         25    1    3    3    0    0 -0.10775489630E+03 -0.18983217007E+02  0.15984723069E+03  0.23058648153E+03  0.12509000000E+03 0.  0.
         25    1    4    4    0    0  0.89411589024E+02  0.19130875511E+01  0.14918507615E+03  0.21424702378E+03  0.12509000000E+03 0.  0.
         25    1    4    4    0    0  0.18343307275E+02  0.17070129456E+02  0.72673970796E+02  0.14682261533E+03  0.12509000000E+03 0.  0.
<mgrwt>
<rscale>  2 0.45205894E+03</rscale>
<asrwt>0</asrwt>
<pdfrwt beam="1">  1       21 0.71570763E-01 0.45205894E+03</pdfrwt>
<pdfrwt beam="2">  1       21 0.15437489E-01 0.45205894E+03</pdfrwt>
<totfact> 0.60590919E+04</totfact>
</mgrwt>
</event>
<event>
 7    0  0.4750554E-002  0.4577723E+03  0.7546771E-02  0.1025429E+00
         21   -1    0    0  502  501  0.00000000000E+00  0.00000000000E+00  0.12521526566E+03  0.12521526566E+03  0.00000000000E+00 0.  1.
         21   -1    0    0  501  502 -0.00000000000E+00 -0.00000000000E+00 -0.41839036893E+03  0.41839036893E+03  0.00000000000E+00 0.  1.
      99926    2    1    2    0    0  0.00000000000E+00  0.00000000000E+00 -0.29317510327E+03  0.54360563459E+03  0.45777226301E+03 0.  0.
      99925    2    3    3    0    0  0.69725360685E+02 -0.77793443437E+02 -0.24292867528E+03  0.37306045761E+03  0.26314695133E+03 0.  0.
         25    1    4    4    0    0  0.91385236617E+01 -0.30042588797E+02 -0.15562614838E+03  0.20212143854E+03  0.12509000000E+03 0.  0.
         25    1    4    4    0    0  0.60586837023E+02 -0.47750854640E+02 -0.87302526892E+02  0.17093901907E+03  0.12509000000E+03 0.  0.
         25    1    3    3    0    0 -0.69725360685E+02  0.77793443437E+02 -0.50246427993E+02  0.17054517698E+03  0.12509000000E+03 0.  0.
<mgrwt>
<rscale>  2 0.45777226E+03</rscale>
<asrwt>0</asrwt>
<pdfrwt beam="1">  1       21 0.18414010E-01 0.45777226E+03</pdfrwt>
<pdfrwt beam="2">  1       21 0.61527994E-01 0.45777226E+03</pdfrwt>
<totfact> 0.60943056E+04</totfact>
</mgrwt>
</event>
<event>
 7    0  0.4750554E-002  0.4471402E+03  0.7546771E-02  0.1028578E+00
         21   -1    0    0  502  501  0.00000000000E+00  0.00000000000E+00  0.93497408330E+03  0.93497408330E+03  0.00000000000E+00 0.  1.
         21   -1    0    0  501  502 -0.00000000000E+00 -0.00000000000E+00 -0.53459872103E+02  0.53459872103E+02  0.00000000000E+00 0.  1.
      99926    2    1    2    0    0  0.35527136788E-14  0.00000000000E+00  0.88151421119E+03  0.98843395540E+03  0.44714022370E+03 0.  0.
      99925    2    3    3    0    0  0.27084114567E+02 -0.92413904994E+02  0.46314467486E+03  0.54127128239E+03  0.26305461827E+03 0.  0.
         25    1    3    3    0    0 -0.27084114567E+02  0.92413904994E+02  0.41836953633E+03  0.44716267301E+03  0.12509000000E+03 0.  0.
         25    1    4    4    0    0  0.49375634018E+02 -0.26966632737E+02  0.23153922573E+03  0.26911535383E+03  0.12509000000E+03 0.  0.
         25    1    4    4    0    0 -0.22291519451E+02 -0.65447272257E+02  0.23160544913E+03  0.27215592856E+03  0.12509000000E+03 0.  0.
<mgrwt>
<rscale>  2 0.44714022E+03</rscale>
<asrwt>0</asrwt>
<pdfrwt beam="1">  1       21 0.13749618E+00 0.44714022E+03</pdfrwt>
<pdfrwt beam="2">  1       21 0.78617465E-02 0.44714022E+03</pdfrwt>
<totfact> 0.42148358E+04</totfact>
</mgrwt>
</event>
<event>
 7    0  0.4750554E-002  0.4504010E+03  0.7546771E-02  0.1027603E+00
         21   -1    0    0  502  501  0.00000000000E+00  0.00000000000E+00  0.24041635117E+02  0.24041635117E+02  0.00000000000E+00 0.  1.
         21   -1    0    0  501  502 -0.00000000000E+00 -0.00000000000E+00 -0.21094767167E+04  0.21094767167E+04  0.00000000000E+00 0.  1.
      99926    2    1    2    0    0  0.35527136788E-14  0.00000000000E+00 -0.20854350816E+04  0.21335183518E+04  0.45040101914E+03 0.  0.
      99925    2    3    3    0    0 -0.16397254919E+02  0.10739543077E+03 -0.13522586689E+04  0.13818549905E+04  0.26290123366E+03 0.  0.
         25    1    4    4    0    0 -0.17030687278E+02  0.34233390565E+02 -0.81340685011E+03  0.82385689367E+03  0.12509000000E+03 0.  0.
         25    1    3    3    0    0  0.16397254919E+02 -0.10739543077E+03 -0.73317641269E+03  0.75166336131E+03  0.12509000000E+03 0.  0.
         25    1    4    4    0    0  0.63343235887E+00  0.73162040208E+02 -0.53885181878E+03  0.55799809683E+03  0.12509000000E+03 0.  0.
<mgrwt>
<rscale>  2 0.45040102E+03</rscale>
<asrwt>0</asrwt>
<pdfrwt beam="1">  1       21 0.35355331E-02 0.45040102E+03</pdfrwt>
<pdfrwt beam="2">  1       21 0.31021729E+00 0.45040102E+03</pdfrwt>
<totfact> 0.12075316E+04</totfact>
</mgrwt>
</event>
<event>
 7    0  0.4750554E-002  0.4508729E+03  0.7546771E-02  0.1027462E+00
         21   -1    0    0  502  501  0.00000000000E+00  0.00000000000E+00  0.42543848499E+03  0.42543848499E+03  0.00000000000E+00 0.  1.
         21   -1    0    0  501  502 -0.00000000000E+00 -0.00000000000E+00 -0.11945694695E+03  0.11945694695E+03  0.00000000000E+00 0.  1.
      99926    2    1    2    0    0  0.00000000000E+00  0.00000000000E+00  0.30598153804E+03  0.54489543194E+03  0.45087285362E+03 0.  0.
      99925    2    3    3    0    0  0.77357948837E+02 -0.74620091887E+02  0.16819493474E+03  0.32998832059E+03  0.26277432389E+03 0.  0.
         25    1    4    4    0    0  0.35602020153E+02  0.29368272297E+01  0.64807881705E+02  0.14533994091E+03  0.12509000000E+03 0.  0.
         25    1    4    4    0    0  0.41755928684E+02 -0.77556919117E+02  0.10338705304E+03  0.18464837968E+03  0.12509000000E+03 0.  0.
         25    1    3    3    0    0 -0.77357948837E+02  0.74620091887E+02  0.13778660329E+03  0.21490711135E+03  0.12509000000E+03 0.  0.
<mgrwt>
<rscale>  2 0.45087285E+03</rscale>
<asrwt>0</asrwt>
<pdfrwt beam="1">  1       21 0.62564482E-01 0.45087285E+03</pdfrwt>
<pdfrwt beam="2">  1       21 0.17567198E-01 0.45087285E+03</pdfrwt>
<totfact> 0.64278698E+04</totfact>
</mgrwt>
</event>
<event>
 7    0  0.4750554E-002  0.4269679E+03  0.7546771E-02  0.1034822E+00
         21   -1    0    0  502  501  0.00000000000E+00  0.00000000000E+00  0.10543546030E+04  0.10543546030E+04  0.00000000000E+00 0. -1.
         21   -1    0    0  501  502 -0.00000000000E+00 -0.00000000000E+00 -0.43225878256E+02  0.43225878256E+02  0.00000000000E+00 0. -1.
      99926    2    1    2    0    0 -0.17763568394E-14  0.00000000000E+00  0.10111287247E+04  0.10975804813E+04  0.42696793185E+03 0.  0.
      99925    2    3    3    0    0  0.14622785305E+02  0.59170327023E+02  0.50403410923E+03  0.57174076173E+03  0.26291093911E+03 0.  0.
         25    1    4    4    0    0  0.31279572242E+02  0.36911558530E+02  0.19000555111E+03  0.23257362779E+03  0.12509000000E+03 0.  0.
         25    1    4    4    0    0 -0.16656786937E+02  0.22258768493E+02  0.31402855812E+03  0.33916713393E+03  0.12509000000E+03 0.  0.
         25    1    3    3    0    0 -0.14622785305E+02 -0.59170327023E+02  0.50709461552E+03  0.52583971954E+03  0.12509000000E+03 0.  0.
<mgrwt>
<rscale>  2 0.42696793E+03</rscale>
<asrwt>0</asrwt>
<pdfrwt beam="1">  1       21 0.15505213E+00 0.42696793E+03</pdfrwt>
<pdfrwt beam="2">  1       21 0.63567475E-02 0.42696793E+03</pdfrwt>
<totfact> 0.44552287E+04</totfact>
</mgrwt>
</event>
<event>
 7    0  0.4750554E-002  0.4414693E+03  0.7546771E-02  0.1030297E+00
         21   -1    0    0  502  501  0.00000000000E+00  0.00000000000E+00  0.59518709562E+02  0.59518709562E+02  0.00000000000E+00 0. -1.
         21   -1    0    0  501  502 -0.00000000000E+00 -0.00000000000E+00 -0.81862962592E+03  0.81862962592E+03  0.00000000000E+00 0. -1.
      99926    2    1    2    0    0  0.00000000000E+00  0.00000000000E+00 -0.75911091635E+03  0.87814833548E+03  0.44146926934E+03 0.  0.
      99925    2    3    3    0    0 -0.57580261147E+02 -0.61389568614E+02 -0.37667623307E+03  0.46706688285E+03  0.26302532748E+03 0.  0.
         25    1    4    4    0    0 -0.61793998601E+02 -0.43969007670E+02 -0.16472259566E+03  0.22030164212E+03  0.12509000000E+03 0.  0.
         25    1    3    3    0    0  0.57580261147E+02  0.61389568614E+02 -0.38243468329E+03  0.41108145262E+03  0.12509000000E+03 0.  0.
         25    1    4    4    0    0  0.42137374541E+01 -0.17420560944E+02 -0.21195363741E+03  0.24676524074E+03  0.12509000000E+03 0.  0.
<mgrwt>
<rscale>  2 0.44146927E+03</rscale>
<asrwt>0</asrwt>
<pdfrwt beam="1">  1       21 0.87527513E-02 0.44146927E+03</pdfrwt>
<pdfrwt beam="2">  1       21 0.12038671E+00 0.44146927E+03</pdfrwt>
<totfact> 0.49201731E+04</totfact>
</mgrwt>
</event>
<event>
 7    0  0.4750554E-002  0.4560081E+03  0.7546771E-02  0.1025945E+00
         21   -1    0    0  502  501  0.00000000000E+00  0.00000000000E+00  0.50529136890E+02  0.50529136890E+02  0.00000000000E+00 0. -1.
         21   -1    0    0  501  502 -0.00000000000E+00 -0.00000000000E+00 -0.10288291380E+04  0.10288291380E+04  0.00000000000E+00 0. -1.
      99926    2    1    2    0    0 -0.14210854715E-13  0.00000000000E+00 -0.97830000112E+03  0.10793582749E+04  0.45600810673E+03 0.  0.
      99925    2    3    3    0    0 -0.81768007965E+02  0.27629799817E+02 -0.43824267220E+03  0.51832455079E+03  0.26297202751E+03 0.  0.
         25    1    3    3    0    0  0.81768007965E+02 -0.27629799817E+02 -0.54005732892E+03  0.56103372411E+03  0.12509000000E+03 0.  0.
         25    1    4    4    0    0 -0.71598343910E+02 -0.56371376504E+01 -0.19438283943E+03  0.24205432559E+03  0.12509000000E+03 0.  0.
         25    1    4    4    0    0 -0.10169664055E+02  0.33266937467E+02 -0.24385983276E+03  0.27627022520E+03  0.12509000000E+03 0.  0.
<mgrwt>
<rscale>  2 0.45600811E+03</rscale>
<asrwt>0</asrwt>
<pdfrwt beam="1">  1       21 0.74307555E-02 0.45600811E+03</pdfrwt>
<pdfrwt beam="2">  1       21 0.15129840E+00 0.45600811E+03</pdfrwt>
<totfact> 0.35934740E+04</totfact>
</mgrwt>
</event>
<event>
 7    0  0.4750554E-002  0.4480369E+03  0.7546771E-02  0.1028309E+00
         21   -1    0    0  502  501  0.00000000000E+00  0.00000000000E+00  0.89212733717E+03  0.89212733717E+03  0.00000000000E+00 0. -1.
         21   -1    0    0  501  502 -0.00000000000E+00 -0.00000000000E+00 -0.56252352211E+02  0.56252352211E+02  0.00000000000E+00 0. -1.
      99926    2    1    2    0    0  0.00000000000E+00  0.00000000000E+00  0.83587498496E+03  0.94837968938E+03  0.44803687878E+03 0.  0.
      99925    2    3    3    0    0  0.10914523051E+02  0.74684656787E+02  0.68828096033E+03  0.74070583696E+03  0.26309224957E+03 0.  0.
         25    1    4    4    0    0  0.27504964693E+02  0.18442947637E+02  0.41143716498E+03  0.43130582448E+03  0.12509000000E+03 0.  0.
         25    1    3    3    0    0 -0.10914523051E+02 -0.74684656787E+02  0.14759402463E+03  0.20767385242E+03  0.12509000000E+03 0.  0.
         25    1    4    4    0    0 -0.16590441642E+02  0.56241709149E+02  0.27684379535E+03  0.30940001248E+03  0.12509000000E+03 0.  0.
<mgrwt>
<rscale>  2 0.44803688E+03</rscale>
<asrwt>0</asrwt>
<pdfrwt beam="1">  1       21 0.13119519E+00 0.44803688E+03</pdfrwt>
<pdfrwt beam="2">  1       21 0.82724053E-02 0.44803688E+03</pdfrwt>
<totfact> 0.43528752E+04</totfact>
</mgrwt>
</event>
<event>
 7    0  0.4750554E-002  0.4490745E+03  0.7546771E-02  0.1027998E+00
         21   -1    0    0  502  501  0.00000000000E+00  0.00000000000E+00  0.20578144534E+03  0.20578144534E+03  0.00000000000E+00 0.  1.
         21   -1    0    0  501  502 -0.00000000000E+00 -0.00000000000E+00 -0.24500258727E+03  0.24500258727E+03  0.00000000000E+00 0.  1.
      99926    2    1    2    0    0  0.35527136788E-14 -0.71054273576E-14 -0.39221141933E+02  0.45078403261E+03  0.44907454402E+03 0.  0.
      99925    2    3    3    0    0 -0.18679988354E+02  0.42692877874E+02 -0.12203132652E+03  0.29369597273E+03  0.26304763059E+03 0.  0.
         25    1    4    4    0    0  0.29006005968E+02  0.23018694055E+02 -0.45015344301E+02  0.13800397813E+03  0.12509000000E+03 0.  0.
         25    1    4    4    0    0 -0.47685994322E+02  0.19674183819E+02 -0.77015982223E+02  0.15569199460E+03  0.12509000000E+03 0.  0.
         25    1    3    3    0    0  0.18679988354E+02 -0.42692877874E+02  0.82810184592E+02  0.15708805988E+03  0.12509000000E+03 0.  0.
<mgrwt>
<rscale>  2 0.44907454E+03</rscale>
<asrwt>0</asrwt>
<pdfrwt beam="1">  1       21 0.30261978E-01 0.44907454E+03</pdfrwt>
<pdfrwt beam="2">  1       21 0.36029792E-01 0.44907454E+03</pdfrwt>
<totfact> 0.72209743E+04</totfact>
</mgrwt>
</event>
<event>
 7    0  0.4750554E-002  0.4010392E+03  0.7546771E-02  0.1043420E+00
         21   -1    0    0  502  501  0.00000000000E+00  0.00000000000E+00  0.10518932474E+03  0.10518932474E+03  0.00000000000E+00 0.  1.
         21   -1    0    0  501  502 -0.00000000000E+00 -0.00000000000E+00 -0.38224514619E+03  0.38224514619E+03  0.00000000000E+00 0.  1.
      99926    2    1    2    0    0  0.35527136788E-14  0.00000000000E+00 -0.27705582145E+03  0.48743447092E+03  0.40103919415E+03 0.  0.
      99925    2    3    3    0    0 -0.26556539497E+02 -0.21169827576E+02 -0.22424522416E+03  0.34747062318E+03  0.26324228768E+03 0.  0.
         25    1    3    3    0    0  0.26556539497E+02  0.21169827576E+02 -0.52810597296E+02  0.13996384775E+03  0.12509000000E+03 0.  0.
         25    1    4    4    0    0 -0.44000237679E+02 -0.37811702545E+02 -0.12225966911E+03  0.18428423849E+03  0.12509000000E+03 0.  0.
         25    1    4    4    0    0  0.17443698181E+02  0.16641874969E+02 -0.10198555505E+03  0.16318638469E+03  0.12509000000E+03 0.  0.
<mgrwt>
<rscale>  2 0.40103919E+03</rscale>
<asrwt>0</asrwt>
<pdfrwt beam="1">  1       21 0.15469019E-01 0.40103919E+03</pdfrwt>
<pdfrwt beam="2">  1       21 0.56212520E-01 0.40103919E+03</pdfrwt>
<totfact> 0.10405638E+05</totfact>
</mgrwt>
</event>
<event>
 7    0  0.4750554E-002  0.4574748E+03  0.7546771E-02  0.1025516E+00
         21   -1    0    0  502  501  0.00000000000E+00  0.00000000000E+00  0.45817244866E+03  0.45817244866E+03  0.00000000000E+00 0.  1.
         21   -1    0    0  501  502 -0.00000000000E+00 -0.00000000000E+00 -0.11419455833E+03  0.11419455833E+03  0.00000000000E+00 0.  1.
      99926    2    1    2    0    0  0.17763568394E-14  0.00000000000E+00  0.34397789032E+03  0.57236700699E+03  0.45747480987E+03 0.  0.
      99925    2    3    3    0    0 -0.61502202828E+01  0.11481263141E+03  0.20228314359E+03  0.35113257276E+03  0.26297499487E+03 0.  0.
         25    1    4    4    0    0  0.36258937700E+02  0.46486020882E+02  0.95657687388E+02  0.16814744113E+03  0.12509000000E+03 0.  0.
         25    1    4    4    0    0 -0.42409157983E+02  0.68326610528E+02  0.10662545621E+03  0.18298513163E+03  0.12509000000E+03 0.  0.
         25    1    3    3    0    0  0.61502202828E+01 -0.11481263141E+03  0.14169474673E+03  0.22123443424E+03  0.12509000000E+03 0.  0.
<mgrwt>
<rscale>  2 0.45747481E+03</rscale>
<asrwt>0</asrwt>
<pdfrwt beam="1">  1       21 0.67378301E-01 0.45747481E+03</pdfrwt>
<pdfrwt beam="2">  1       21 0.16793318E-01 0.45747481E+03</pdfrwt>
<totfact> 0.59244320E+04</totfact>
</mgrwt>
</event>
<event>
 7    0  0.4750554E-002  0.4410359E+03  0.7546771E-02  0.1030429E+00
         21   -1    0    0  502  501  0.00000000000E+00  0.00000000000E+00  0.12929960636E+04  0.12929960636E+04  0.00000000000E+00 0.  1.
         21   -1    0    0  501  502 -0.00000000000E+00 -0.00000000000E+00 -0.37608903927E+02  0.37608903927E+02  0.00000000000E+00 0.  1.
      99926    2    1    2    0    0 -0.14210854715E-13 -0.35527136788E-14  0.12553871597E+04  0.13306049676E+04  0.44103589303E+03 0.  0.
      99925    2    3    3    0    0  0.97944110858E+02  0.16566296387E+02  0.81169415825E+03  0.85903474090E+03  0.26310794081E+03 0.  0.
         25    1    3    3    0    0 -0.97944110858E+02 -0.16566296387E+02  0.44369300147E+03  0.47157022667E+03  0.12509000000E+03 0.  0.
         25    1    4    4    0    0  0.74288614800E+02  0.27992692991E+02  0.51712231238E+03  0.53792693111E+03  0.12509000000E+03 0.  0.
         25    1    4    4    0    0  0.23655496058E+02 -0.11426396604E+02  0.29457184587E+03  0.32110780979E+03  0.12509000000E+03 0.  0.
<mgrwt>
<rscale>  2 0.44103589E+03</rscale>
<asrwt>0</asrwt>
<pdfrwt beam="1">  1       21 0.19014645E+00 0.44103589E+03</pdfrwt>
<pdfrwt beam="2">  1       21 0.55307220E-02 0.44103589E+03</pdfrwt>
<totfact> 0.31525216E+04</totfact>
</mgrwt>
</event>
<event>
 7    0  0.4750554E-002  0.4610711E+03  0.7546771E-02  0.1024471E+00
         21   -1    0    0  502  501  0.00000000000E+00  0.00000000000E+00  0.44759564579E+03  0.44759564579E+03  0.00000000000E+00 0. -1.
         21   -1    0    0  501  502 -0.00000000000E+00 -0.00000000000E+00 -0.11873808290E+03  0.11873808290E+03  0.00000000000E+00 0. -1.
      99926    2    1    2    0    0  0.00000000000E+00  0.00000000000E+00  0.32885756289E+03  0.56633372868E+03  0.46107113939E+03 0.  0.
      99925    2    3    3    0    0 -0.55994882300E+02  0.85591032929E+02  0.13218685767E+03  0.31179861096E+03  0.26321807821E+03 0.  0.
         25    1    4    4    0    0  0.75872590010E+01  0.32926074988E+02  0.83766506337E+02  0.15429202376E+03  0.12509000000E+03 0.  0.
         25    1    4    4    0    0 -0.63582141301E+02  0.52664957941E+02  0.48420351329E+02  0.15750658720E+03  0.12509000000E+03 0.  0.
         25    1    3    3    0    0  0.55994882300E+02 -0.85591032929E+02  0.19667070522E+03  0.25453511772E+03  0.12509000000E+03 0.  0.
<mgrwt>
<rscale>  2 0.46107114E+03</rscale>
<asrwt>0</asrwt>
<pdfrwt beam="1">  1       21 0.65822888E-01 0.46107114E+03</pdfrwt>
<pdfrwt beam="2">  1       21 0.17461483E-01 0.46107114E+03</pdfrwt>
<totfact> 0.57966115E+04</totfact>
</mgrwt>
</event>
<event>
 7    0  0.4750554E-002  0.4509294E+03  0.7546771E-02  0.1027445E+00
         21   -1    0    0  502  501  0.00000000000E+00  0.00000000000E+00  0.25943347837E+03  0.25943347837E+03  0.00000000000E+00 0.  1.
         21   -1    0    0  501  502 -0.00000000000E+00 -0.00000000000E+00 -0.19594361832E+03  0.19594361832E+03  0.00000000000E+00 0.  1.
      99926    2    1    2    0    0  0.71054273576E-14  0.00000000000E+00  0.63489860052E+02  0.45537709669E+03  0.45092941561E+03 0.  0.
      99925    2    3    3    0    0 -0.32156091894E+02 -0.32541049915E+02 -0.60280426682E+02  0.27355430892E+03  0.26287886167E+03 0.  0.
         25    1    4    4    0    0  0.60182225022E+01 -0.39777304846E+00 -0.60023902615E+02  0.13887675907E+03  0.12509000000E+03 0.  0.
         25    1    3    3    0    0  0.32156091894E+02  0.32541049915E+02  0.12377028673E+03  0.18182278777E+03  0.12509000000E+03 0.  0.
         25    1    4    4    0    0 -0.38174314396E+02 -0.32143276866E+02 -0.25652406699E+00  0.13467754984E+03  0.12509000000E+03 0.  0.
<mgrwt>
<rscale>  2 0.45092942E+03</rscale>
<asrwt>0</asrwt>
<pdfrwt beam="1">  1       21 0.38151982E-01 0.45092942E+03</pdfrwt>
<pdfrwt beam="2">  1       21 0.28815238E-01 0.45092942E+03</pdfrwt>
<totfact> 0.70788982E+04</totfact>
</mgrwt>
</event>
<event>
 7    0  0.4750554E-002  0.4462041E+03  0.7546771E-02  0.1028860E+00
         21   -1    0    0  502  501  0.00000000000E+00  0.00000000000E+00  0.34410252885E+02  0.34410252885E+02  0.00000000000E+00 0. -1.
         21   -1    0    0  501  502 -0.00000000000E+00 -0.00000000000E+00 -0.14465026567E+04  0.14465026567E+04  0.00000000000E+00 0. -1.
      99926    2    1    2    0    0 -0.35527136788E-14  0.00000000000E+00 -0.14120924038E+04  0.14809129096E+04  0.44620408880E+03 0.  0.
      99925    2    3    3    0    0 -0.23787377868E+02 -0.65734377018E+02 -0.63810030472E+03  0.69376735429E+03  0.26316210844E+03 0.  0.
         25    1    3    3    0    0  0.23787377868E+02  0.65734377018E+02 -0.77399209912E+03  0.78714555533E+03  0.12509000000E+03 0.  0.
         25    1    4    4    0    0 -0.55410525608E+00 -0.37542982778E+02 -0.41856708001E+03  0.43846971521E+03  0.12509000000E+03 0.  0.
         25    1    4    4    0    0 -0.23233272612E+02 -0.28191394241E+02 -0.21953322471E+03  0.25529763908E+03  0.12509000000E+03 0.  0.
<mgrwt>
<rscale>  2 0.44620409E+03</rscale>
<asrwt>0</asrwt>
<pdfrwt beam="1">  1       21 0.50603322E-02 0.44620409E+03</pdfrwt>
<pdfrwt beam="2">  1       21 0.21272094E+00 0.44620409E+03</pdfrwt>
<totfact> 0.25981198E+04</totfact>
</mgrwt>
</event>
<event>
 6    0  0.4750554E-002  0.4502761E+03  0.7546771E-02  0.1027640E+00
         21   -1    0    0  502  501  0.00000000000E+00  0.00000000000E+00  0.18401177423E+03  0.18401177423E+03  0.00000000000E+00 0.  1.
         21   -1    0    0  501  502 -0.00000000000E+00 -0.00000000000E+00 -0.27545598709E+03  0.27545598709E+03  0.00000000000E+00 0.  1.
      99926    2    1    2    0    0 -0.14210854715E-13 -0.71054273576E-14 -0.91444212857E+02  0.45946776132E+03  0.45027611488E+03 0.  0.
         25    1    3    3    0    0 -0.77028254562E+02 -0.42789118157E+02 -0.53294307575E+02  0.16202484980E+03  0.12509000000E+03 0.  0.
         25    1    3    3    0    0  0.94921151048E+02  0.46789038344E+02 -0.47712424765E+02  0.17065527417E+03  0.12509000000E+03 0.  0.
         25    1    3    3    0    0 -0.17892896486E+02 -0.39999201864E+01  0.95625194831E+01  0.12678763735E+03  0.12509000000E+03 0.  0.
<mgrwt>
<rscale>  2 0.45027611E+03</rscale>
<asrwt>0</asrwt>
<pdfrwt beam="1">  1       21 0.27060555E-01 0.45027611E+03</pdfrwt>
<pdfrwt beam="2">  1       21 0.40508233E-01 0.45027611E+03</pdfrwt>
<totfact> 0.70845548E+04</totfact>
</mgrwt>
</event>
<event>
 7    0  0.4750554E-002  0.4602381E+03  0.7546771E-02  0.1024712E+00
         21   -1    0    0  502  501  0.00000000000E+00  0.00000000000E+00  0.94723925278E+02  0.94723925278E+02  0.00000000000E+00 0.  1.
         21   -1    0    0  501  502 -0.00000000000E+00 -0.00000000000E+00 -0.55904341093E+03  0.55904341093E+03  0.00000000000E+00 0.  1.
      99926    2    1    2    0    0  0.00000000000E+00  0.00000000000E+00 -0.46431948565E+03  0.65376733621E+03  0.46023813959E+03 0.  0.
      99925    2    3    3    0    0  0.31787783087E+02 -0.11305141607E+03 -0.30759259814E+03  0.42138422323E+03  0.26298359516E+03 0.  0.
         25    1    4    4    0    0  0.29965589816E+02 -0.89856333942E+02 -0.20367257026E+03  0.25710332806E+03  0.12509000000E+03 0.  0.
         25    1    4    4    0    0  0.18221932707E+01 -0.23195082128E+02 -0.10392002789E+03  0.16428089517E+03  0.12509000000E+03 0.  0.
         25    1    3    3    0    0 -0.31787783087E+02  0.11305141607E+03 -0.15672688751E+03  0.23238311298E+03  0.12509000000E+03 0.  0.
<mgrwt>
<rscale>  2 0.46023814E+03</rscale>
<asrwt>0</asrwt>
<pdfrwt beam="1">  1       21 0.13929989E-01 0.46023814E+03</pdfrwt>
<pdfrwt beam="2">  1       21 0.82212268E-01 0.46023814E+03</pdfrwt>
<totfact> 0.53250314E+04</totfact>
</mgrwt>
</event>
<event>
 7    0  0.4750554E-002  0.4460657E+03  0.7546771E-02  0.1028902E+00
         21   -1    0    0  502  501  0.00000000000E+00  0.00000000000E+00  0.10504220337E+03  0.10504220337E+03  0.00000000000E+00 0. -1.
         21   -1    0    0  501  502 -0.00000000000E+00 -0.00000000000E+00 -0.47355864101E+03  0.47355864101E+03  0.00000000000E+00 0. -1.
      99926    2    1    2    0    0  0.35527136788E-14  0.00000000000E+00 -0.36851643764E+03  0.57860084438E+03  0.44606565919E+03 0.  0.
      99925    2    3    3    0    0 -0.30165260731E+02  0.23823611329E+02 -0.10767606597E+03  0.28677432913E+03  0.26299785788E+03 0.  0.
         25    1    4    4    0    0 -0.45608310448E+02  0.28094368943E+02 -0.79342259776E+02  0.15751861425E+03  0.12509000000E+03 0.  0.
         25    1    4    4    0    0  0.15443049717E+02 -0.42707576131E+01 -0.28333806193E+02  0.12925571488E+03  0.12509000000E+03 0.  0.
         25    1    3    3    0    0  0.30165260731E+02 -0.23823611329E+02 -0.26084037167E+03  0.29182651525E+03  0.12509000000E+03 0.  0.
<mgrwt>
<rscale>  2 0.44606566E+03</rscale>
<asrwt>0</asrwt>
<pdfrwt beam="1">  1       21 0.15447383E-01 0.44606566E+03</pdfrwt>
<pdfrwt beam="2">  1       21 0.69640976E-01 0.44606566E+03</pdfrwt>
<totfact> 0.64448115E+04</totfact>
</mgrwt>
</event>
<event>
 7    0  0.4750554E-002  0.4507646E+03  0.7546771E-02  0.1027494E+00
         21   -1    0    0  502  501  0.00000000000E+00  0.00000000000E+00  0.11836070865E+03  0.11836070865E+03  0.00000000000E+00 0. -1.
         21   -1    0    0  501  502 -0.00000000000E+00 -0.00000000000E+00 -0.42917263457E+03  0.42917263457E+03  0.00000000000E+00 0. -1.
      99926    2    1    2    0    0  0.00000000000E+00  0.00000000000E+00 -0.31081192592E+03  0.54753334322E+03  0.45076458229E+03 0.  0.
      99925    2    3    3    0    0  0.42587971077E+02  0.18769166600E+02 -0.31634055121E+03  0.41395156792E+03  0.26290404970E+03 0.  0.
         25    1    4    4    0    0  0.14584824565E+02  0.26080059959E+02 -0.10221138287E+03  0.16427891381E+03  0.12509000000E+03 0.  0.
         25    1    4    4    0    0  0.28003146512E+02 -0.73108933587E+01 -0.21412916833E+03  0.24967265411E+03  0.12509000000E+03 0.  0.
         25    1    3    3    0    0 -0.42587971077E+02 -0.18769166600E+02  0.55286252909E+01  0.13358177530E+03  0.12509000000E+03 0.  0.
<mgrwt>
<rscale>  2 0.45076458E+03</rscale>
<asrwt>0</asrwt>
<pdfrwt beam="1">  1       21 0.17405986E-01 0.45076458E+03</pdfrwt>
<pdfrwt beam="2">  1       21 0.63113623E-01 0.45076458E+03</pdfrwt>
<totfact> 0.64152819E+04</totfact>
</mgrwt>
</event>
<event>
 7    0  0.4750554E-002  0.4534981E+03  0.7546771E-02  0.1026684E+00
         21   -1    0    0  502  501  0.00000000000E+00  0.00000000000E+00  0.27928423609E+03  0.27928423609E+03  0.00000000000E+00 0.  1.
         21   -1    0    0  501  502 -0.00000000000E+00 -0.00000000000E+00 -0.18409606608E+03  0.18409606608E+03  0.00000000000E+00 0.  1.
      99926    2    1    2    0    0  0.00000000000E+00  0.00000000000E+00  0.95188170003E+02  0.46338030217E+03  0.45349808900E+03 0.  0.
      99925    2    3    3    0    0 -0.13711216348E+02 -0.34670164634E+02 -0.47639462433E+02  0.26989320064E+03  0.26302624128E+03 0.  0.
         25    1    4    4    0    0 -0.62440637166E+00  0.20396163201E+02 -0.80434314538E+01  0.12699841828E+03  0.12509000000E+03 0.  0.
         25    1    4    4    0    0 -0.13086809977E+02 -0.55066327835E+02 -0.39596030979E+02  0.14289478236E+03  0.12509000000E+03 0.  0.
         25    1    3    3    0    0  0.13711216348E+02  0.34670164634E+02  0.14282763244E+03  0.19348710153E+03  0.12509000000E+03 0.  0.
<mgrwt>
<rscale>  2 0.45349809E+03</rscale>
<asrwt>0</asrwt>
<pdfrwt beam="1">  1       21 0.41071211E-01 0.45349809E+03</pdfrwt>
<pdfrwt beam="2">  1       21 0.27072951E-01 0.45349809E+03</pdfrwt>
<totfact> 0.68747319E+04</totfact>
</mgrwt>
</event>
<event>
 7    0  0.4750554E-002  0.4396598E+03  0.7546771E-02  0.1030851E+00
         21   -1    0    0  502  501  0.00000000000E+00  0.00000000000E+00  0.38143181414E+03  0.38143181414E+03  0.00000000000E+00 0. -1.
         21   -1    0    0  501  502 -0.00000000000E+00 -0.00000000000E+00 -0.12669415894E+03  0.12669415894E+03  0.00000000000E+00 0. -1.
      99926    2    1    2    0    0  0.00000000000E+00  0.00000000000E+00  0.25473765520E+03  0.50812597308E+03  0.43965979068E+03 0.  0.
      99925    2    3    3    0    0  0.10369698053E+02 -0.91370791044E+02  0.20261126058E+03  0.34435533710E+03  0.26281766147E+03 0.  0.
         25    1    4    4    0    0  0.19288992356E+02 -0.53058457821E+02  0.57570078344E+02  0.14882569399E+03  0.12509000000E+03 0.  0.
         25    1    3    3    0    0 -0.10369698053E+02  0.91370791044E+02  0.52126394624E+02  0.16377063598E+03  0.12509000000E+03 0.  0.
         25    1    4    4    0    0 -0.89192943028E+01 -0.38312333224E+02  0.14504118223E+03  0.19552964310E+03  0.12509000000E+03 0.  0.
<mgrwt>
<rscale>  2 0.43965979E+03</rscale>
<asrwt>0</asrwt>
<pdfrwt beam="1">  1       21 0.56092913E-01 0.43965979E+03</pdfrwt>
<pdfrwt beam="2">  1       21 0.18631494E-01 0.43965979E+03</pdfrwt>
<totfact> 0.73216957E+04</totfact>
</mgrwt>
</event>
<event>
 7    0  0.4750554E-002  0.4475023E+03  0.7546771E-02  0.1028470E+00
         21   -1    0    0  502  501  0.00000000000E+00  0.00000000000E+00  0.89685157100E+02  0.89685157100E+02  0.00000000000E+00 0.  1.
         21   -1    0    0  501  502 -0.00000000000E+00 -0.00000000000E+00 -0.55822588565E+03  0.55822588565E+03  0.00000000000E+00 0.  1.
      99926    2    1    2    0    0  0.00000000000E+00  0.00000000000E+00 -0.46854072855E+03  0.64791104275E+03  0.44750229609E+03 0.  0.
      99925    2    3    3    0    0 -0.47785887451E+02  0.85304851806E+01 -0.43330826521E+03  0.50918435177E+03  0.26297602775E+03 0.  0.
         25    1    3    3    0    0  0.47785887451E+02 -0.85304851806E+01 -0.35232463341E+02  0.13872669098E+03  0.12509000000E+03 0.  0.
         25    1    4    4    0    0 -0.60693967247E+02 -0.27480389470E+00 -0.26049258903E+03  0.29527568511E+03  0.12509000000E+03 0.  0.
         25    1    4    4    0    0  0.12908079795E+02  0.88052890753E+01 -0.17281567618E+03  0.21390866666E+03  0.12509000000E+03 0.  0.
<mgrwt>
<rscale>  2 0.44750230E+03</rscale>
<asrwt>0</asrwt>
<pdfrwt beam="1">  1       21 0.13188994E-01 0.44750230E+03</pdfrwt>
<pdfrwt beam="2">  1       21 0.82092040E-01 0.44750230E+03</pdfrwt>
<totfact> 0.59249563E+04</totfact>
</mgrwt>
</event>
<event>
 7    0  0.4750554E-002  0.4594145E+03  0.7546771E-02  0.1024951E+00
         21   -1    0    0  502  501  0.00000000000E+00  0.00000000000E+00  0.57373635273E+02  0.57373635273E+02  0.00000000000E+00 0. -1.
         21   -1    0    0  501  502 -0.00000000000E+00 -0.00000000000E+00 -0.91968066113E+03  0.91968066113E+03  0.00000000000E+00 0. -1.
      99926    2    1    2    0    0  0.00000000000E+00 -0.17763568394E-14 -0.86230702586E+03  0.97705429641E+03  0.45941450922E+03 0.  0.
      99925    2    3    3    0    0 -0.10664981475E+03 -0.15346492932E+02 -0.63902193627E+03  0.69936123353E+03  0.26295893617E+03 0.  0.
         25    1    4    4    0    0 -0.92401230477E+02 -0.19644629143E+02 -0.31883347830E+03  0.35528325859E+03  0.12509000000E+03 0.  0.
         25    1    4    4    0    0 -0.14248584275E+02  0.42981362111E+01 -0.32018845797E+03  0.34407797495E+03  0.12509000000E+03 0.  0.
         25    1    3    3    0    0  0.10664981475E+03  0.15346492932E+02 -0.22328508959E+03  0.27769306287E+03  0.12509000000E+03 0.  0.
<mgrwt>
<rscale>  2 0.45941451E+03</rscale>
<asrwt>0</asrwt>
<pdfrwt beam="1">  1       21 0.84372992E-02 0.45941451E+03</pdfrwt>
<pdfrwt beam="2">  1       21 0.13524716E+00 0.45941451E+03</pdfrwt>
<totfact> 0.38710947E+04</totfact>
</mgrwt>
</event>
<event>
 6    0  0.4750554E-002  0.4629771E+03  0.7546771E-02  0.1023921E+00
         21   -1    0    0  502  501  0.00000000000E+00  0.00000000000E+00  0.11199679040E+04  0.11199679040E+04  0.00000000000E+00 0.  1.
         21   -1    0    0  501  502 -0.00000000000E+00 -0.00000000000E+00 -0.47846855462E+02  0.47846855462E+02  0.00000000000E+00 0.  1.
      99926    2    1    2    0    0 -0.14210854715E-13 -0.35527136788E-14  0.10721210485E+04  0.11678147595E+04  0.46297707254E+03 0.  0.
         25    1    3    3    0    0 -0.35775752705E+02 -0.45547011035E+02  0.17723069970E+03  0.22452764576E+03  0.12509000000E+03 0.  0.
         25    1    3    3    0    0 -0.36873077746E+02  0.26595287821E+02  0.26283570943E+03  0.29461339319E+03  0.12509000000E+03 0.  0.
         25    1    3    3    0    0  0.72648830451E+02  0.18951723214E+02  0.63205463942E+03  0.64867372052E+03  0.12509000000E+03 0.  0.
<mgrwt>
<rscale>  2 0.46297707E+03</rscale>
<asrwt>0</asrwt>
<pdfrwt beam="1">  1       21 0.16470115E+00 0.46297707E+03</pdfrwt>
<pdfrwt beam="2">  1       21 0.70363029E-02 0.46297707E+03</pdfrwt>
<totfact> 0.31207638E+04</totfact>
</mgrwt>
</event>
<event>
 7    0  0.4750554E-002  0.4537416E+03  0.7546771E-02  0.1026612E+00
         21   -1    0    0  502  501  0.00000000000E+00  0.00000000000E+00  0.21258244807E+03  0.21258244807E+03  0.00000000000E+00 0.  1.
         21   -1    0    0  501  502 -0.00000000000E+00 -0.00000000000E+00 -0.24211949477E+03  0.24211949477E+03  0.00000000000E+00 0.  1.
      99926    2    1    2    0    0  0.00000000000E+00  0.71054273576E-14 -0.29537046692E+02  0.45470194284E+03  0.45374157810E+03 0.  0.
      99925    2    3    3    0    0  0.84261732453E+02 -0.62730451803E+02  0.19881409258E+02  0.28404192694E+03  0.26315280102E+03 0.  0.
         25    1    4    4    0    0  0.80363384506E+02 -0.19907834928E+02  0.22832612622E+02  0.15173474144E+03  0.12509000000E+03 0.  0.
         25    1    4    4    0    0  0.38983479470E+01 -0.42822616876E+02 -0.29512033640E+01  0.13230718550E+03  0.12509000000E+03 0.  0.
         25    1    3    3    0    0 -0.84261732453E+02  0.62730451803E+02 -0.49418455950E+02  0.17066001590E+03  0.12509000000E+03 0.  0.
<mgrwt>
<rscale>  2 0.45374158E+03</rscale>
<asrwt>0</asrwt>
<pdfrwt beam="1">  1       21 0.31262125E-01 0.45374158E+03</pdfrwt>
<pdfrwt beam="2">  1       21 0.35605808E-01 0.45374158E+03</pdfrwt>
<totfact> 0.69260484E+04</totfact>
</mgrwt>
</event>
<event>
 7    0  0.4750554E-002  0.4552280E+03  0.7546771E-02  0.1026174E+00
         21   -1    0    0  502  501  0.00000000000E+00  0.00000000000E+00  0.27573245110E+03  0.27573245110E+03  0.00000000000E+00 0.  1.
         21   -1    0    0  501  502 -0.00000000000E+00 -0.00000000000E+00 -0.18789273333E+03  0.18789273333E+03  0.00000000000E+00 0.  1.
      99926    2    1    2    0    0  0.00000000000E+00  0.00000000000E+00  0.87839717766E+02  0.46362518443E+03  0.45522796006E+03 0.  0.
      99925    2    3    3    0    0 -0.13403982767E+02 -0.47812881811E+02 -0.48635631796E+02  0.27195158802E+03  0.26291919505E+03 0.  0.
         25    1    4    4    0    0  0.19404372176E+02 -0.19207133486E+02  0.71530867096E+01  0.12823462241E+03  0.12509000000E+03 0.  0.
         25    1    4    4    0    0 -0.32808354943E+02 -0.28605748325E+02 -0.55788718506E+02  0.14371696561E+03  0.12509000000E+03 0.  0.
         25    1    3    3    0    0  0.13403982767E+02  0.47812881811E+02  0.13647534956E+03  0.19167359641E+03  0.12509000000E+03 0.  0.
<mgrwt>
<rscale>  2 0.45522796E+03</rscale>
<asrwt>0</asrwt>
<pdfrwt beam="1">  1       21 0.40548890E-01 0.45522796E+03</pdfrwt>
<pdfrwt beam="2">  1       21 0.27631284E-01 0.45522796E+03</pdfrwt>
<totfact> 0.67789441E+04</totfact>
</mgrwt>
</event>
<event>
 7    0  0.4750554E-002  0.4530283E+03  0.7546771E-02  0.1026823E+00
         21   -1    0    0  502  501  0.00000000000E+00  0.00000000000E+00  0.18817239605E+03  0.18817239605E+03  0.00000000000E+00 0.  1.
         21   -1    0    0  501  502 -0.00000000000E+00 -0.00000000000E+00 -0.27266842550E+03  0.27266842550E+03  0.00000000000E+00 0.  1.
      99926    2    1    2    0    0  0.00000000000E+00  0.00000000000E+00 -0.84496029448E+02  0.46084082156E+03  0.45302834770E+03 0.  0.
      99925    2    3    3    0    0 -0.10048042945E+03 -0.22402986617E+02 -0.96207800931E+02  0.29841273223E+03  0.26305133963E+03 0.  0.
         25    1    4    4    0    0 -0.82354946204E+02 -0.91560110704E+01 -0.80730470167E+02  0.17038511266E+03  0.12509000000E+03 0.  0.
         25    1    3    3    0    0  0.10048042945E+03  0.22402986617E+02  0.11711771483E+02  0.16242808933E+03  0.12509000000E+03 0.  0.
         25    1    4    4    0    0 -0.18125483247E+02 -0.13246975547E+02 -0.15477330765E+02  0.12802761957E+03  0.12509000000E+03 0.  0.
<mgrwt>
<rscale>  2 0.45302835E+03</rscale>
<asrwt>0</asrwt>
<pdfrwt beam="1">  1       21 0.27672411E-01 0.45302835E+03</pdfrwt>
<pdfrwt beam="2">  1       21 0.40098298E-01 0.45302835E+03</pdfrwt>
<totfact> 0.69198233E+04</totfact>
</mgrwt>
</event>
<event>
 7    0  0.4750554E-002  0.4546547E+03  0.7546771E-02  0.1026343E+00
         21   -1    0    0  502  501  0.00000000000E+00  0.00000000000E+00  0.15847442347E+03  0.15847442347E+03  0.00000000000E+00 0. -1.
         21   -1    0    0  501  502 -0.00000000000E+00 -0.00000000000E+00 -0.32609509836E+03  0.32609509836E+03  0.00000000000E+00 0. -1.
      99926    2    1    2    0    0  0.00000000000E+00  0.00000000000E+00 -0.16762067489E+03  0.48456952184E+03  0.45465473806E+03 0.  0.
      99925    2    3    3    0    0 -0.32408625548E+02 -0.90343169077E+02 -0.16855631750E+03  0.32689710594E+03  0.26313167520E+03 0.  0.
         25    1    4    4    0    0 -0.24351920553E+02 -0.60515236369E+02 -0.13141462315E+03  0.19280150711E+03  0.12509000000E+03 0.  0.
         25    1    3    3    0    0  0.32408625548E+02  0.90343169077E+02  0.93564260998E+00  0.15767241590E+03  0.12509000000E+03 0.  0.
         25    1    4    4    0    0 -0.80567049943E+01 -0.29827932708E+02 -0.37141694351E+02  0.13409559883E+03  0.12509000000E+03 0.  0.
<mgrwt>
<rscale>  2 0.45465474E+03</rscale>
<asrwt>0</asrwt>
<pdfrwt beam="1">  1       21 0.23305063E-01 0.45465474E+03</pdfrwt>
<pdfrwt beam="2">  1       21 0.47955161E-01 0.45465474E+03</pdfrwt>
<totfact> 0.66551168E+04</totfact>
</mgrwt>
</event>
<event>
 7    0  0.4750554E-002  0.4568064E+03  0.7546771E-02  0.1025712E+00
         21   -1    0    0  502  501  0.00000000000E+00  0.00000000000E+00  0.12157536079E+03  0.12157536079E+03  0.00000000000E+00 0. -1.
         21   -1    0    0  501  502 -0.00000000000E+00 -0.00000000000E+00 -0.42910035212E+03  0.42910035212E+03  0.00000000000E+00 0. -1.
      99926    2    1    2    0    0 -0.88817841970E-15  0.00000000000E+00 -0.30752499133E+03  0.55067571291E+03  0.45680643658E+03 0.  0.
      99925    2    3    3    0    0  0.37992464795E+01 -0.10204603795E+03 -0.25661096174E+03  0.38136069691E+03  0.26298092578E+03 0.  0.
         25    1    4    4    0    0 -0.27449237964E+02 -0.70402092370E+02 -0.10567522348E+03  0.18034599034E+03  0.12509000000E+03 0.  0.
         25    1    3    3    0    0 -0.37992464795E+01  0.10204603795E+03 -0.50914029590E+02  0.16931501601E+03  0.12509000000E+03 0.  0.
         25    1    4    4    0    0  0.31248484444E+02 -0.31643945585E+02 -0.15093573826E+03  0.20101470656E+03  0.12509000000E+03 0.  0.
<mgrwt>
<rscale>  2 0.45680644E+03</rscale>
<asrwt>0</asrwt>
<pdfrwt beam="1">  1       21 0.17878730E-01 0.45680644E+03</pdfrwt>
<pdfrwt beam="2">  1       21 0.63102991E-01 0.45680644E+03</pdfrwt>
<totfact> 0.60946149E+04</totfact>
</mgrwt>
</event>
<event>
 7    0  0.4750554E-002  0.4566955E+03  0.7546771E-02  0.1025744E+00
         21   -1    0    0  502  501  0.00000000000E+00  0.00000000000E+00  0.73856683265E+02  0.73856683265E+02  0.00000000000E+00 0.  1.
         21   -1    0    0  501  502 -0.00000000000E+00 -0.00000000000E+00 -0.70599836374E+03  0.70599836374E+03  0.00000000000E+00 0.  1.
      99926    2    1    2    0    0 -0.14210854715E-13  0.00000000000E+00 -0.63214168047E+03  0.77985504700E+03  0.45669551141E+03 0.  0.
      99925    2    3    3    0    0 -0.79082651405E+02  0.78822475872E+02 -0.44275609924E+03  0.52690948975E+03  0.26293268818E+03 0.  0.
         25    1    3    3    0    0  0.79082651405E+02 -0.78822475872E+02 -0.18938558123E+03  0.25294555725E+03  0.12509000000E+03 0.  0.
         25    1    4    4    0    0 -0.64662595020E+02  0.20188314167E+02 -0.17734479346E+03  0.22734885768E+03  0.12509000000E+03 0.  0.
         25    1    4    4    0    0 -0.14420056385E+02  0.58634161705E+02 -0.26541130579E+03  0.29956063207E+03  0.12509000000E+03 0.  0.
<mgrwt>
<rscale>  2 0.45669551E+03</rscale>
<asrwt>0</asrwt>
<pdfrwt beam="1">  1       21 0.10861277E-01 0.45669551E+03</pdfrwt>
<pdfrwt beam="2">  1       21 0.10382329E+00 0.45669551E+03</pdfrwt>
<totfact> 0.48111186E+04</totfact>
</mgrwt>
</event>
<event>
 7    0  0.4750554E-002  0.4568569E+03  0.7546771E-02  0.1025697E+00
         21   -1    0    0  502  501  0.00000000000E+00  0.00000000000E+00  0.21239098455E+03  0.21239098455E+03  0.00000000000E+00 0.  1.
         21   -1    0    0  501  502 -0.00000000000E+00 -0.00000000000E+00 -0.24567687797E+03  0.24567687797E+03  0.00000000000E+00 0.  1.
      99926    2    1    2    0    0  0.00000000000E+00  0.00000000000E+00 -0.33285893418E+02  0.45806786252E+03  0.45685688785E+03 0.  0.
      99925    2    3    3    0    0 -0.68181696399E+01 -0.67415291515E+02 -0.11396737425E+03  0.29451873101E+03  0.26298557291E+03 0.  0.
         25    1    4    4    0    0  0.39715952197E+01 -0.62599827443E+02 -0.90636161871E+02  0.16672412514E+03  0.12509000000E+03 0.  0.
         25    1    4    4    0    0 -0.10789764860E+02 -0.48154640719E+01 -0.23331212380E+02  0.12779460588E+03  0.12509000000E+03 0.  0.
         25    1    3    3    0    0  0.68181696399E+01  0.67415291515E+02  0.80681480833E+02  0.16354913151E+03  0.12509000000E+03 0.  0.
<mgrwt>
<rscale>  2 0.45685689E+03</rscale>
<asrwt>0</asrwt>
<pdfrwt beam="1">  1       21 0.31233968E-01 0.45685689E+03</pdfrwt>
<pdfrwt beam="2">  1       21 0.36128952E-01 0.45685689E+03</pdfrwt>
<totfact> 0.67318749E+04</totfact>
</mgrwt>
</event>
<event>
 7    0  0.4750554E-002  0.4542785E+03  0.7546771E-02  0.1026454E+00
         21   -1    0    0  502  501  0.00000000000E+00  0.00000000000E+00  0.21694664843E+03  0.21694664843E+03  0.00000000000E+00 0.  1.
         21   -1    0    0  501  502 -0.00000000000E+00 -0.00000000000E+00 -0.23781070056E+03  0.23781070056E+03  0.00000000000E+00 0.  1.
      99926    2    1    2    0    0  0.00000000000E+00 -0.39968028887E-14 -0.20864052138E+02  0.45475734899E+03  0.45427848044E+03 0.  0.
      99925    2    3    3    0    0  0.10247050635E+03  0.20286765047E+01  0.33245790621E+02  0.28422962871E+03  0.26301497874E+03 0.  0.
         25    1    4    4    0    0  0.67354786111E+02  0.35692932062E+02  0.23561126261E+01  0.14650498960E+03  0.12509000000E+03 0.  0.
         25    1    4    4    0    0  0.35115720243E+02 -0.33664255557E+02  0.30889677995E+02  0.13772463911E+03  0.12509000000E+03 0.  0.
         25    1    3    3    0    0 -0.10247050635E+03 -0.20286765047E+01 -0.54109842758E+02  0.17052772028E+03  0.12509000000E+03 0.  0.
<mgrwt>
<rscale>  2 0.45427848E+03</rscale>
<asrwt>0</asrwt>
<pdfrwt beam="1">  1       21 0.31903919E-01 0.45427848E+03</pdfrwt>
<pdfrwt beam="2">  1       21 0.34972162E-01 0.45427848E+03</pdfrwt>
<totfact> 0.68959738E+04</totfact>
</mgrwt>
</event>
<event>
 7    0  0.4750554E-002  0.4623360E+03  0.7546771E-02  0.1024106E+00
         21   -1    0    0  502  501  0.00000000000E+00  0.00000000000E+00  0.86280488019E+02  0.86280488019E+02  0.00000000000E+00 0.  1.
         21   -1    0    0  501  502 -0.00000000000E+00 -0.00000000000E+00 -0.61935968038E+03  0.61935968038E+03  0.00000000000E+00 0.  1.
      99926    2    1    2    0    0  0.14210854715E-13  0.14210854715E-13 -0.53307919236E+03  0.70564016840E+03  0.46233604870E+03 0.  0.
      99925    2    3    3    0    0  0.95345553374E+02  0.70047904687E+02 -0.30398560037E+03  0.41905882656E+03  0.26306951816E+03 0.  0.
         25    1    4    4    0    0  0.63411192492E+02  0.64479319111E+02 -0.12681789987E+03  0.19977199442E+03  0.12509000000E+03 0.  0.
         25    1    4    4    0    0  0.31934360881E+02  0.55685855761E+01 -0.17716770050E+03  0.21928683214E+03  0.12509000000E+03 0.  0.
         25    1    3    3    0    0 -0.95345553374E+02 -0.70047904687E+02 -0.22909359199E+03  0.28658134184E+03  0.12509000000E+03 0.  0.
<mgrwt>
<rscale>  2 0.46233605E+03</rscale>
<asrwt>0</asrwt>
<pdfrwt beam="1">  1       21 0.12688308E-01 0.46233605E+03</pdfrwt>
<pdfrwt beam="2">  1       21 0.91082303E-01 0.46233605E+03</pdfrwt>
<totfact> 0.49667979E+04</totfact>
</mgrwt>
</event>
<event>
 7    0  0.4750554E-002  0.4495758E+03  0.7546771E-02  0.1027849E+00
         21   -1    0    0  502  501  0.00000000000E+00  0.00000000000E+00  0.11215453510E+03  0.11215453510E+03  0.00000000000E+00 0.  1.
         21   -1    0    0  501  502 -0.00000000000E+00 -0.00000000000E+00 -0.45053556727E+03  0.45053556727E+03  0.00000000000E+00 0.  1.
      99926    2    1    2    0    0 -0.14210854715E-13  0.00000000000E+00 -0.33838103217E+03  0.56269010237E+03  0.44957583161E+03 0.  0.
      99925    2    3    3    0    0  0.66436143209E+02 -0.83557495247E+02 -0.23429626887E+03  0.36807057049E+03  0.26303153256E+03 0.  0.
         25    1    3    3    0    0 -0.66436143209E+02  0.83557495247E+02 -0.10408476330E+03  0.19461953188E+03  0.12509000000E+03 0.  0.
         25    1    4    4    0    0  0.27394227935E+01 -0.68615987250E+02 -0.11708169727E+03  0.18458410029E+03  0.12509000000E+03 0.  0.
         25    1    4    4    0    0  0.63696720415E+02 -0.14941507997E+02 -0.11721457160E+03  0.18348647020E+03  0.12509000000E+03 0.  0.
<mgrwt>
<rscale>  2 0.44957583E+03</rscale>
<asrwt>0</asrwt>
<pdfrwt beam="1">  1       21 0.16493314E-01 0.44957583E+03</pdfrwt>
<pdfrwt beam="2">  1       21 0.66255231E-01 0.44957583E+03</pdfrwt>
<totfact> 0.63725867E+04</totfact>
</mgrwt>
</event>
<event>
 7    0  0.4750554E-002  0.4499051E+03  0.7546771E-02  0.1027750E+00
         21   -1    0    0  502  501  0.00000000000E+00  0.00000000000E+00  0.33132863936E+02  0.33132863936E+02  0.00000000000E+00 0.  1.
         21   -1    0    0  501  502 -0.00000000000E+00 -0.00000000000E+00 -0.15272950513E+04  0.15272950513E+04  0.00000000000E+00 0.  1.
      99926    2    1    2    0    0  0.35527136788E-14  0.00000000000E+00 -0.14941621874E+04  0.15604279153E+04  0.44990514167E+03 0.  0.
      99925    2    3    3    0    0  0.29487593316E+02  0.10218427430E+03 -0.87512951597E+03  0.91999048626E+03  0.26309633411E+03 0.  0.
         25    1    3    3    0    0 -0.29487593316E+02 -0.10218427430E+03 -0.61903267142E+03  0.64043742899E+03  0.12509000000E+03 0.  0.
         25    1    4    4    0    0 -0.24403630831E+02  0.45175252911E+02 -0.38172862496E+03  0.40496986541E+03  0.12509000000E+03 0.  0.
         25    1    4    4    0    0  0.53891224147E+02  0.57009021393E+02 -0.49340089100E+03  0.51502062085E+03  0.12509000000E+03 0.  0.
<mgrwt>
<rscale>  2 0.44990514E+03</rscale>
<asrwt>0</asrwt>
<pdfrwt beam="1">  1       21 0.48724811E-02 0.44990514E+03</pdfrwt>
<pdfrwt beam="2">  1       21 0.22460216E+00 0.44990514E+03</pdfrwt>
<totfact> 0.23242411E+04</totfact>
</mgrwt>
</event>
<event>
 7    0  0.4750554E-002  0.4593140E+03  0.7546771E-02  0.1024980E+00
         21   -1    0    0  502  501  0.00000000000E+00  0.00000000000E+00  0.11026852790E+03  0.11026852790E+03  0.00000000000E+00 0. -1.
         21   -1    0    0  501  502 -0.00000000000E+00 -0.00000000000E+00 -0.47830826608E+03  0.47830826608E+03  0.00000000000E+00 0. -1.
      99926    2    1    2    0    0  0.00000000000E+00 -0.35527136788E-14 -0.36803973817E+03  0.58857679398E+03  0.45931404675E+03 0.  0.
      99925    2    3    3    0    0 -0.80569520246E+02 -0.29389169661E+02 -0.33302430560E+03  0.43292089302E+03  0.26298315650E+03 0.  0.
         25    1    4    4    0    0 -0.85868494811E+01 -0.36556330572E+02 -0.13564401597E+03  0.18830004370E+03  0.12509000000E+03 0.  0.
         25    1    3    3    0    0  0.80569520246E+02  0.29389169661E+02 -0.35015432567E+02  0.15565590096E+03  0.12509000000E+03 0.  0.
         25    1    4    4    0    0 -0.71982670765E+02  0.71671609115E+01 -0.19738028963E+03  0.24462084932E+03  0.12509000000E+03 0.  0.
<mgrwt>
<rscale>  2 0.45931405E+03</rscale>
<asrwt>0</asrwt>
<pdfrwt beam="1">  1       21 0.16215960E-01 0.45931405E+03</pdfrwt>
<pdfrwt beam="2">  1       21 0.70339451E-01 0.45931405E+03</pdfrwt>
<totfact> 0.57404396E+04</totfact>
</mgrwt>
</event>
<event>
 7    0  0.4750554E-002  0.4544667E+03  0.7546771E-02  0.1026398E+00
         21   -1    0    0  502  501  0.00000000000E+00  0.00000000000E+00  0.17593798260E+04  0.17593798260E+04  0.00000000000E+00 0. -1.
         21   -1    0    0  501  502 -0.00000000000E+00 -0.00000000000E+00 -0.29348402026E+02  0.29348402026E+02  0.00000000000E+00 0. -1.
      99926    2    1    2    0    0  0.00000000000E+00 -0.17763568394E-14  0.17300314240E+04  0.17887282281E+04  0.45446666083E+03 0.  0.
      99925    2    3    3    0    0  0.10959070923E+03 -0.15779351492E+02  0.10179083125E+04  0.10572735503E+04  0.26349746897E+03 0.  0.
         25    1    3    3    0    0 -0.10959070923E+03  0.15779351492E+02  0.71212311155E+03  0.73145467774E+03  0.12509000000E+03 0.  0.
         25    1    4    4    0    0  0.14712837084E+02 -0.13322962228E+02  0.51948278203E+03  0.53469976419E+03  0.12509000000E+03 0.  0.
         25    1    4    4    0    0  0.94877872142E+02 -0.24563892634E+01  0.49842553043E+03  0.52257378613E+03  0.12509000000E+03 0.  0.
<mgrwt>
<rscale>  2 0.45446666E+03</rscale>
<asrwt>0</asrwt>
<pdfrwt beam="1">  1       21 0.25873226E+00 0.45446666E+03</pdfrwt>
<pdfrwt beam="2">  1       21 0.43159427E-02 0.45446666E+03</pdfrwt>
<totfact> 0.17549595E+04</totfact>
</mgrwt>
</event>
<event>
 6    0  0.4750554E-002  0.4393982E+03  0.7546771E-02  0.1030932E+00
         21   -1    0    0  502  501  0.00000000000E+00  0.00000000000E+00  0.59447920524E+02  0.59447920524E+02  0.00000000000E+00 0. -1.
         21   -1    0    0  501  502 -0.00000000000E+00 -0.00000000000E+00 -0.81193259013E+03  0.81193259013E+03  0.00000000000E+00 0. -1.
      99926    2    1    2    0    0  0.71054273576E-14  0.14210854715E-13 -0.75248466961E+03  0.87138051066E+03  0.43939824346E+03 0.  0.
         25    1    3    3    0    0 -0.59199249423E+02 -0.51419784152E+02 -0.29825435396E+03  0.33279379966E+03  0.12509000000E+03 0.  0.
         25    1    3    3    0    0  0.25116405772E+02 -0.36164236761E+02 -0.22108815627E+03  0.25781033106E+03  0.12509000000E+03 0.  0.
         25    1    3    3    0    0  0.34082843651E+02  0.87584020912E+02 -0.23314215938E+03  0.28077637993E+03  0.12509000000E+03 0.  0.
<mgrwt>
<rscale>  2 0.43939824E+03</rscale>
<asrwt>0</asrwt>
<pdfrwt beam="1">  1       21 0.87423411E-02 0.43939824E+03</pdfrwt>
<pdfrwt beam="2">  1       21 0.11940185E+00 0.43939824E+03</pdfrwt>
<totfact> 0.50373019E+04</totfact>
</mgrwt>
</event>
<event>
 7    0  0.4750554E-002  0.4576145E+03  0.7546771E-02  0.1025475E+00
         21   -1    0    0  502  501  0.00000000000E+00  0.00000000000E+00  0.42646159954E+02  0.42646159954E+02  0.00000000000E+00 0.  1.
         21   -1    0    0  501  502 -0.00000000000E+00 -0.00000000000E+00 -0.12276079615E+04  0.12276079615E+04  0.00000000000E+00 0.  1.
      99926    2    1    2    0    0  0.00000000000E+00  0.14210854715E-13 -0.11849618015E+04  0.12702541214E+04  0.45761453423E+03 0.  0.
      99925    2    3    3    0    0  0.64389114901E+02  0.87569699202E+02 -0.63520433947E+03  0.69606322502E+03  0.26306852721E+03 0.  0.
         25    1    4    4    0    0  0.18996307820E+02  0.74240283916E+02 -0.39138794342E+03  0.41797668574E+03  0.12509000000E+03 0.  0.
         25    1    4    4    0    0  0.45392807080E+02  0.13329415286E+02 -0.24381639604E+03  0.27808653928E+03  0.12509000000E+03 0.  0.
         25    1    3    3    0    0 -0.64389114901E+02 -0.87569699202E+02 -0.54975746204E+03  0.57419089639E+03  0.12509000000E+03 0.  0.
<mgrwt>
<rscale>  2 0.45761453E+03</rscale>
<asrwt>0</asrwt>
<pdfrwt beam="1">  1       21 0.62714935E-02 0.45761453E+03</pdfrwt>
<pdfrwt beam="2">  1       21 0.18053060E+00 0.45761453E+03</pdfrwt>
<totfact> 0.29388386E+04</totfact>
</mgrwt>
</event>
<event>
 7    0  0.4750554E-002  0.4539732E+03  0.7546771E-02  0.1026544E+00
         21   -1    0    0  502  501  0.00000000000E+00  0.00000000000E+00  0.66797123759E+03  0.66797123759E+03  0.00000000000E+00 0. -1.
         21   -1    0    0  501  502 -0.00000000000E+00 -0.00000000000E+00 -0.77133446110E+02  0.77133446110E+02  0.00000000000E+00 0. -1.
      99926    2    1    2    0    0 -0.35527136788E-14  0.35527136788E-14  0.59083779148E+03  0.74510468370E+03  0.45397323030E+03 0.  0.
      99925    2    3    3    0    0 -0.29624430055E+02  0.21825442861E+02  0.54632837492E+03  0.60732749737E+03  0.26271284514E+03 0.  0.
         25    1    3    3    0    0  0.29624430055E+02 -0.21825442861E+02  0.44509416558E+02  0.13777718634E+03  0.12509000000E+03 0.  0.
         25    1    4    4    0    0  0.17974286103E+02 -0.12369723897E+02  0.25116816703E+03  0.28144100849E+03  0.12509000000E+03 0.  0.
         25    1    4    4    0    0 -0.47598716158E+02  0.34195166757E+02  0.29516020789E+03  0.32588648888E+03  0.12509000000E+03 0.  0.
<mgrwt>
<rscale>  2 0.45397323E+03</rscale>
<asrwt>0</asrwt>
<pdfrwt beam="1">  1       21 0.98231061E-01 0.45397323E+03</pdfrwt>
<pdfrwt beam="2">  1       21 0.11343154E-01 0.45397323E+03</pdfrwt>
<totfact> 0.50931347E+04</totfact>
</mgrwt>
</event>
<event>
 7    0  0.4750554E-002  0.4643208E+03  0.7546771E-02  0.1023535E+00
         21   -1    0    0  502  501  0.00000000000E+00  0.00000000000E+00  0.34170673864E+03  0.34170673864E+03  0.00000000000E+00 0.  1.
         21   -1    0    0  501  502 -0.00000000000E+00 -0.00000000000E+00 -0.15773309928E+03  0.15773309928E+03  0.00000000000E+00 0.  1.
      99926    2    1    2    0    0 -0.17763568394E-14 -0.14210854715E-13  0.18397363936E+03  0.49943983793E+03  0.46432084998E+03 0.  0.
      99925    2    3    3    0    0 -0.14884872893E+02 -0.10567013247E+03  0.51757448500E+02  0.28845082029E+03  0.26293973818E+03 0.  0.
         25    1    4    4    0    0  0.33211984413E+01 -0.91898180816E+02  0.42459673948E+02  0.16095539136E+03  0.12509000000E+03 0.  0.
         25    1    4    4    0    0 -0.18206071335E+02 -0.13771951655E+02  0.92977745524E+01  0.12749542893E+03  0.12509000000E+03 0.  0.
         25    1    3    3    0    0  0.14884872893E+02  0.10567013247E+03  0.13221619086E+03  0.21098901764E+03  0.12509000000E+03 0.  0.
<mgrwt>
<rscale>  2 0.46432085E+03</rscale>
<asrwt>0</asrwt>
<pdfrwt beam="1">  1       21 0.50250991E-01 0.46432085E+03</pdfrwt>
<pdfrwt beam="2">  1       21 0.23196044E-01 0.46432085E+03</pdfrwt>
<totfact> 0.60693241E+04</totfact>
</mgrwt>
</event>
<event>
 7    0  0.4750554E-002  0.4347202E+03  0.7546771E-02  0.1032379E+00
         21   -1    0    0  502  501  0.00000000000E+00  0.00000000000E+00  0.39256289665E+02  0.39256289665E+02  0.00000000000E+00 0. -1.
         21   -1    0    0  501  502 -0.00000000000E+00 -0.00000000000E+00 -0.12035117338E+04  0.12035117338E+04  0.00000000000E+00 0. -1.
      99926    2    1    2    0    0  0.71054273576E-14  0.35527136788E-14 -0.11642554441E+04  0.12427680235E+04  0.43472016396E+03 0.  0.
      99925    2    3    3    0    0 -0.33051185606E+02 -0.17109221610E+02 -0.50320139188E+03  0.56895419574E+03  0.26289185937E+03 0.  0.
         25    1    4    4    0    0 -0.35890348643E+02  0.16692146457E+02 -0.19978343390E+03  0.23901396076E+03  0.12509000000E+03 0.  0.
         25    1    3    3    0    0  0.33051185606E+02  0.17109221610E+02 -0.66105405227E+03  0.67381382774E+03  0.12509000000E+03 0.  0.
         25    1    4    4    0    0  0.28391630365E+01 -0.33801368067E+02 -0.30341795798E+03  0.32994023497E+03  0.12509000000E+03 0.  0.
<mgrwt>
<rscale>  2 0.43472016E+03</rscale>
<asrwt>0</asrwt>
<pdfrwt beam="1">  1       21 0.57729841E-02 0.43472016E+03</pdfrwt>
<pdfrwt beam="2">  1       21 0.17698701E+00 0.43472016E+03</pdfrwt>
<totfact> 0.36209197E+04</totfact>
</mgrwt>
</event>
<event>
 7    0  0.4750554E-002  0.4501490E+03  0.7546771E-02  0.1027678E+00
         21   -1    0    0  502  501  0.00000000000E+00  0.00000000000E+00  0.19609569246E+03  0.19609569246E+03  0.00000000000E+00 0. -1.
         21   -1    0    0  501  502 -0.00000000000E+00 -0.00000000000E+00 -0.25833581473E+03  0.25833581473E+03  0.00000000000E+00 0. -1.
      99926    2    1    2    0    0  0.00000000000E+00 -0.17763568394E-14 -0.62240122274E+02  0.45443150719E+03  0.45014904410E+03 0.  0.
      99925    2    3    3    0    0 -0.96358816853E+02  0.83516155738E+01 -0.89374597970E+02  0.29399909482E+03  0.26285524138E+03 0.  0.
         25    1    3    3    0    0  0.96358816853E+02 -0.83516155738E+01  0.27134475697E+02  0.16043241237E+03  0.12509000000E+03 0.  0.
         25    1    4    4    0    0 -0.45848913766E+02  0.41778418993E+02 -0.29707965400E+02  0.14275023816E+03  0.12509000000E+03 0.  0.
         25    1    4    4    0    0 -0.50509903086E+02 -0.33426803419E+02 -0.59666632570E+02  0.15124885665E+03  0.12509000000E+03 0.  0.
<mgrwt>
<rscale>  2 0.45014904E+03</rscale>
<asrwt>0</asrwt>
<pdfrwt beam="1">  1       21 0.28837602E-01 0.45014904E+03</pdfrwt>
<pdfrwt beam="2">  1       21 0.37990561E-01 0.45014904E+03</pdfrwt>
<totfact> 0.71307171E+04</totfact>
</mgrwt>
</event>
<event>
 7    0  0.4750554E-002  0.4495983E+03  0.7546771E-02  0.1027842E+00
         21   -1    0    0  502  501  0.00000000000E+00  0.00000000000E+00  0.13515853127E+04  0.13515853127E+04  0.00000000000E+00 0. -1.
         21   -1    0    0  501  502 -0.00000000000E+00 -0.00000000000E+00 -0.37389176299E+02  0.37389176299E+02  0.00000000000E+00 0. -1.
      99926    2    1    2    0    0  0.00000000000E+00  0.00000000000E+00  0.13141961364E+04  0.13889744890E+04  0.44959831645E+03 0.  0.
      99925    2    3    3    0    0 -0.17582970663E+02  0.88843983260E+02  0.64900498032E+03  0.70609148551E+03  0.26297396681E+03 0.  0.
         25    1    3    3    0    0  0.17582970663E+02 -0.88843983260E+02  0.66519115606E+03  0.68288300346E+03  0.12509000000E+03 0.  0.
         25    1    4    4    0    0 -0.18421453459E+02  0.72864033108E+02  0.42042053751E+03  0.44502747525E+03  0.12509000000E+03 0.  0.
         25    1    4    4    0    0  0.83848279602E+00  0.15979950152E+02  0.22858444281E+03  0.26106401026E+03  0.12509000000E+03 0.  0.
<mgrwt>
<rscale>  2 0.44959832E+03</rscale>
<asrwt>0</asrwt>
<pdfrwt beam="1">  1       21 0.19876251E+00 0.44959832E+03</pdfrwt>
<pdfrwt beam="2">  1       21 0.54984092E-02 0.44959832E+03</pdfrwt>
<totfact> 0.27775133E+04</totfact>
</mgrwt>
</event>
<event>
 7    0  0.4750554E-002  0.4556550E+03  0.7546771E-02  0.1026049E+00
         21   -1    0    0  502  501  0.00000000000E+00  0.00000000000E+00  0.13138625877E+04  0.13138625877E+04  0.00000000000E+00 0. -1.
         21   -1    0    0  501  502 -0.00000000000E+00 -0.00000000000E+00 -0.39505931364E+02  0.39505931364E+02  0.00000000000E+00 0. -1.
      99926    2    1    2    0    0  0.00000000000E+00  0.00000000000E+00  0.12743566563E+04  0.13533685190E+04  0.45565498004E+03 0.  0.
      99925    2    3    3    0    0 -0.10258096337E+03  0.48846924860E+02  0.81071486918E+03  0.85989097042E+03  0.26314445802E+03 0.  0.
         25    1    4    4    0    0 -0.13268176158E+02  0.24332522021E+02  0.42709706749E+03  0.44590080655E+03  0.12509000000E+03 0.  0.
         25    1    3    3    0    0  0.10258096337E+03 -0.48846924860E+02  0.46364178713E+03  0.49347754862E+03  0.12509000000E+03 0.  0.
         25    1    4    4    0    0 -0.89312787213E+02  0.24514402838E+02  0.38361780169E+03  0.41399016387E+03  0.12509000000E+03 0.  0.
<mgrwt>
<rscale>  2 0.45565498E+03</rscale>
<asrwt>0</asrwt>
<pdfrwt beam="1">  1       21 0.19321506E+00 0.45565498E+03</pdfrwt>
<pdfrwt beam="2">  1       21 0.58096966E-02 0.45565498E+03</pdfrwt>
<totfact> 0.27461499E+04</totfact>
</mgrwt>
</event>
<event>
 7    0  0.4750554E-002  0.4573283E+03  0.7546771E-02  0.1025559E+00
         21   -1    0    0  502  501  0.00000000000E+00  0.00000000000E+00  0.31618739531E+03  0.31618739531E+03  0.00000000000E+00 0.  1.
         21   -1    0    0  501  502 -0.00000000000E+00 -0.00000000000E+00 -0.16536807359E+03  0.16536807359E+03  0.00000000000E+00 0.  1.
      99926    2    1    2    0    0  0.00000000000E+00  0.14210854715E-13  0.15081932172E+03  0.48155546891E+03  0.45732833045E+03 0.  0.
      99925    2    3    3    0    0  0.31807239102E+02 -0.10242535625E+03  0.13940193448E+03  0.31638731552E+03  0.26299311782E+03 0.  0.
         25    1    3    3    0    0 -0.31807239102E+02  0.10242535625E+03  0.11417387245E+02  0.16516815339E+03  0.12509000000E+03 0.  0.
         25    1    4    4    0    0 -0.19230478127E+02 -0.65217408868E+02  0.86565144095E+02  0.16662579026E+03  0.12509000000E+03 0.  0.
         25    1    4    4    0    0  0.51037717229E+02 -0.37207947383E+02  0.52836790383E+02  0.14976152525E+03  0.12509000000E+03 0.  0.
<mgrwt>
<rscale>  2 0.45732833E+03</rscale>
<asrwt>0</asrwt>
<pdfrwt beam="1">  1       21 0.46498146E-01 0.45732833E+03</pdfrwt>
<pdfrwt beam="2">  1       21 0.24318834E-01 0.45732833E+03</pdfrwt>
<totfact> 0.65370546E+04</totfact>
</mgrwt>
</event>
<event>
 7    0  0.4750554E-002  0.4548424E+03  0.7546771E-02  0.1026288E+00
         21   -1    0    0  502  501  0.00000000000E+00  0.00000000000E+00  0.91931540059E+02  0.91931540059E+02  0.00000000000E+00 0.  1.
         21   -1    0    0  501  502 -0.00000000000E+00 -0.00000000000E+00 -0.56259695767E+03  0.56259695767E+03  0.00000000000E+00 0.  1.
      99926    2    1    2    0    0  0.00000000000E+00  0.00000000000E+00 -0.47066541761E+03  0.65452849772E+03  0.45484241117E+03 0.  0.
      99925    2    3    3    0    0  0.44871832997E+02 -0.87870563105E+02 -0.21708439379E+03  0.35505302127E+03  0.26306329396E+03 0.  0.
         25    1    4    4    0    0  0.42262228099E+02 -0.41189864402E+02 -0.65507220595E+02  0.15304053353E+03  0.12509000000E+03 0.  0.
         25    1    3    3    0    0 -0.44871832997E+02  0.87870563105E+02 -0.25358102382E+03  0.29947547645E+03  0.12509000000E+03 0.  0.
         25    1    4    4    0    0  0.26096048979E+01 -0.46680698703E+02 -0.15157717320E+03  0.20201248774E+03  0.12509000000E+03 0.  0.
<mgrwt>
<rscale>  2 0.45484241E+03</rscale>
<asrwt>0</asrwt>
<pdfrwt beam="1">  1       21 0.13519344E-01 0.45484241E+03</pdfrwt>
<pdfrwt beam="2">  1       21 0.82734849E-01 0.45484241E+03</pdfrwt>
<totfact> 0.55510327E+04</totfact>
</mgrwt>
</event>
<event>
 7    0  0.4750554E-002  0.4552833E+03  0.7546771E-02  0.1026158E+00
         21   -1    0    0  502  501  0.00000000000E+00  0.00000000000E+00  0.10132457056E+03  0.10132457056E+03  0.00000000000E+00 0. -1.
         21   -1    0    0  501  502 -0.00000000000E+00 -0.00000000000E+00 -0.51143287498E+03  0.51143287498E+03  0.00000000000E+00 0. -1.
      99926    2    1    2    0    0  0.17763568394E-14  0.00000000000E+00 -0.41010830442E+03  0.61275744554E+03  0.45528328072E+03 0.  0.
      99925    2    3    3    0    0  0.93481559916E+01 -0.90868485713E+02 -0.34846181345E+03  0.44604731488E+03  0.26303631300E+03 0.  0.
         25    1    3    3    0    0 -0.93481559916E+01  0.90868485713E+02 -0.61646490963E+02  0.16671013066E+03  0.12509000000E+03 0.  0.
         25    1    4    4    0    0 -0.21466822349E+01 -0.77733557112E+02 -0.22847826949E+03  0.27183991957E+03  0.12509000000E+03 0.  0.
         25    1    4    4    0    0  0.11494838227E+02 -0.13134928601E+02 -0.11998354397E+03  0.17420739530E+03  0.12509000000E+03 0.  0.
<mgrwt>
<rscale>  2 0.45528328E+03</rscale>
<asrwt>0</asrwt>
<pdfrwt beam="1">  1       21 0.14900672E-01 0.45528328E+03</pdfrwt>
<pdfrwt beam="2">  1       21 0.75210715E-01 0.45528328E+03</pdfrwt>
<totfact> 0.57770443E+04</totfact>
</mgrwt>
</event>
<event>
 7    0  0.4750554E-002  0.4599179E+03  0.7546771E-02  0.1024805E+00
         21   -1    0    0  502  501  0.00000000000E+00  0.00000000000E+00  0.30252728116E+04  0.30252728116E+04  0.00000000000E+00 0. -1.
         21   -1    0    0  501  502 -0.00000000000E+00 -0.00000000000E+00 -0.17479786186E+02  0.17479786186E+02  0.00000000000E+00 0. -1.
      99926    2    1    2    0    0  0.00000000000E+00 -0.44408920985E-14  0.30077930254E+04  0.30427525978E+04  0.45991791398E+03 0.  0.
      99925    2    3    3    0    0 -0.11415076599E+03 -0.51331352174E+01  0.17056483819E+04  0.17296322959E+04  0.26331488742E+03 0.  0.
         25    1    4    4    0    0 -0.32378368093E+02  0.31724241282E+02  0.77248386209E+03  0.78385815777E+03  0.12509000000E+03 0.  0.
         25    1    3    3    0    0  0.11415076599E+03  0.51331352174E+01  0.13021446435E+04  0.13131203018E+04  0.12509000000E+03 0.  0.
         25    1    4    4    0    0 -0.81772397898E+02 -0.36857376500E+02  0.93316451983E+03  0.94577413817E+03  0.12509000000E+03 0.  0.
<mgrwt>
<rscale>  2 0.45991791E+03</rscale>
<asrwt>0</asrwt>
<pdfrwt beam="1">  1       21 0.44489270E+00 0.45991791E+03</pdfrwt>
<pdfrwt beam="2">  1       21 0.25705589E-02 0.45991791E+03</pdfrwt>
<totfact> 0.29037424E+03</totfact>
</mgrwt>
</event>
<event>
 7    0  0.4750554E-002  0.4584593E+03  0.7546771E-02  0.1025229E+00
         21   -1    0    0  502  501  0.00000000000E+00  0.00000000000E+00  0.52621241879E+03  0.52621241879E+03  0.00000000000E+00 0.  1.
         21   -1    0    0  501  502 -0.00000000000E+00 -0.00000000000E+00 -0.99857448662E+02  0.99857448662E+02  0.00000000000E+00 0.  1.
      99926    2    1    2    0    0  0.71054273576E-14  0.00000000000E+00  0.42635497013E+03  0.62606986746E+03  0.45845928759E+03 0.  0.
      99925    2    3    3    0    0 -0.44486456843E+02  0.50116738210E+02  0.13763531621E+03  0.30435993762E+03  0.26306037153E+03 0.  0.
         25    1    4    4    0    0 -0.79713306024E+01 -0.77688086004E+01  0.88128575864E+02  0.15342115396E+03  0.12509000000E+03 0.  0.
         25    1    4    4    0    0 -0.36515126241E+02  0.57885546810E+02  0.49506740343E+02  0.15093878366E+03  0.12509000000E+03 0.  0.
         25    1    3    3    0    0  0.44486456843E+02 -0.50116738210E+02  0.28871965392E+03  0.32170992983E+03  0.12509000000E+03 0.  0.
<mgrwt>
<rscale>  2 0.45845929E+03</rscale>
<asrwt>0</asrwt>
<pdfrwt beam="1">  1       21 0.77384178E-01 0.45845929E+03</pdfrwt>
<pdfrwt beam="2">  1       21 0.14684919E-01 0.45845929E+03</pdfrwt>
<totfact> 0.55568324E+04</totfact>
</mgrwt>
</event>
<event>
 7    0  0.4750554E-002  0.4521079E+03  0.7546771E-02  0.1027095E+00
         21   -1    0    0  502  501  0.00000000000E+00  0.00000000000E+00  0.82241224983E+02  0.82241224983E+02  0.00000000000E+00 0.  1.
         21   -1    0    0  501  502 -0.00000000000E+00 -0.00000000000E+00 -0.62134748967E+03  0.62134748967E+03  0.00000000000E+00 0.  1.
      99926    2    1    2    0    0  0.14210854715E-13  0.71054273576E-14 -0.53910626469E+03  0.70358871466E+03  0.45210785745E+03 0.  0.
      99925    2    3    3    0    0 -0.69533855784E+02 -0.28814908216E+02 -0.21505689717E+03  0.34817240000E+03  0.26326658554E+03 0.  0.
         25    1    4    4    0    0 -0.18348222188E+02 -0.43905560531E+02 -0.13627409848E+03  0.19100390970E+03  0.12509000000E+03 0.  0.
         25    1    3    3    0    0  0.69533855784E+02  0.28814908216E+02 -0.32404936752E+03  0.35541631466E+03  0.12509000000E+03 0.  0.
         25    1    4    4    0    0 -0.51185633595E+02  0.15090652315E+02 -0.78782798689E+02  0.15716849030E+03  0.12509000000E+03 0.  0.
<mgrwt>
<rscale>  2 0.45210786E+03</rscale>
<asrwt>0</asrwt>
<pdfrwt beam="1">  1       21 0.12094298E-01 0.45210786E+03</pdfrwt>
<pdfrwt beam="2">  1       21 0.91374633E-01 0.45210786E+03</pdfrwt>
<totfact> 0.53925345E+04</totfact>
</mgrwt>
</event>
<event>
 7    0  0.4750554E-002  0.4574921E+03  0.7546771E-02  0.1025511E+00
         21   -1    0    0  502  501  0.00000000000E+00  0.00000000000E+00  0.68084947346E+03  0.68084947346E+03  0.00000000000E+00 0.  1.
         21   -1    0    0  501  502 -0.00000000000E+00 -0.00000000000E+00 -0.76852178065E+02  0.76852178065E+02  0.00000000000E+00 0.  1.
      99926    2    1    2    0    0  0.00000000000E+00  0.00000000000E+00  0.60399729540E+03  0.75770165153E+03  0.45749214188E+03 0.  0.
      99925    2    3    3    0    0 -0.74620810846E+02 -0.68880188029E+02  0.47037483403E+03  0.54838080690E+03  0.26297581480E+03 0.  0.
         25    1    4    4    0    0 -0.78423690014E+02 -0.32437305549E+02  0.26699214294E+03  0.30681389545E+03  0.12509000000E+03 0.  0.
         25    1    3    3    0    0  0.74620810846E+02  0.68880188029E+02  0.13362246136E+03  0.20932084463E+03  0.12509000000E+03 0.  0.
         25    1    4    4    0    0  0.38028791675E+01 -0.36442882481E+02  0.20338269109E+03  0.24156691145E+03  0.12509000000E+03 0.  0.
<mgrwt>
<rscale>  2 0.45749214E+03</rscale>
<asrwt>0</asrwt>
<pdfrwt beam="1">  1       21 0.10012492E+00 0.45749214E+03</pdfrwt>
<pdfrwt beam="2">  1       21 0.11301791E-01 0.45749214E+03</pdfrwt>
<totfact> 0.48913994E+04</totfact>
</mgrwt>
</event>
<event>
 7    0  0.4750554E-002  0.4502321E+03  0.7546771E-02  0.1027653E+00
         21   -1    0    0  502  501  0.00000000000E+00  0.00000000000E+00  0.48171301301E+03  0.48171301301E+03  0.00000000000E+00 0. -1.
         21   -1    0    0  501  502 -0.00000000000E+00 -0.00000000000E+00 -0.10520212998E+03  0.10520212998E+03  0.00000000000E+00 0. -1.
      99926    2    1    2    0    0  0.00000000000E+00  0.00000000000E+00  0.37651088303E+03  0.58691514300E+03  0.45023209574E+03 0.  0.
      99925    2    3    3    0    0  0.75606041218E+02  0.68221922179E+02  0.18935865928E+03  0.33984436955E+03  0.26318622597E+03 0.  0.
         25    1    4    4    0    0  0.55217039217E+01  0.47158971415E+02  0.64414314425E+02  0.14849636292E+03  0.12509000000E+03 0.  0.
         25    1    3    3    0    0 -0.75606041218E+02 -0.68221922179E+02  0.18715222375E+03  0.24707077344E+03  0.12509000000E+03 0.  0.
         25    1    4    4    0    0  0.70084337297E+02  0.21062950765E+02  0.12494434485E+03  0.19134800663E+03  0.12509000000E+03 0.  0.
<mgrwt>
<rscale>  2 0.45023210E+03</rscale>
<asrwt>0</asrwt>
<pdfrwt beam="1">  1       21 0.70840148E-01 0.45023210E+03</pdfrwt>
<pdfrwt beam="2">  1       21 0.15470902E-01 0.45023210E+03</pdfrwt>
<totfact> 0.61786757E+04</totfact>
</mgrwt>
</event>
<event>
 7    0  0.4750554E-002  0.4565900E+03  0.7546771E-02  0.1025775E+00
         21   -1    0    0  502  501  0.00000000000E+00  0.00000000000E+00  0.46106231769E+02  0.46106231769E+02  0.00000000000E+00 0. -1.
         21   -1    0    0  501  502 -0.00000000000E+00 -0.00000000000E+00 -0.11304024931E+04  0.11304024931E+04  0.00000000000E+00 0. -1.
      99926    2    1    2    0    0  0.35527136788E-14  0.00000000000E+00 -0.10842962613E+04  0.11765087248E+04  0.45658996633E+03 0.  0.
      99925    2    3    3    0    0 -0.18457475754E+02 -0.49524075640E+02 -0.94339674684E+03  0.98082149032E+03  0.26309705707E+03 0.  0.
         25    1    4    4    0    0  0.26432444410E+02 -0.14298579466E+02 -0.51911860656E+03  0.53482217537E+03  0.12509000000E+03 0.  0.
         25    1    4    4    0    0 -0.44889920163E+02 -0.35225496174E+02 -0.42427814028E+03  0.44599931494E+03  0.12509000000E+03 0.  0.
         25    1    3    3    0    0  0.18457475754E+02  0.49524075640E+02 -0.14089951446E+03  0.19568723452E+03  0.12509000000E+03 0.  0.
<mgrwt>
<rscale>  2 0.45658997E+03</rscale>
<asrwt>0</asrwt>
<pdfrwt beam="1">  1       21 0.67803280E-02 0.45658997E+03</pdfrwt>
<pdfrwt beam="2">  1       21 0.16623567E+00 0.45658997E+03</pdfrwt>
<totfact> 0.32504958E+04</totfact>
</mgrwt>
</event>
<event>
 7    0  0.4750554E-002  0.4483295E+03  0.7546771E-02  0.1028221E+00
         21   -1    0    0  502  501  0.00000000000E+00  0.00000000000E+00  0.99483623472E+02  0.99483623472E+02  0.00000000000E+00 0. -1.
         21   -1    0    0  501  502 -0.00000000000E+00 -0.00000000000E+00 -0.50510663869E+03  0.50510663869E+03  0.00000000000E+00 0. -1.
      99926    2    1    2    0    0  0.00000000000E+00  0.00000000000E+00 -0.40562301522E+03  0.60459026216E+03  0.44832951568E+03 0.  0.
      99925    2    3    3    0    0  0.46191004766E+01 -0.33222974938E+02 -0.12009329173E+03  0.29106221996E+03  0.26300135934E+03 0.  0.
         25    1    3    3    0    0 -0.46191004766E+01  0.33222974938E+02 -0.28552972349E+03  0.31352804220E+03  0.12509000000E+03 0.  0.
         25    1    4    4    0    0  0.82704856186E+01  0.17959731201E+02 -0.80951398141E+02  0.15030498940E+03  0.12509000000E+03 0.  0.
         25    1    4    4    0    0 -0.36513851420E+01 -0.51182706139E+02 -0.39141893588E+02  0.14075723056E+03  0.12509000000E+03 0.  0.
<mgrwt>
<rscale>  2 0.44832952E+03</rscale>
<asrwt>0</asrwt>
<pdfrwt beam="1">  1       21 0.14629945E-01 0.44832952E+03</pdfrwt>
<pdfrwt beam="2">  1       21 0.74280388E-01 0.44832952E+03</pdfrwt>
<totfact> 0.61577953E+04</totfact>
</mgrwt>
</event>
<event>
 7    0  0.4750554E-002  0.4621416E+03  0.7546771E-02  0.1024162E+00
         21   -1    0    0  502  501  0.00000000000E+00  0.00000000000E+00  0.88056369632E+03  0.88056369632E+03  0.00000000000E+00 0.  1.
         21   -1    0    0  501  502 -0.00000000000E+00 -0.00000000000E+00 -0.60635847095E+02  0.60635847095E+02  0.00000000000E+00 0.  1.
      99926    2    1    2    0    0  0.00000000000E+00  0.71054273576E-14  0.81992784923E+03  0.94119954342E+03  0.46214164776E+03 0.  0.
      99925    2    3    3    0    0  0.34427628074E+02  0.54873836820E+02  0.71774890456E+03  0.76717527966E+03  0.26305516568E+03 0.  0.
         25    1    4    4    0    0  0.27753479658E+02 -0.60789734518E+01  0.40432792242E+03  0.42418838563E+03  0.12509000000E+03 0.  0.
         25    1    3    3    0    0 -0.34427628074E+02 -0.54873836820E+02  0.10217894467E+03  0.17402426376E+03  0.12509000000E+03 0.  0.
         25    1    4    4    0    0  0.66741484164E+01  0.60952810272E+02  0.31342098213E+03  0.34298689403E+03  0.12509000000E+03 0.  0.
<mgrwt>
<rscale>  2 0.46214165E+03</rscale>
<asrwt>0</asrwt>
<pdfrwt beam="1">  1       21 0.12949465E+00 0.46214165E+03</pdfrwt>
<pdfrwt beam="2">  1       21 0.89170368E-02 0.46214165E+03</pdfrwt>
<totfact> 0.39260074E+04</totfact>
</mgrwt>
</event>
<event>
 7    0  0.4750554E-002  0.4528808E+03  0.7546771E-02  0.1026866E+00
         21   -1    0    0  502  501  0.00000000000E+00  0.00000000000E+00  0.22457977811E+03  0.22457977811E+03  0.00000000000E+00 0.  1.
         21   -1    0    0  501  502 -0.00000000000E+00 -0.00000000000E+00 -0.22831640117E+03  0.22831640117E+03  0.00000000000E+00 0.  1.
      99926    2    1    2    0    0  0.00000000000E+00 -0.35527136788E-14 -0.37366230639E+01  0.45289617928E+03  0.45288076450E+03 0.  0.
      99925    2    3    3    0    0 -0.66473883564E+02  0.19924691200E+02  0.84472057104E+02  0.28483651764E+03  0.26302194363E+03 0.  0.
         25    1    3    3    0    0  0.66473883564E+02 -0.19924691200E+02 -0.88208680168E+02  0.16805966165E+03  0.12509000000E+03 0.  0.
         25    1    4    4    0    0 -0.71474128961E+02  0.25288555002E+02  0.53610705394E+02  0.15578728433E+03  0.12509000000E+03 0.  0.
         25    1    4    4    0    0  0.50002453964E+01 -0.53638638020E+01  0.30861351710E+02  0.12904923331E+03  0.12509000000E+03 0.  0.
<mgrwt>
<rscale>  2 0.45288076E+03</rscale>
<asrwt>0</asrwt>
<pdfrwt beam="1">  1       21 0.33026438E-01 0.45288076E+03</pdfrwt>
<pdfrwt beam="2">  1       21 0.33575941E-01 0.45288076E+03</pdfrwt>
<totfact> 0.69874261E+04</totfact>
</mgrwt>
</event>
<event>
 7    0  0.4750554E-002  0.4535739E+03  0.7546771E-02  0.1026662E+00
         21   -1    0    0  502  501  0.00000000000E+00  0.00000000000E+00  0.56242431817E+02  0.56242431817E+02  0.00000000000E+00 0.  1.
         21   -1    0    0  501  502 -0.00000000000E+00 -0.00000000000E+00 -0.91447532578E+03  0.91447532578E+03  0.00000000000E+00 0.  1.
      99926    2    1    2    0    0  0.00000000000E+00  0.00000000000E+00 -0.85823289396E+03  0.97071775759E+03  0.45357388001E+03 0.  0.
      99925    2    3    3    0    0 -0.45727358969E+02  0.90152627132E+01 -0.75829262385E+03  0.80396095261E+03  0.26300806757E+03 0.  0.
         25    1    3    3    0    0  0.45727358969E+02 -0.90152627132E+01 -0.99940270105E+02  0.16675680498E+03  0.12509000000E+03 0.  0.
         25    1    4    4    0    0  0.20568958299E+01 -0.21878160770E+02 -0.30778353403E+03  0.33295810046E+03  0.12509000000E+03 0.  0.
         25    1    4    4    0    0 -0.47784254798E+02  0.30893423484E+02 -0.45050908982E+03  0.47100285215E+03  0.12509000000E+03 0.  0.
<mgrwt>
<rscale>  2 0.45357388E+03</rscale>
<asrwt>0</asrwt>
<pdfrwt beam="1">  1       21 0.82709461E-02 0.45357388E+03</pdfrwt>
<pdfrwt beam="2">  1       21 0.13448166E+00 0.45357388E+03</pdfrwt>
<totfact> 0.40765696E+04</totfact>
</mgrwt>
</event>
<event>
 6    0  0.4750554E-002  0.4527059E+03  0.7546771E-02  0.1026918E+00
         21   -1    0    0  502  501  0.00000000000E+00  0.00000000000E+00  0.66601831451E+03  0.66601831451E+03  0.00000000000E+00 0.  1.
         21   -1    0    0  501  502 -0.00000000000E+00 -0.00000000000E+00 -0.76928298267E+02  0.76928298267E+02  0.00000000000E+00 0.  1.
      99926    2    1    2    0    0  0.00000000000E+00  0.00000000000E+00  0.58909001625E+03  0.74294661278E+03  0.45270588929E+03 0.  0.
         25    1    3    3    0    0 -0.16603895513E+02  0.70508200567E+02  0.84254284365E+02  0.16731224769E+03  0.12509000000E+03 0.  0.
         25    1    3    3    0    0  0.79187125766E+01  0.95526882443E+01  0.19621368025E+03  0.23302634246E+03  0.12509000000E+03 0.  0.
         25    1    3    3    0    0  0.86851829369E+01 -0.80060888811E+02  0.30862205163E+03  0.34260802263E+03  0.12509000000E+03 0.  0.
<mgrwt>
<rscale>  2 0.45270589E+03</rscale>
<asrwt>0</asrwt>
<pdfrwt beam="1">  1       21 0.97943867E-01 0.45270589E+03</pdfrwt>
<pdfrwt beam="2">  1       21 0.11312985E-01 0.45270589E+03</pdfrwt>
<totfact> 0.51555953E+04</totfact>
</mgrwt>
</event>
<event>
 7    0  0.4750554E-002  0.4301201E+03  0.7546771E-02  0.1033822E+00
         21   -1    0    0  502  501  0.00000000000E+00  0.00000000000E+00  0.60504504604E+02  0.60504504604E+02  0.00000000000E+00 0.  1.
         21   -1    0    0  501  502 -0.00000000000E+00 -0.00000000000E+00 -0.76441937052E+03  0.76441937052E+03  0.00000000000E+00 0.  1.
      99926    2    1    2    0    0  0.00000000000E+00 -0.71054273576E-14 -0.70391486591E+03  0.82492387512E+03  0.43012005451E+03 0.  0.
      99925    2    3    3    0    0 -0.28336576863E+02  0.63436570592E+02 -0.35107687228E+03  0.44417550949E+03  0.26307746560E+03 0.  0.
         25    1    4    4    0    0 -0.50205786939E+02  0.13491555444E+02 -0.18293860479E+03  0.22763278396E+03  0.12509000000E+03 0.  0.
         25    1    4    4    0    0  0.21869210076E+02  0.49945015147E+02 -0.16813826749E+03  0.21654272554E+03  0.12509000000E+03 0.  0.
         25    1    3    3    0    0  0.28336576863E+02 -0.63436570592E+02 -0.35283799363E+03  0.38074836563E+03  0.12509000000E+03 0.  0.
<mgrwt>
<rscale>  2 0.43012005E+03</rscale>
<asrwt>0</asrwt>
<pdfrwt beam="1">  1       21 0.88977219E-02 0.43012005E+03</pdfrwt>
<pdfrwt beam="2">  1       21 0.11241461E+00 0.43012005E+03</pdfrwt>
<totfact> 0.56904380E+04</totfact>
</mgrwt>
</event>
<event>
 7    0  0.4750554E-002  0.4571498E+03  0.7546771E-02  0.1025611E+00
         21   -1    0    0  502  501  0.00000000000E+00  0.00000000000E+00  0.18768217605E+03  0.18768217605E+03  0.00000000000E+00 0.  1.
         21   -1    0    0  501  502 -0.00000000000E+00 -0.00000000000E+00 -0.27837741365E+03  0.27837741365E+03  0.00000000000E+00 0.  1.
      99926    2    1    2    0    0  0.00000000000E+00  0.00000000000E+00 -0.90695237603E+02  0.46605958970E+03  0.45714977308E+03 0.  0.
      99925    2    3    3    0    0  0.67852355639E+02  0.90977353524E+02 -0.38398659293E+02  0.28924538998E+03  0.26326339960E+03 0.  0.
         25    1    4    4    0    0  0.48666133641E+02  0.50653887189E+02 -0.58460337087E+02  0.15491716484E+03  0.12509000000E+03 0.  0.
         25    1    3    3    0    0 -0.67852355639E+02 -0.90977353524E+02 -0.52296578311E+02  0.17681419972E+03  0.12509000000E+03 0.  0.
         25    1    4    4    0    0  0.19186221998E+02  0.40323466335E+02  0.20061677794E+02  0.13432822513E+03  0.12509000000E+03 0.  0.
<mgrwt>
<rscale>  2 0.45714977E+03</rscale>
<asrwt>0</asrwt>
<pdfrwt beam="1">  1       21 0.27600320E-01 0.45714977E+03</pdfrwt>
<pdfrwt beam="2">  1       21 0.40937855E-01 0.45714977E+03</pdfrwt>
<totfact> 0.66586452E+04</totfact>
</mgrwt>
</event>
<event>
 7    0  0.4750554E-002  0.4464391E+03  0.7546771E-02  0.1028789E+00
         21   -1    0    0  502  501  0.00000000000E+00  0.00000000000E+00  0.45908507621E+03  0.45908507621E+03  0.00000000000E+00 0. -1.
         21   -1    0    0  501  502 -0.00000000000E+00 -0.00000000000E+00 -0.10853537103E+03  0.10853537103E+03  0.00000000000E+00 0. -1.
      99926    2    1    2    0    0  0.71054273576E-14 -0.14210854715E-13  0.35054970519E+03  0.56762044724E+03  0.44643910706E+03 0.  0.
      99925    2    3    3    0    0  0.57385457542E+02 -0.78531298508E+02  0.17234301412E+03  0.32915579908E+03  0.26302313580E+03 0.  0.
         25    1    4    4    0    0  0.18747405690E+01 -0.69439240887E+02  0.94080279471E+02  0.17124231344E+03  0.12509000000E+03 0.  0.
         25    1    3    3    0    0 -0.57385457542E+02  0.78531298508E+02  0.17820669106E+03  0.23846464816E+03  0.12509000000E+03 0.  0.
         25    1    4    4    0    0  0.55510716973E+02 -0.90920576210E+01  0.78262734652E+02  0.15791348564E+03  0.12509000000E+03 0.  0.
<mgrwt>
<rscale>  2 0.44643911E+03</rscale>
<asrwt>0</asrwt>
<pdfrwt beam="1">  1       21 0.67512511E-01 0.44643911E+03</pdfrwt>
<pdfrwt beam="2">  1       21 0.15961084E-01 0.44643911E+03</pdfrwt>
<totfact> 0.65007481E+04</totfact>
</mgrwt>
</event>
<event>
 7    0  0.4750554E-002  0.4331918E+03  0.7546771E-02  0.1032856E+00
         21   -1    0    0  502  501  0.00000000000E+00  0.00000000000E+00  0.41872423572E+03  0.41872423572E+03  0.00000000000E+00 0. -1.
         21   -1    0    0  501  502 -0.00000000000E+00 -0.00000000000E+00 -0.11203981248E+03  0.11203981248E+03  0.00000000000E+00 0. -1.
      99926    2    1    2    0    0  0.00000000000E+00  0.00000000000E+00  0.30668442324E+03  0.53076404819E+03  0.43319180439E+03 0.  0.
      99925    2    3    3    0    0 -0.59237806112E+02  0.65426324605E+02  0.22569142857E+03  0.35756735391E+03  0.26292217485E+03 0.  0.
         25    1    4    4    0    0 -0.63141185486E+02  0.11585974588E+02  0.10389593113E+03  0.17482252921E+03  0.12509000000E+03 0.  0.
         25    1    4    4    0    0  0.39033793739E+01  0.53840350017E+02  0.12179549744E+03  0.18274482471E+03  0.12509000000E+03 0.  0.
         25    1    3    3    0    0  0.59237806112E+02 -0.65426324605E+02  0.80992994669E+02  0.17319669428E+03  0.12509000000E+03 0.  0.
<mgrwt>
<rscale>  2 0.43319180E+03</rscale>
<asrwt>0</asrwt>
<pdfrwt beam="1">  1       21 0.61577093E-01 0.43319180E+03</pdfrwt>
<pdfrwt beam="2">  1       21 0.16476443E-01 0.43319180E+03</pdfrwt>
<totfact> 0.75343919E+04</totfact>
</mgrwt>
</event>
<event>
 7    0  0.4750554E-002  0.4605108E+03  0.7546771E-02  0.1024633E+00
         21   -1    0    0  502  501  0.00000000000E+00  0.00000000000E+00  0.84812333819E+02  0.84812333819E+02  0.00000000000E+00 0.  1.
         21   -1    0    0  501  502 -0.00000000000E+00 -0.00000000000E+00 -0.62511593281E+03  0.62511593281E+03  0.00000000000E+00 0.  1.
      99926    2    1    2    0    0 -0.14210854715E-13  0.00000000000E+00 -0.54030359899E+03  0.70992826662E+03  0.46051076499E+03 0.  0.
      99925    2    3    3    0    0 -0.97476637758E+02  0.75593136848E+01 -0.23578913874E+03  0.36651102371E+03  0.26301135797E+03 0.  0.
         25    1    4    4    0    0 -0.71927261163E+02  0.36322994295E+02 -0.11055208130E+03  0.18537033633E+03  0.12509000000E+03 0.  0.
         25    1    4    4    0    0 -0.25549376595E+02 -0.28763680610E+02 -0.12523705745E+03  0.18114068738E+03  0.12509000000E+03 0.  0.
         25    1    3    3    0    0  0.97476637758E+02 -0.75593136848E+01 -0.30451446024E+03  0.34341724291E+03  0.12509000000E+03 0.  0.
<mgrwt>
<rscale>  2 0.46051076E+03</rscale>
<asrwt>0</asrwt>
<pdfrwt beam="1">  1       21 0.12472402E-01 0.46051076E+03</pdfrwt>
<pdfrwt beam="2">  1       21 0.91928811E-01 0.46051076E+03</pdfrwt>
<totfact> 0.50156920E+04</totfact>
</mgrwt>
</event>
<event>
 7    0  0.4750554E-002  0.4071906E+03  0.7546771E-02  0.1041318E+00
         21   -1    0    0  502  501  0.00000000000E+00  0.00000000000E+00  0.74667712389E+03  0.74667712389E+03  0.00000000000E+00 0. -1.
         21   -1    0    0  501  502 -0.00000000000E+00 -0.00000000000E+00 -0.55514024455E+02  0.55514024455E+02  0.00000000000E+00 0. -1.
      99926    2    1    2    0    0  0.00000000000E+00  0.00000000000E+00  0.69116309943E+03  0.80219114834E+03  0.40719062914E+03 0.  0.
      99925    2    3    3    0    0 -0.40452296863E+02  0.24283031402E+02  0.52413377966E+03  0.58824639917E+03  0.26285272154E+03 0.  0.
         25    1    4    4    0    0 -0.80708199138E+01 -0.25997887798E+02  0.23588492435E+03  0.26838448901E+03  0.12509000000E+03 0.  0.
         25    1    4    4    0    0 -0.32381476949E+02  0.50280919199E+02  0.28824885531E+03  0.31986191016E+03  0.12509000000E+03 0.  0.
         25    1    3    3    0    0  0.40452296863E+02 -0.24283031402E+02  0.16702931977E+03  0.21394474918E+03  0.12509000000E+03 0.  0.
<mgrwt>
<rscale>  2 0.40719063E+03</rscale>
<asrwt>0</asrwt>
<pdfrwt beam="1">  1       21 0.10980545E+00 0.40719063E+03</pdfrwt>
<pdfrwt beam="2">  1       21 0.81638276E-02 0.40719063E+03</pdfrwt>
<totfact> 0.70670294E+04</totfact>
</mgrwt>
</event>
<event>
 7    0  0.4750554E-002  0.4513113E+03  0.7546771E-02  0.1027332E+00
         21   -1    0    0  502  501  0.00000000000E+00  0.00000000000E+00  0.42855480743E+03  0.42855480743E+03  0.00000000000E+00 0.  1.
         21   -1    0    0  501  502 -0.00000000000E+00 -0.00000000000E+00 -0.11881901833E+03  0.11881901833E+03  0.00000000000E+00 0.  1.
      99926    2    1    2    0    0  0.00000000000E+00  0.35527136788E-14  0.30973578909E+03  0.54737382576E+03  0.45131125189E+03 0.  0.
      99925    2    3    3    0    0 -0.57150340442E+02  0.31786177825E+02  0.88721795629E+02  0.28513115966E+03  0.26296710570E+03 0.  0.
         25    1    4    4    0    0 -0.49209377343E+02  0.40813777376E+02  0.73498095417E+02  0.15854590935E+03  0.12509000000E+03 0.  0.
         25    1    4    4    0    0 -0.79409630987E+01 -0.90275995513E+01  0.15223700211E+02  0.12658525031E+03  0.12509000000E+03 0.  0.
         25    1    3    3    0    0  0.57150340442E+02 -0.31786177825E+02  0.22101399346E+03  0.26224266609E+03  0.12509000000E+03 0.  0.
<mgrwt>
<rscale>  2 0.45131125E+03</rscale>
<asrwt>0</asrwt>
<pdfrwt beam="1">  1       21 0.63022765E-01 0.45131125E+03</pdfrwt>
<pdfrwt beam="2">  1       21 0.17473385E-01 0.45131125E+03</pdfrwt>
<totfact> 0.63884654E+04</totfact>
</mgrwt>
</event>
<event>
 7    0  0.4750554E-002  0.4563694E+03  0.7546771E-02  0.1025839E+00
         21   -1    0    0  502  501  0.00000000000E+00  0.00000000000E+00  0.13304397062E+03  0.13304397062E+03  0.00000000000E+00 0.  1.
         21   -1    0    0  501  502 -0.00000000000E+00 -0.00000000000E+00 -0.39136130864E+03  0.39136130864E+03  0.00000000000E+00 0.  1.
      99926    2    1    2    0    0  0.14210854715E-13  0.00000000000E+00 -0.25831733802E+03  0.52440527926E+03  0.45636942250E+03 0.  0.
      99925    2    3    3    0    0  0.10312783249E+03 -0.19730077809E+02 -0.11003956809E+03  0.30381871811E+03  0.26300661802E+03 0.  0.
         25    1    4    4    0    0  0.83637504098E+02 -0.46720692120E+01 -0.88165690178E+02  0.17446420076E+03  0.12509000000E+03 0.  0.
         25    1    3    3    0    0 -0.10312783249E+03  0.19730077809E+02 -0.14827776994E+03  0.22058656116E+03  0.12509000000E+03 0.  0.
         25    1    4    4    0    0  0.19490328394E+02 -0.15058008597E+02 -0.21873877910E+02  0.12935451735E+03  0.12509000000E+03 0.  0.
<mgrwt>
<rscale>  2 0.45636942E+03</rscale>
<asrwt>0</asrwt>
<pdfrwt beam="1">  1       21 0.19565290E-01 0.45636942E+03</pdfrwt>
<pdfrwt beam="2">  1       21 0.57553133E-01 0.45636942E+03</pdfrwt>
<totfact> 0.62901165E+04</totfact>
</mgrwt>
</event>
<event>
 7    0  0.4750554E-002  0.4658036E+03  0.7546771E-02  0.1023111E+00
         21   -1    0    0  502  501  0.00000000000E+00  0.00000000000E+00  0.25581105052E+03  0.25581105052E+03  0.00000000000E+00 0. -1.
         21   -1    0    0  501  502 -0.00000000000E+00 -0.00000000000E+00 -0.21204423054E+03  0.21204423054E+03  0.00000000000E+00 0. -1.
      99926    2    1    2    0    0  0.00000000000E+00  0.17763568394E-14  0.43766819972E+02  0.46785528106E+03  0.46580363833E+03 0.  0.
      99925    2    3    3    0    0  0.30057612933E+02 -0.14822285067E+02 -0.91585345501E+02  0.28052969010E+03  0.26303207274E+03 0.  0.
         25    1    4    4    0    0 -0.14600974125E+01 -0.36670567481E+02 -0.21563018682E+02  0.13213377418E+03  0.12509000000E+03 0.  0.
         25    1    3    3    0    0 -0.30057612933E+02  0.14822285067E+02  0.13535216547E+03  0.18732559096E+03  0.12509000000E+03 0.  0.
         25    1    4    4    0    0  0.31517710345E+02  0.21848282414E+02 -0.70022326819E+02  0.14839591592E+03  0.12509000000E+03 0.  0.
<mgrwt>
<rscale>  2 0.46580364E+03</rscale>
<asrwt>0</asrwt>
<pdfrwt beam="1">  1       21 0.37619272E-01 0.46580364E+03</pdfrwt>
<pdfrwt beam="2">  1       21 0.31182975E-01 0.46580364E+03</pdfrwt>
<totfact> 0.62087218E+04</totfact>
</mgrwt>
</event>
<event>
 7    0  0.4750554E-002  0.4562230E+03  0.7546771E-02  0.1025882E+00
         21   -1    0    0  502  501  0.00000000000E+00  0.00000000000E+00  0.21900027893E+03  0.21900027893E+03  0.00000000000E+00 0.  1.
         21   -1    0    0  501  502 -0.00000000000E+00 -0.00000000000E+00 -0.23760176346E+03  0.23760176346E+03  0.00000000000E+00 0.  1.
      99926    2    1    2    0    0  0.11102230246E-14 -0.14210854715E-13 -0.18601484531E+02  0.45660204240E+03  0.45622298265E+03 0.  0.
      99925    2    3    3    0    0 -0.19121274597E+00 -0.80710813975E+02  0.68836533296E+02  0.28395446171E+03  0.26339589206E+03 0.  0.
         25    1    3    3    0    0  0.19121274597E+00  0.80710813975E+02 -0.87438017827E+02  0.17264758069E+03  0.12509000000E+03 0.  0.
         25    1    4    4    0    0 -0.10561898811E+02 -0.80636217993E+02  0.26847356223E+02  0.15159829153E+03  0.12509000000E+03 0.  0.
         25    1    4    4    0    0  0.10370686065E+02 -0.74595982495E-01  0.41989177073E+02  0.13235617018E+03  0.12509000000E+03 0.  0.
<mgrwt>
<rscale>  2 0.45622298E+03</rscale>
<asrwt>0</asrwt>
<pdfrwt beam="1">  1       21 0.32205923E-01 0.45622298E+03</pdfrwt>
<pdfrwt beam="2">  1       21 0.34941436E-01 0.45622298E+03</pdfrwt>
<totfact> 0.67764935E+04</totfact>
</mgrwt>
</event>
<event>
 7    0  0.4750554E-002  0.4394117E+03  0.7546771E-02  0.1030927E+00
         21   -1    0    0  502  501  0.00000000000E+00  0.00000000000E+00  0.13029998849E+03  0.13029998849E+03  0.00000000000E+00 0.  1.
         21   -1    0    0  501  502 -0.00000000000E+00 -0.00000000000E+00 -0.37045793547E+03  0.37045793547E+03  0.00000000000E+00 0.  1.
      99926    2    1    2    0    0  0.00000000000E+00 -0.71054273576E-14 -0.24015794698E+03  0.50075792396E+03  0.43941171913E+03 0.  0.
      99925    2    3    3    0    0  0.28181820367E+02  0.55361172024E+02 -0.23951554857E+03  0.36109047914E+03  0.26298205595E+03 0.  0.
         25    1    3    3    0    0 -0.28181820367E+02 -0.55361172024E+02 -0.64239841228E+00  0.13966744482E+03  0.12509000000E+03 0.  0.
         25    1    4    4    0    0  0.12159855112E+02  0.20921164182E+02 -0.17172763477E+03  0.21383041371E+03  0.12509000000E+03 0.  0.
         25    1    4    4    0    0  0.16021965255E+02  0.34440007842E+02 -0.67787913803E+02  0.14726006542E+03  0.12509000000E+03 0.  0.
<mgrwt>
<rscale>  2 0.43941172E+03</rscale>
<asrwt>0</asrwt>
<pdfrwt beam="1">  1       21 0.19161763E-01 0.43941172E+03</pdfrwt>
<pdfrwt beam="2">  1       21 0.54479108E-01 0.43941172E+03</pdfrwt>
<totfact> 0.73951351E+04</totfact>
</mgrwt>
</event>
<event>
 7    0  0.4750554E-002  0.4555119E+03  0.7546771E-02  0.1026091E+00
         21   -1    0    0  502  501  0.00000000000E+00  0.00000000000E+00  0.15785538357E+03  0.15785538357E+03  0.00000000000E+00 0.  1.
         21   -1    0    0  501  502 -0.00000000000E+00 -0.00000000000E+00 -0.32860952854E+03  0.32860952854E+03  0.00000000000E+00 0.  1.
      99926    2    1    2    0    0 -0.35527136788E-14  0.00000000000E+00 -0.17075414497E+03  0.48646491210E+03  0.45551194571E+03 0.  0.
      99925    2    3    3    0    0  0.10766126352E+02  0.44653246281E+02 -0.21837719175E+03  0.34495418967E+03  0.26304937409E+03 0.  0.
         25    1    3    3    0    0 -0.10766126352E+02 -0.44653246281E+02  0.47623046780E+02  0.14151072244E+03  0.12509000000E+03 0.  0.
         25    1    4    4    0    0  0.45347775176E+02  0.29581955205E+02 -0.10753887394E+03  0.17361921062E+03  0.12509000000E+03 0.  0.
         25    1    4    4    0    0 -0.34581648824E+02  0.15071291076E+02 -0.11083831782E+03  0.17133497905E+03  0.12509000000E+03 0.  0.
<mgrwt>
<rscale>  2 0.45551195E+03</rscale>
<asrwt>0</asrwt>
<pdfrwt beam="1">  1       21 0.23214027E-01 0.45551195E+03</pdfrwt>
<pdfrwt beam="2">  1       21 0.48324931E-01 0.45551195E+03</pdfrwt>
<totfact> 0.65963941E+04</totfact>
</mgrwt>
</event>
<event>
 7    0  0.4750554E-002  0.4619996E+03  0.7546771E-02  0.1024203E+00
         21   -1    0    0  502  501  0.00000000000E+00  0.00000000000E+00  0.10226394481E+03  0.10226394481E+03  0.00000000000E+00 0.  1.
         21   -1    0    0  501  502 -0.00000000000E+00 -0.00000000000E+00 -0.52179590207E+03  0.52179590207E+03  0.00000000000E+00 0.  1.
      99926    2    1    2    0    0  0.00000000000E+00  0.00000000000E+00 -0.41953195726E+03  0.62405984689E+03  0.46199959884E+03 0.  0.
      99925    2    3    3    0    0 -0.73959732555E+02 -0.30319593323E+02 -0.38257775905E+03  0.47108128419E+03  0.26298767046E+03 0.  0.
         25    1    4    4    0    0 -0.66719633901E+02  0.12625905868E+02 -0.19247714872E+03  0.23938647398E+03  0.12509000000E+03 0.  0.
         25    1    4    4    0    0 -0.72400986548E+01 -0.42945499192E+02 -0.19010061033E+03  0.23169481021E+03  0.12509000000E+03 0.  0.
         25    1    3    3    0    0  0.73959732555E+02  0.30319593323E+02 -0.36954198214E+02  0.15297856270E+03  0.12509000000E+03 0.  0.
<mgrwt>
<rscale>  2 0.46199960E+03</rscale>
<asrwt>0</asrwt>
<pdfrwt beam="1">  1       21 0.15038815E-01 0.46199960E+03</pdfrwt>
<pdfrwt beam="2">  1       21 0.76734692E-01 0.46199960E+03</pdfrwt>
<totfact> 0.54164982E+04</totfact>
</mgrwt>
</event>
<event>
 7    0  0.4750554E-002  0.4541106E+03  0.7546771E-02  0.1026503E+00
         21   -1    0    0  502  501  0.00000000000E+00  0.00000000000E+00  0.18525546741E+03  0.18525546741E+03  0.00000000000E+00 0.  1.
         21   -1    0    0  501  502 -0.00000000000E+00 -0.00000000000E+00 -0.27828651567E+03  0.27828651567E+03  0.00000000000E+00 0.  1.
      99926    2    1    2    0    0  0.35527136788E-14  0.00000000000E+00 -0.93031048255E+02  0.46354198308E+03  0.45411055277E+03 0.  0.
      99925    2    3    3    0    0 -0.27184909944E+02 -0.10453143378E+03 -0.91909324819E+02  0.29827067178E+03  0.26239708397E+03 0.  0.
         25    1    4    4    0    0 -0.52369624187E+01 -0.12790663772E+02 -0.27165688445E+02  0.12874979450E+03  0.12509000000E+03 0.  0.
         25    1    3    3    0    0  0.27184909944E+02  0.10453143378E+03 -0.11217234361E+01  0.16527131130E+03  0.12509000000E+03 0.  0.
         25    1    4    4    0    0 -0.21947947525E+02 -0.91740770005E+02 -0.64743636374E+02  0.16952087728E+03  0.12509000000E+03 0.  0.
<mgrwt>
<rscale>  2 0.45411055E+03</rscale>
<asrwt>0</asrwt>
<pdfrwt beam="1">  1       21 0.27243451E-01 0.45411055E+03</pdfrwt>
<pdfrwt beam="2">  1       21 0.40924487E-01 0.45411055E+03</pdfrwt>
<totfact> 0.68400980E+04</totfact>
</mgrwt>
</event>
<event>
 7    0  0.4750554E-002  0.4646436E+03  0.7546771E-02  0.1023443E+00
         21   -1    0    0  502  501  0.00000000000E+00  0.00000000000E+00  0.16197653817E+03  0.16197653817E+03  0.00000000000E+00 0. -1.
         21   -1    0    0  501  502 -0.00000000000E+00 -0.00000000000E+00 -0.33321744400E+03  0.33321744400E+03  0.00000000000E+00 0. -1.
      99926    2    1    2    0    0  0.00000000000E+00  0.00000000000E+00 -0.17124090583E+03  0.49519398218E+03  0.46464355387E+03 0.  0.
      99925    2    3    3    0    0  0.32779934270E+02 -0.11261957857E+03 -0.70994371847E+02  0.29656223939E+03  0.26296628572E+03 0.  0.
         25    1    4    4    0    0  0.15086650473E+02 -0.97180727810E+02 -0.24160422646E+02  0.16094388775E+03  0.12509000000E+03 0.  0.
         25    1    4    4    0    0  0.17693283797E+02 -0.15438850763E+02 -0.46833949201E+02  0.13561835164E+03  0.12509000000E+03 0.  0.
         25    1    3    3    0    0 -0.32779934270E+02  0.11261957857E+03 -0.10024653398E+03  0.19863174279E+03  0.12509000000E+03 0.  0.
<mgrwt>
<rscale>  2 0.46464355E+03</rscale>
<asrwt>0</asrwt>
<pdfrwt beam="1">  1       21 0.23820079E-01 0.46464355E+03</pdfrwt>
<pdfrwt beam="2">  1       21 0.49002565E-01 0.46464355E+03</pdfrwt>
<totfact> 0.60818526E+04</totfact>
</mgrwt>
</event>
<event>
 7    0  0.4750554E-002  0.4548815E+03  0.7546771E-02  0.1026276E+00
         21   -1    0    0  502  501  0.00000000000E+00  0.00000000000E+00  0.87938942182E+02  0.87938942182E+02  0.00000000000E+00 0.  1.
         21   -1    0    0  501  502 -0.00000000000E+00 -0.00000000000E+00 -0.58824115197E+03  0.58824115197E+03  0.00000000000E+00 0.  1.
      99926    2    1    2    0    0  0.00000000000E+00  0.00000000000E+00 -0.50030220979E+03  0.67618009415E+03  0.45488154349E+03 0.  0.
      99925    2    3    3    0    0 -0.10205729694E+02  0.11109252619E+03 -0.28763447325E+03  0.40540199209E+03  0.26300471230E+03 0.  0.
         25    1    3    3    0    0  0.10205729694E+02 -0.11109252619E+03 -0.21266773653E+03  0.27077810206E+03  0.12509000000E+03 0.  0.
         25    1    4    4    0    0  0.80139785192E+01  0.19078979620E+02 -0.10221677680E+03  0.16286193193E+03  0.12509000000E+03 0.  0.
         25    1    4    4    0    0 -0.18219708213E+02  0.92013546570E+02 -0.18541769646E+03  0.24254006015E+03  0.12509000000E+03 0.  0.
<mgrwt>
<rscale>  2 0.45488154E+03</rscale>
<asrwt>0</asrwt>
<pdfrwt beam="1">  1       21 0.12932197E-01 0.45488154E+03</pdfrwt>
<pdfrwt beam="2">  1       21 0.86506053E-01 0.45488154E+03</pdfrwt>
<totfact> 0.54266541E+04</totfact>
</mgrwt>
</event>
<event>
 7    0  0.4750554E-002  0.4473933E+03  0.7546771E-02  0.1028502E+00
         21   -1    0    0  502  501  0.00000000000E+00  0.00000000000E+00  0.37221863201E+03  0.37221863201E+03  0.00000000000E+00 0.  1.
         21   -1    0    0  501  502 -0.00000000000E+00 -0.00000000000E+00 -0.13443761624E+03  0.13443761624E+03  0.00000000000E+00 0.  1.
      99926    2    1    2    0    0  0.00000000000E+00  0.00000000000E+00  0.23778101578E+03  0.50665624825E+03  0.44739327490E+03 0.  0.
      99925    2    3    3    0    0 -0.91316038710E+02 -0.10038076728E+02  0.91039785450E+02  0.29306814304E+03  0.26298538366E+03 0.  0.
         25    1    4    4    0    0 -0.60955651544E+02  0.28973775277E+01  0.81468226544E+01  0.13941974419E+03  0.12509000000E+03 0.  0.
         25    1    3    3    0    0  0.91316038710E+02  0.10038076728E+02  0.14674123033E+03  0.21358810521E+03  0.12509000000E+03 0.  0.
         25    1    4    4    0    0 -0.30360387167E+02 -0.12935454256E+02  0.82892962796E+02  0.15364839884E+03  0.12509000000E+03 0.  0.
<mgrwt>
<rscale>  2 0.44739327E+03</rscale>
<asrwt>0</asrwt>
<pdfrwt beam="1">  1       21 0.54738034E-01 0.44739327E+03</pdfrwt>
<pdfrwt beam="2">  1       21 0.19770238E-01 0.44739327E+03</pdfrwt>
<totfact> 0.68870055E+04</totfact>
</mgrwt>
</event>
<event>
 7    0  0.4750554E-002  0.4354770E+03  0.7546771E-02  0.1032144E+00
         21   -1    0    0  502  501  0.00000000000E+00  0.00000000000E+00  0.55852321086E+02  0.55852321086E+02  0.00000000000E+00 0.  1.
         21   -1    0    0  501  502 -0.00000000000E+00 -0.00000000000E+00 -0.84884677804E+03  0.84884677804E+03  0.00000000000E+00 0.  1.
      99926    2    1    2    0    0 -0.71054273576E-14  0.14210854715E-13 -0.79299445696E+03  0.90469909913E+03  0.43547703866E+03 0.  0.
      99925    2    3    3    0    0 -0.40302644611E+02  0.81809954117E+02 -0.46346512165E+03  0.54061907677E+03  0.26296747978E+03 0.  0.
         25    1    4    4    0    0 -0.39432761175E+02  0.79116957567E+02 -0.25951161107E+03  0.30134402268E+03  0.12509000000E+03 0.  0.
         25    1    3    3    0    0  0.40302644611E+02 -0.81809954117E+02 -0.32952933531E+03  0.36408002236E+03  0.12509000000E+03 0.  0.
         25    1    4    4    0    0 -0.86988343661E+00  0.26929965500E+01 -0.20395351059E+03  0.23927505409E+03  0.12509000000E+03 0.  0.
<mgrwt>
<rscale>  2 0.43547704E+03</rscale>
<asrwt>0</asrwt>
<pdfrwt beam="1">  1       21 0.82135767E-02 0.43547704E+03</pdfrwt>
<pdfrwt beam="2">  1       21 0.12483041E+00 0.43547704E+03</pdfrwt>
<totfact> 0.50283957E+04</totfact>
</mgrwt>
</event>
<event>
 7    0  0.4750554E-002  0.4152873E+03  0.7546771E-02  0.1038611E+00
         21   -1    0    0  502  501  0.00000000000E+00  0.00000000000E+00  0.78558492038E+03  0.78558492038E+03  0.00000000000E+00 0. -1.
         21   -1    0    0  501  502 -0.00000000000E+00 -0.00000000000E+00 -0.54883799054E+02  0.54883799054E+02  0.00000000000E+00 0. -1.
      99926    2    1    2    0    0 -0.35527136788E-14  0.00000000000E+00  0.73070112132E+03  0.84046871943E+03  0.41528729771E+03 0.  0.
      99925    2    3    3    0    0  0.17934161798E+02 -0.53960102574E+02  0.39755144776E+03  0.48009455287E+03  0.26307850397E+03 0.  0.
         25    1    4    4    0    0 -0.14591348074E+02  0.45740852049E+01  0.16408015668E+03  0.20689039517E+03  0.12509000000E+03 0.  0.
         25    1    4    4    0    0  0.32525509871E+02 -0.58534187779E+02  0.23347129108E+03  0.27320415771E+03  0.12509000000E+03 0.  0.
         25    1    3    3    0    0 -0.17934161798E+02  0.53960102574E+02  0.33314967356E+03  0.36037416656E+03  0.12509000000E+03 0.  0.
<mgrwt>
<rscale>  2 0.41528730E+03</rscale>
<asrwt>0</asrwt>
<pdfrwt beam="1">  1       21 0.11552719E+00 0.41528730E+03</pdfrwt>
<pdfrwt beam="2">  1       21 0.80711474E-02 0.41528730E+03</pdfrwt>
<totfact> 0.63436982E+04</totfact>
</mgrwt>
</event>
<event>
 7    0  0.4750554E-002  0.4465912E+03  0.7546771E-02  0.1028743E+00
         21   -1    0    0  502  501  0.00000000000E+00  0.00000000000E+00  0.58250455984E+02  0.58250455984E+02  0.00000000000E+00 0. -1.
         21   -1    0    0  501  502 -0.00000000000E+00 -0.00000000000E+00 -0.85597482552E+03  0.85597482552E+03  0.00000000000E+00 0. -1.
      99926    2    1    2    0    0  0.00000000000E+00  0.00000000000E+00 -0.79772436954E+03  0.91422528150E+03  0.44659119515E+03 0.  0.
      99925    2    3    3    0    0  0.10191039750E+03  0.86292504735E+01 -0.45578065352E+03  0.53602797042E+03  0.26292544166E+03 0.  0.
         25    1    4    4    0    0  0.95966394747E+01 -0.41560868688E+01 -0.22071481879E+03  0.25391318965E+03  0.12509000000E+03 0.  0.
         25    1    4    4    0    0  0.92313758029E+02  0.12785337342E+02 -0.23506583473E+03  0.28211478077E+03  0.12509000000E+03 0.  0.
         25    1    3    3    0    0 -0.10191039750E+03 -0.86292504735E+01 -0.34194371602E+03  0.37819731108E+03  0.12509000000E+03 0.  0.
<mgrwt>
<rscale>  2 0.44659120E+03</rscale>
<asrwt>0</asrwt>
<pdfrwt beam="1">  1       21 0.85662444E-02 0.44659120E+03</pdfrwt>
<pdfrwt beam="2">  1       21 0.12587864E+00 0.44659120E+03</pdfrwt>
<totfact> 0.45547654E+04</totfact>
</mgrwt>
</event>
<event>
 7    0  0.4750554E-002  0.4576649E+03  0.7546771E-02  0.1025461E+00
         21   -1    0    0  502  501  0.00000000000E+00  0.00000000000E+00  0.40974546031E+03  0.40974546031E+03  0.00000000000E+00 0. -1.
         21   -1    0    0  501  502 -0.00000000000E+00 -0.00000000000E+00 -0.12779709359E+03  0.12779709359E+03  0.00000000000E+00 0. -1.
      99926    2    1    2    0    0 -0.35527136788E-14  0.00000000000E+00  0.28194836673E+03  0.53754255390E+03  0.45766485090E+03 0.  0.
      99925    2    3    3    0    0 -0.13012465157E+02  0.28710413394E+02  0.30768197301E+03  0.40600039838E+03  0.26301048435E+03 0.  0.
         25    1    4    4    0    0 -0.44014802962E+02  0.28216395741E+02  0.14602502587E+03  0.19925933892E+03  0.12509000000E+03 0.  0.
         25    1    3    3    0    0  0.13012465157E+02 -0.28710413394E+02 -0.25733606288E+02  0.13154215552E+03  0.12509000000E+03 0.  0.
         25    1    4    4    0    0  0.31002337805E+02  0.49401765380E+00  0.16165694715E+03  0.20674105945E+03  0.12509000000E+03 0.  0.
<mgrwt>
<rscale>  2 0.45766485E+03</rscale>
<asrwt>0</asrwt>
<pdfrwt beam="1">  1       21 0.60256685E-01 0.45766485E+03</pdfrwt>
<pdfrwt beam="2">  1       21 0.18793690E-01 0.45766485E+03</pdfrwt>
<totfact> 0.61391919E+04</totfact>
</mgrwt>
</event>
<event>
 7    0  0.4750554E-002  0.4566190E+03  0.7546771E-02  0.1025766E+00
         21   -1    0    0  502  501  0.00000000000E+00  0.00000000000E+00  0.28173443182E+03  0.28173443182E+03  0.00000000000E+00 0.  1.
         21   -1    0    0  501  502 -0.00000000000E+00 -0.00000000000E+00 -0.18501547235E+03  0.18501547235E+03  0.00000000000E+00 0.  1.
      99926    2    1    2    0    0  0.00000000000E+00  0.00000000000E+00  0.96718959471E+02  0.46674990416E+03  0.45661900521E+03 0.  0.
      99925    2    3    3    0    0 -0.23380822568E+02  0.10048496650E+03  0.11243998711E+03  0.30384333534E+03  0.26274346876E+03 0.  0.
         25    1    4    4    0    0  0.21754812280E+02  0.31711922998E+02  0.69052985441E+02  0.14796871567E+03  0.12509000000E+03 0.  0.
         25    1    3    3    0    0  0.23380822568E+02 -0.10048496650E+03 -0.15721027638E+02  0.16290656882E+03  0.12509000000E+03 0.  0.
         25    1    4    4    0    0 -0.45135634848E+02  0.68773043499E+02  0.43387001669E+02  0.15587461968E+03  0.12509000000E+03 0.  0.
<mgrwt>
<rscale>  2 0.45661901E+03</rscale>
<asrwt>0</asrwt>
<pdfrwt beam="1">  1       21 0.41431534E-01 0.45661901E+03</pdfrwt>
<pdfrwt beam="2">  1       21 0.27208158E-01 0.45661901E+03</pdfrwt>
<totfact> 0.66816567E+04</totfact>
</mgrwt>
</event>
<event>
 7    0  0.4750554E-002  0.4575372E+03  0.7546771E-02  0.1025498E+00
         21   -1    0    0  502  501  0.00000000000E+00  0.00000000000E+00  0.58144880443E+02  0.58144880443E+02  0.00000000000E+00 0.  1.
         21   -1    0    0  501  502 -0.00000000000E+00 -0.00000000000E+00 -0.90008036507E+03  0.90008036507E+03  0.00000000000E+00 0.  1.
      99926    2    1    2    0    0  0.00000000000E+00  0.13322676296E-14 -0.84193548463E+03  0.95822524551E+03  0.45753716883E+03 0.  0.
      99925    2    3    3    0    0  0.82265922518E+02  0.38804942799E+01 -0.69826413639E+03  0.75068800874E+03  0.26301509852E+03 0.  0.
         25    1    3    3    0    0 -0.82265922518E+02 -0.38804942799E+01 -0.14367134823E+03  0.20753723677E+03  0.12509000000E+03 0.  0.
         25    1    4    4    0    0  0.40012081294E+02  0.17993103720E+02 -0.45032516208E+03  0.46943048275E+03  0.12509000000E+03 0.  0.
         25    1    4    4    0    0  0.42253841224E+02 -0.14112609440E+02 -0.24793897431E+03  0.28125752599E+03  0.12509000000E+03 0.  0.
<mgrwt>
<rscale>  2 0.45753717E+03</rscale>
<asrwt>0</asrwt>
<pdfrwt beam="1">  1       21 0.85507191E-02 0.45753717E+03</pdfrwt>
<pdfrwt beam="2">  1       21 0.13236474E+00 0.45753717E+03</pdfrwt>
<totfact> 0.40009905E+04</totfact>
</mgrwt>
</event>
<event>
 7    0  0.4750554E-002  0.4544200E+03  0.7546771E-02  0.1026412E+00
         21   -1    0    0  502  501  0.00000000000E+00  0.00000000000E+00  0.96237360326E+03  0.96237360326E+03  0.00000000000E+00 0.  1.
         21   -1    0    0  501  502 -0.00000000000E+00 -0.00000000000E+00 -0.53642765688E+02  0.53642765688E+02  0.00000000000E+00 0.  1.
      99926    2    1    2    0    0  0.00000000000E+00 -0.71054273576E-14  0.90873083757E+03  0.10160163689E+04  0.45441998946E+03 0.  0.
      99925    2    3    3    0    0 -0.98657149950E+02  0.38456442697E+02  0.65805734324E+03  0.71652206169E+03  0.26296818567E+03 0.  0.
         25    1    3    3    0    0  0.98657149950E+02 -0.38456442697E+02  0.25067349433E+03  0.29949430726E+03  0.12509000000E+03 0.  0.
         25    1    4    4    0    0 -0.34780769172E+02  0.55779440984E+02  0.35315289261E+03  0.38037550079E+03  0.12509000000E+03 0.  0.
         25    1    4    4    0    0 -0.63876380777E+02 -0.17322998287E+02  0.30490445063E+03  0.33614656090E+03  0.12509000000E+03 0.  0.
<mgrwt>
<rscale>  2 0.45441999E+03</rscale>
<asrwt>0</asrwt>
<pdfrwt beam="1">  1       21 0.14152552E+00 0.45441999E+03</pdfrwt>
<pdfrwt beam="2">  1       21 0.78886426E-02 0.45441999E+03</pdfrwt>
<totfact> 0.38724617E+04</totfact>
</mgrwt>
</event>
<event>
 7    0  0.4750554E-002  0.3924165E+03  0.7546771E-02  0.1046438E+00
         21   -1    0    0  502  501  0.00000000000E+00  0.00000000000E+00  0.15558647456E+03  0.15558647456E+03  0.00000000000E+00 0.  1.
         21   -1    0    0  501  502 -0.00000000000E+00 -0.00000000000E+00 -0.24743584365E+03  0.24743584365E+03  0.00000000000E+00 0.  1.
      99926    2    1    2    0    0 -0.17763568394E-14 -0.35527136788E-14 -0.91849369092E+02  0.40302231822E+03  0.39241646548E+03 0.  0.
      99925    2    3    3    0    0  0.14840503154E+02  0.21329439321E+02 -0.52762302733E+02  0.26941658341E+03  0.26291871237E+03 0.  0.
         25    1    3    3    0    0 -0.14840503154E+02 -0.21329439321E+02 -0.39087066359E+02  0.13360573480E+03  0.12509000000E+03 0.  0.
         25    1    4    4    0    0  0.28343520822E+02 -0.23796544675E+02 -0.29484270776E+02  0.13374027454E+03  0.12509000000E+03 0.  0.
         25    1    4    4    0    0 -0.13503017668E+02  0.45125983996E+02 -0.23278031957E+02  0.13567630887E+03  0.12509000000E+03 0.  0.
<mgrwt>
<rscale>  2 0.39241647E+03</rscale>
<asrwt>0</asrwt>
<pdfrwt beam="1">  1       21 0.22880364E-01 0.39241647E+03</pdfrwt>
<pdfrwt beam="2">  1       21 0.36387624E-01 0.39241647E+03</pdfrwt>
<totfact> 0.12363917E+05</totfact>
</mgrwt>
</event>
<event>
 7    0  0.4750554E-002  0.4561221E+03  0.7546771E-02  0.1025912E+00
         21   -1    0    0  502  501  0.00000000000E+00  0.00000000000E+00  0.86512563649E+02  0.86512563649E+02  0.00000000000E+00 0. -1.
         21   -1    0    0  501  502 -0.00000000000E+00 -0.00000000000E+00 -0.60120564464E+03  0.60120564464E+03  0.00000000000E+00 0. -1.
      99926    2    1    2    0    0  0.71054273576E-14  0.00000000000E+00 -0.51469308099E+03  0.68771820829E+03  0.45612209593E+03 0.  0.
      99925    2    3    3    0    0 -0.40635340382E+02 -0.43286815947E+02 -0.47069696476E+03  0.54243178199E+03  0.26296696780E+03 0.  0.
         25    1    4    4    0    0 -0.50731239055E+02 -0.48896505980E+02 -0.23634922540E+03  0.27653750444E+03  0.12509000000E+03 0.  0.
         25    1    4    4    0    0  0.10095898672E+02  0.56096900329E+01 -0.23434773936E+03  0.26589427755E+03  0.12509000000E+03 0.  0.
         25    1    3    3    0    0  0.40635340382E+02  0.43286815947E+02 -0.43996116227E+02  0.14528642630E+03  0.12509000000E+03 0.  0.
<mgrwt>
<rscale>  2 0.45612210E+03</rscale>
<asrwt>0</asrwt>
<pdfrwt beam="1">  1       21 0.12722436E-01 0.45612210E+03</pdfrwt>
<pdfrwt beam="2">  1       21 0.88412596E-01 0.45612210E+03</pdfrwt>
<totfact> 0.53104354E+04</totfact>
</mgrwt>
</event>
<event>
 7    0  0.4750554E-002  0.4489809E+03  0.7546771E-02  0.1028026E+00
         21   -1    0    0  502  501  0.00000000000E+00  0.00000000000E+00  0.30400997641E+02  0.30400997641E+02  0.00000000000E+00 0.  1.
         21   -1    0    0  501  502 -0.00000000000E+00 -0.00000000000E+00 -0.16577073960E+04  0.16577073960E+04  0.00000000000E+00 0.  1.
      99926    2    1    2    0    0 -0.71054273576E-14  0.00000000000E+00 -0.16273063984E+04  0.16881083936E+04  0.44898088439E+03 0.  0.
      99925    2    3    3    0    0 -0.32787031814E+02 -0.44326552757E+02 -0.13764006823E+04  0.14023794675E+04  0.26296292542E+03 0.  0.
         25    1    4    4    0    0  0.23967484048E+02 -0.25600863094E+02 -0.64370993268E+03  0.65668853348E+03  0.12509000000E+03 0.  0.
         25    1    3    3    0    0  0.32787031814E+02  0.44326552757E+02 -0.25090571611E+03  0.28572892610E+03  0.12509000000E+03 0.  0.
         25    1    4    4    0    0 -0.56754515862E+02 -0.18725689663E+02 -0.73269074958E+03  0.74569093406E+03  0.12509000000E+03 0.  0.
<mgrwt>
<rscale>  2 0.44898088E+03</rscale>
<asrwt>0</asrwt>
<pdfrwt beam="1">  1       21 0.44707343E-02 0.44898088E+03</pdfrwt>
<pdfrwt beam="2">  1       21 0.24378053E+00 0.44898088E+03</pdfrwt>
<totfact> 0.20449232E+04</totfact>
</mgrwt>
</event>
<event>
 7    0  0.4750554E-002  0.4797637E+03  0.7546771E-02  0.1019200E+00
         21   -1    0    0  502  501  0.00000000000E+00  0.00000000000E+00  0.44987574630E+03  0.44987574630E+03  0.00000000000E+00 0. -1.
         21   -1    0    0  501  502 -0.00000000000E+00 -0.00000000000E+00 -0.12790932121E+03  0.12790932121E+03  0.00000000000E+00 0. -1.
      99926    2    1    2    0    0  0.00000000000E+00  0.00000000000E+00  0.32196642509E+03  0.57778506751E+03  0.47976369741E+03 0.  0.
      99925    2    3    3    0    0 -0.10118704827E+03  0.81799173086E+02  0.15476939161E+03  0.33175198120E+03  0.26301309662E+03 0.  0.
         25    1    3    3    0    0  0.10118704827E+03 -0.81799173086E+02  0.16719703347E+03  0.24603308631E+03  0.12509000000E+03 0.  0.
         25    1    4    4    0    0 -0.89413506118E+02  0.63854783822E+02  0.85560404821E+02  0.18719054321E+03  0.12509000000E+03 0.  0.
         25    1    4    4    0    0 -0.11773542155E+02  0.17944389264E+02  0.69208986792E+02  0.14456143799E+03  0.12509000000E+03 0.  0.
<mgrwt>
<rscale>  2 0.47976370E+03</rscale>
<asrwt>0</asrwt>
<pdfrwt beam="1">  1       21 0.66158197E-01 0.47976370E+03</pdfrwt>
<pdfrwt beam="2">  1       21 0.18810194E-01 0.47976370E+03</pdfrwt>
<totfact> 0.49614343E+04</totfact>
</mgrwt>
</event>
<event>
 7    0  0.4750554E-002  0.4595824E+03  0.7546771E-02  0.1024902E+00
         21   -1    0    0  502  501  0.00000000000E+00  0.00000000000E+00  0.18917929485E+03  0.18917929485E+03  0.00000000000E+00 0.  1.
         21   -1    0    0  501  502 -0.00000000000E+00 -0.00000000000E+00 -0.27912146784E+03  0.27912146784E+03  0.00000000000E+00 0.  1.
      99926    2    1    2    0    0  0.00000000000E+00 -0.14210854715E-13 -0.89942172996E+02  0.46830076269E+03  0.45958242988E+03 0.  0.
      99925    2    3    3    0    0  0.64634653910E+02  0.90296943483E+02 -0.17736612733E+02  0.28611314642E+03  0.26308737833E+03 0.  0.
         25    1    4    4    0    0  0.23104875247E+02  0.34344856031E+01 -0.15975316691E+02  0.12825112005E+03  0.12509000000E+03 0.  0.
         25    1    4    4    0    0  0.41529778663E+02  0.86862457880E+02 -0.17612960419E+01  0.15786202637E+03  0.12509000000E+03 0.  0.
         25    1    3    3    0    0 -0.64634653910E+02 -0.90296943483E+02 -0.72205560263E+02  0.18218761627E+03  0.12509000000E+03 0.  0.
<mgrwt>
<rscale>  2 0.45958243E+03</rscale>
<asrwt>0</asrwt>
<pdfrwt beam="1">  1       21 0.27820484E-01 0.45958243E+03</pdfrwt>
<pdfrwt beam="2">  1       21 0.41047275E-01 0.45958243E+03</pdfrwt>
<totfact> 0.65159789E+04</totfact>
</mgrwt>
</event>
<event>
 7    0  0.4750554E-002  0.4571468E+03  0.7546771E-02  0.1025612E+00
         21   -1    0    0  502  501  0.00000000000E+00  0.00000000000E+00  0.44467119182E+03  0.44467119182E+03  0.00000000000E+00 0. -1.
         21   -1    0    0  501  502 -0.00000000000E+00 -0.00000000000E+00 -0.11749310667E+03  0.11749310667E+03  0.00000000000E+00 0. -1.
      99926    2    1    2    0    0  0.71054273576E-14  0.00000000000E+00  0.32717808516E+03  0.56216429849E+03  0.45714680256E+03 0.  0.
      99925    2    3    3    0    0 -0.37225295447E+02  0.86221916791E+02  0.28759278165E+03  0.40081236665E+03  0.26290873634E+03 0.  0.
         25    1    3    3    0    0  0.37225295447E+02 -0.86221916791E+02  0.39585303504E+02  0.16135193184E+03  0.12509000000E+03 0.  0.
         25    1    4    4    0    0  0.31801336069E+01  0.14006182644E+02  0.10101324633E+03  0.16142326485E+03  0.12509000000E+03 0.  0.
         25    1    4    4    0    0 -0.40405429054E+02  0.72215734147E+02  0.18657953533E+03  0.23938910179E+03  0.12509000000E+03 0.  0.
<mgrwt>
<rscale>  2 0.45714680E+03</rscale>
<asrwt>0</asrwt>
<pdfrwt beam="1">  1       21 0.65392822E-01 0.45714680E+03</pdfrwt>
<pdfrwt beam="2">  1       21 0.17278398E-01 0.45714680E+03</pdfrwt>
<totfact> 0.60043710E+04</totfact>
</mgrwt>
</event>
<event>
 7    0  0.4750554E-002  0.4557501E+03  0.7546771E-02  0.1026021E+00
         21   -1    0    0  502  501  0.00000000000E+00  0.00000000000E+00  0.49907160176E+02  0.49907160176E+02  0.00000000000E+00 0.  1.
         21   -1    0    0  501  502 -0.00000000000E+00 -0.00000000000E+00 -0.10404728430E+04  0.10404728430E+04  0.00000000000E+00 0.  1.
      99926    2    1    2    0    0 -0.35527136788E-14  0.00000000000E+00 -0.99056568280E+03  0.10903800032E+04  0.45575012818E+03 0.  0.
      99925    2    3    3    0    0 -0.31169995242E+02  0.85293626510E+02 -0.45858332943E+03  0.53639507220E+03  0.26301032702E+03 0.  0.
         25    1    4    4    0    0  0.11395642875E+02  0.20390244536E+02 -0.16911811436E+03  0.21164609010E+03  0.12509000000E+03 0.  0.
         25    1    3    3    0    0  0.31169995242E+02 -0.85293626510E+02 -0.53198235337E+03  0.55398493096E+03  0.12509000000E+03 0.  0.
         25    1    4    4    0    0 -0.42565638116E+02  0.64903381974E+02 -0.28946521507E+03  0.32474898210E+03  0.12509000000E+03 0.  0.
<mgrwt>
<rscale>  2 0.45575013E+03</rscale>
<asrwt>0</asrwt>
<pdfrwt beam="1">  1       21 0.73392888E-02 0.45575013E+03</pdfrwt>
<pdfrwt beam="2">  1       21 0.15301070E+00 0.45575013E+03</pdfrwt>
<totfact> 0.35620704E+04</totfact>
</mgrwt>
</event>
<event>
 7    0  0.4750554E-002  0.4575407E+03  0.7546771E-02  0.1025497E+00
         21   -1    0    0  502  501  0.00000000000E+00  0.00000000000E+00  0.97196214243E+02  0.97196214243E+02  0.00000000000E+00 0.  1.
         21   -1    0    0  501  502 -0.00000000000E+00 -0.00000000000E+00 -0.53845585397E+03  0.53845585397E+03  0.00000000000E+00 0.  1.
      99926    2    1    2    0    0  0.00000000000E+00  0.00000000000E+00 -0.44125963973E+03  0.63565206821E+03  0.45754068909E+03 0.  0.
      99925    2    3    3    0    0 -0.24954265621E+02 -0.10159593753E+03 -0.34512739544E+03  0.44635503605E+03  0.26301226060E+03 0.  0.
         25    1    4    4    0    0  0.18850182679E+02 -0.62018545858E+02 -0.21077329011E+03  0.25352419478E+03  0.12509000000E+03 0.  0.
         25    1    4    4    0    0 -0.43804448299E+02 -0.39577391674E+02 -0.13435410533E+03  0.19283084126E+03  0.12509000000E+03 0.  0.
         25    1    3    3    0    0  0.24954265621E+02  0.10159593753E+03 -0.96132244287E+02  0.18929703217E+03  0.12509000000E+03 0.  0.
<mgrwt>
<rscale>  2 0.45754069E+03</rscale>
<asrwt>0</asrwt>
<pdfrwt beam="1">  1       21 0.14293561E-01 0.45754069E+03</pdfrwt>
<pdfrwt beam="2">  1       21 0.79184684E-01 0.45754069E+03</pdfrwt>
<totfact> 0.55416082E+04</totfact>
</mgrwt>
</event>
<event>
 7    0  0.4750554E-002  0.4511974E+03  0.7546771E-02  0.1027366E+00
         21   -1    0    0  502  501  0.00000000000E+00  0.00000000000E+00  0.17272725892E+03  0.17272725892E+03  0.00000000000E+00 0.  1.
         21   -1    0    0  501  502 -0.00000000000E+00 -0.00000000000E+00 -0.29465403591E+03  0.29465403591E+03  0.00000000000E+00 0.  1.
      99926    2    1    2    0    0  0.00000000000E+00  0.00000000000E+00 -0.12192677699E+03  0.46738129484E+03  0.45119744660E+03 0.  0.
      99925    2    3    3    0    0 -0.32599164538E+02  0.69065928526E+02 -0.15937844825E+03  0.31611020113E+03  0.26209036891E+03 0.  0.
         25    1    4    4    0    0  0.12439261998E+02  0.39869252684E+02 -0.10856426036E+03  0.17081568803E+03  0.12509000000E+03 0.  0.
         25    1    4    4    0    0 -0.45038426536E+02  0.29196675841E+02 -0.50814187890E+02  0.14529451310E+03  0.12509000000E+03 0.  0.
         25    1    3    3    0    0  0.32599164538E+02 -0.69065928526E+02  0.37451671263E+02  0.15127109371E+03  0.12509000000E+03 0.  0.
<mgrwt>
<rscale>  2 0.45119745E+03</rscale>
<asrwt>0</asrwt>
<pdfrwt beam="1">  1       21 0.25401068E-01 0.45119745E+03</pdfrwt>
<pdfrwt beam="2">  1       21 0.43331476E-01 0.45119745E+03</pdfrwt>
<totfact> 0.69710239E+04</totfact>
</mgrwt>
</event>
<event>
 7    0  0.4750554E-002  0.4527944E+03  0.7546771E-02  0.1026892E+00
         21   -1    0    0  502  501  0.00000000000E+00  0.00000000000E+00  0.56947212623E+02  0.56947212623E+02  0.00000000000E+00 0.  1.
         21   -1    0    0  501  502 -0.00000000000E+00 -0.00000000000E+00 -0.90005631375E+03  0.90005631375E+03  0.00000000000E+00 0.  1.
      99926    2    1    2    0    0  0.35527136788E-14  0.00000000000E+00 -0.84310910113E+03  0.95700352637E+03  0.45279442696E+03 0.  0.
      99925    2    3    3    0    0  0.26754910912E+02 -0.46593626970E+02 -0.73709060835E+03  0.78445144658E+03  0.26301086628E+03 0.  0.
         25    1    4    4    0    0  0.37720159411E+02 -0.49586283938E+02 -0.44700193678E+03  0.46833732455E+03  0.12509000000E+03 0.  0.
         25    1    3    3    0    0 -0.26754910912E+02  0.46593626970E+02 -0.10601849277E+03  0.17255207980E+03  0.12509000000E+03 0.  0.
         25    1    4    4    0    0 -0.10965248499E+02  0.29926569684E+01 -0.29008867157E+03  0.31611412203E+03  0.12509000000E+03 0.  0.
<mgrwt>
<rscale>  2 0.45279443E+03</rscale>
<asrwt>0</asrwt>
<pdfrwt beam="1">  1       21 0.83745908E-02 0.45279443E+03</pdfrwt>
<pdfrwt beam="2">  1       21 0.13236121E+00 0.45279443E+03</pdfrwt>
<totfact> 0.41570829E+04</totfact>
</mgrwt>
</event>
<event>
 7    0  0.4750554E-002  0.4532137E+03  0.7546771E-02  0.1026768E+00
         21   -1    0    0  502  501  0.00000000000E+00  0.00000000000E+00  0.79515630970E+02  0.79515630970E+02  0.00000000000E+00 0. -1.
         21   -1    0    0  501  502 -0.00000000000E+00 -0.00000000000E+00 -0.64579344804E+03  0.64579344804E+03  0.00000000000E+00 0. -1.
      99926    2    1    2    0    0  0.00000000000E+00  0.00000000000E+00 -0.56627781707E+03  0.72530907901E+03  0.45321373985E+03 0.  0.
      99925    2    3    3    0    0 -0.46467342914E+01  0.10581631945E+03 -0.41303522578E+03  0.50092216877E+03  0.26288064940E+03 0.  0.
         25    1    4    4    0    0 -0.26471893503E+02  0.32891786700E+02 -0.14959744554E+03  0.19952326829E+03  0.12509000000E+03 0.  0.
         25    1    3    3    0    0  0.46467342914E+01 -0.10581631945E+03 -0.15324259129E+03  0.22438691024E+03  0.12509000000E+03 0.  0.
         25    1    4    4    0    0  0.21825159212E+02  0.72924532751E+02 -0.26343778024E+03  0.30139890048E+03  0.12509000000E+03 0.  0.
<mgrwt>
<rscale>  2 0.45321374E+03</rscale>
<asrwt>0</asrwt>
<pdfrwt beam="1">  1       21 0.11693475E-01 0.45321374E+03</pdfrwt>
<pdfrwt beam="2">  1       21 0.94969627E-01 0.45321374E+03</pdfrwt>
<totfact> 0.52280908E+04</totfact>
</mgrwt>
</event>
<event>
 7    0  0.4750554E-002  0.4739421E+03  0.7546771E-02  0.1020813E+00
         21   -1    0    0  502  501  0.00000000000E+00  0.00000000000E+00  0.37756019063E+03  0.37756019063E+03  0.00000000000E+00 0. -1.
         21   -1    0    0  501  502 -0.00000000000E+00 -0.00000000000E+00 -0.14873199011E+03  0.14873199011E+03  0.00000000000E+00 0. -1.
      99926    2    1    2    0    0  0.00000000000E+00  0.00000000000E+00  0.22882820052E+03  0.52629218073E+03  0.47394210000E+03 0.  0.
      99925    2    3    3    0    0 -0.12761389422E+02 -0.94936788009E+02  0.23952403404E+03  0.36837525405E+03  0.26296904407E+03 0.  0.
         25    1    4    4    0    0 -0.32652302741E+01 -0.60745227967E+02  0.17402343182E+03  0.22278309490E+03  0.12509000000E+03 0.  0.
         25    1    3    3    0    0  0.12761389422E+02  0.94936788009E+02 -0.10695833521E+02  0.15791692668E+03  0.12509000000E+03 0.  0.
         25    1    4    4    0    0 -0.94961591478E+01 -0.34191560041E+02  0.65500602216E+02  0.14559215915E+03  0.12509000000E+03 0.  0.
<mgrwt>
<rscale>  2 0.47394210E+03</rscale>
<asrwt>0</asrwt>
<pdfrwt beam="1">  1       21 0.55523557E-01 0.47394210E+03</pdfrwt>
<pdfrwt beam="2">  1       21 0.21872352E-01 0.47394210E+03</pdfrwt>
<totfact> 0.54755877E+04</totfact>
</mgrwt>
</event>
<event>
 7    0  0.4750554E-002  0.4932621E+03  0.7546771E-02  0.1015553E+00
         21   -1    0    0  502  501  0.00000000000E+00  0.00000000000E+00  0.28361062986E+02  0.28361062986E+02  0.00000000000E+00 0.  1.
         21   -1    0    0  501  502 -0.00000000000E+00 -0.00000000000E+00 -0.21447322682E+04  0.21447322682E+04  0.00000000000E+00 0.  1.
      99926    2    1    2    0    0  0.14210854715E-13 -0.35527136788E-14 -0.21163712053E+04  0.21730933312E+04  0.49326214916E+03 0.  0.
      99925    2    3    3    0    0 -0.99407535679E+02  0.31076157724E+02 -0.83932438940E+03  0.88571472969E+03  0.26301628468E+03 0.  0.
         25    1    3    3    0    0  0.99407535679E+02 -0.31076157724E+02 -0.12770468159E+04  0.12873786016E+04  0.12509000000E+03 0.  0.
         25    1    4    4    0    0 -0.64394964087E+02  0.33433145161E+02 -0.33409960924E+03  0.36405294065E+03  0.12509000000E+03 0.  0.
         25    1    4    4    0    0 -0.35012571592E+02 -0.23569874378E+01 -0.50522478016E+03  0.52166178904E+03  0.12509000000E+03 0.  0.
<mgrwt>
<rscale>  2 0.49326215E+03</rscale>
<asrwt>0</asrwt>
<pdfrwt beam="1">  1       21 0.41707443E-02 0.49326215E+03</pdfrwt>
<pdfrwt beam="2">  1       21 0.31540183E+00 0.49326215E+03</pdfrwt>
<totfact> 0.83228010E+03</totfact>
</mgrwt>
</event>
<event>
 7    0  0.4750554E-002  0.4595531E+03  0.7546771E-02  0.1024911E+00
         21   -1    0    0  502  501  0.00000000000E+00  0.00000000000E+00  0.87204753307E+03  0.87204753307E+03  0.00000000000E+00 0. -1.
         21   -1    0    0  501  502 -0.00000000000E+00 -0.00000000000E+00 -0.60544022067E+02  0.60544022067E+02  0.00000000000E+00 0. -1.
      99926    2    1    2    0    0  0.00000000000E+00  0.00000000000E+00  0.81150351100E+03  0.93259155513E+03  0.45955310938E+03 0.  0.
      99925    2    3    3    0    0  0.23566787736E+02  0.84396348750E+02  0.66744073690E+03  0.72263982700E+03  0.26277946099E+03 0.  0.
         25    1    4    4    0    0  0.21039183680E+02  0.66122104158E+01  0.35932174767E+03  0.38111152571E+03  0.12509000000E+03 0.  0.
         25    1    4    4    0    0  0.25276040555E+01  0.77784138334E+02  0.30811898923E+03  0.34152830129E+03  0.12509000000E+03 0.  0.
         25    1    3    3    0    0 -0.23566787736E+02 -0.84396348750E+02  0.14406277410E+03  0.20995172814E+03  0.12509000000E+03 0.  0.
<mgrwt>
<rscale>  2 0.45955311E+03</rscale>
<asrwt>0</asrwt>
<pdfrwt beam="1">  1       21 0.12824228E+00 0.45955311E+03</pdfrwt>
<pdfrwt beam="2">  1       21 0.89035332E-02 0.45955311E+03</pdfrwt>
<totfact> 0.40396024E+04</totfact>
</mgrwt>
</event>
<event>
 7    0  0.4750554E-002  0.4538721E+03  0.7546771E-02  0.1026574E+00
         21   -1    0    0  502  501  0.00000000000E+00  0.00000000000E+00  0.86474153933E+02  0.86474153933E+02  0.00000000000E+00 0. -1.
         21   -1    0    0  501  502 -0.00000000000E+00 -0.00000000000E+00 -0.59555343688E+03  0.59555343688E+03  0.00000000000E+00 0. -1.
      99926    2    1    2    0    0 -0.26645352591E-14  0.00000000000E+00 -0.50907928295E+03  0.68202759081E+03  0.45387213872E+03 0.  0.
      99925    2    3    3    0    0  0.71476244372E+01  0.96536185890E+02 -0.23575159482E+03  0.36623358055E+03  0.26301691455E+03 0.  0.
         25    1    4    4    0    0  0.37081577576E+02  0.71819004931E+02 -0.11618281480E+03  0.18888876997E+03  0.12509000000E+03 0.  0.
         25    1    3    3    0    0 -0.71476244372E+01 -0.96536185890E+02 -0.27332768813E+03  0.31579401026E+03  0.12509000000E+03 0.  0.
         25    1    4    4    0    0 -0.29933953139E+02  0.24717180959E+02 -0.11956878002E+03  0.17734481058E+03  0.12509000000E+03 0.  0.
<mgrwt>
<rscale>  2 0.45387214E+03</rscale>
<asrwt>0</asrwt>
<pdfrwt beam="1">  1       21 0.12716787E-01 0.45387214E+03</pdfrwt>
<pdfrwt beam="2">  1       21 0.87581389E-01 0.45387214E+03</pdfrwt>
<totfact> 0.54371217E+04</totfact>
</mgrwt>
</event>
<event>
 7    0  0.4750554E-002  0.4543471E+03  0.7546771E-02  0.1026434E+00
         21   -1    0    0  502  501  0.00000000000E+00  0.00000000000E+00  0.23123678864E+03  0.23123678864E+03  0.00000000000E+00 0.  1.
         21   -1    0    0  501  502 -0.00000000000E+00 -0.00000000000E+00 -0.22318173902E+03  0.22318173902E+03  0.00000000000E+00 0.  1.
      99926    2    1    2    0    0  0.00000000000E+00  0.00000000000E+00  0.80550496237E+01  0.45441852766E+03  0.45434712991E+03 0.  0.
      99925    2    3    3    0    0  0.52950121097E+02 -0.63416300118E+02 -0.71572355255E+02  0.28467350077E+03  0.26285177869E+03 0.  0.
         25    1    3    3    0    0 -0.52950121097E+02  0.63416300118E+02  0.79627404879E+02  0.16974502689E+03  0.12509000000E+03 0.  0.
         25    1    4    4    0    0  0.33979588832E+02  0.30335865042E+01 -0.54873755448E+02  0.14079223076E+03  0.12509000000E+03 0.  0.
         25    1    4    4    0    0  0.18970532265E+02 -0.66449886622E+02 -0.16698599807E+02  0.14388127002E+03  0.12509000000E+03 0.  0.
<mgrwt>
<rscale>  2 0.45434713E+03</rscale>
<asrwt>0</asrwt>
<pdfrwt beam="1">  1       21 0.34005410E-01 0.45434713E+03</pdfrwt>
<pdfrwt beam="2">  1       21 0.32820844E-01 0.45434713E+03</pdfrwt>
<totfact> 0.68946873E+04</totfact>
</mgrwt>
</event>
<event>
 7    0  0.4750554E-002  0.4556130E+03  0.7546771E-02  0.1026061E+00
         21   -1    0    0  502  501  0.00000000000E+00  0.00000000000E+00  0.17411231439E+03  0.17411231439E+03  0.00000000000E+00 0.  1.
         21   -1    0    0  501  502 -0.00000000000E+00 -0.00000000000E+00 -0.29805928491E+03  0.29805928491E+03  0.00000000000E+00 0.  1.
      99926    2    1    2    0    0  0.00000000000E+00  0.00000000000E+00 -0.12394697052E+03  0.47217159930E+03  0.45561295820E+03 0.  0.
      99925    2    3    3    0    0  0.50054539747E+02  0.57495003042E+02  0.95759172235E+01  0.27396210917E+03  0.26296845200E+03 0.  0.
         25    1    3    3    0    0 -0.50054539747E+02 -0.57495003042E+02 -0.13352288774E+03  0.19820949013E+03  0.12509000000E+03 0.  0.
         25    1    4    4    0    0  0.92254333595E+01 -0.54573680377E+01 -0.13529672500E+02  0.12627530093E+03  0.12509000000E+03 0.  0.
         25    1    4    4    0    0  0.40829106387E+02  0.62952371080E+02  0.23105589724E+02  0.14768680824E+03  0.12509000000E+03 0.  0.
<mgrwt>
<rscale>  2 0.45561296E+03</rscale>
<asrwt>0</asrwt>
<pdfrwt beam="1">  1       21 0.25604752E-01 0.45561296E+03</pdfrwt>
<pdfrwt beam="2">  1       21 0.43832248E-01 0.45561296E+03</pdfrwt>
<totfact> 0.66948401E+04</totfact>
</mgrwt>
</event>
<event>
 7    0  0.4750554E-002  0.4519246E+03  0.7546771E-02  0.1027150E+00
         21   -1    0    0  502  501  0.00000000000E+00  0.00000000000E+00  0.14819644625E+04  0.14819644625E+04  0.00000000000E+00 0.  1.
         21   -1    0    0  501  502 -0.00000000000E+00 -0.00000000000E+00 -0.34453559228E+02  0.34453559228E+02  0.00000000000E+00 0.  1.
      99926    2    1    2    0    0  0.00000000000E+00  0.35527136788E-14  0.14475109032E+04  0.15164180217E+04  0.45192455291E+03 0.  0.
      99925    2    3    3    0    0 -0.72659677725E+02  0.20555797514E+02  0.11827422013E+04  0.12140077983E+04  0.26312326019E+03 0.  0.
         25    1    4    4    0    0 -0.35242236822E+02  0.48280149014E+02  0.66855744049E+03  0.68278074620E+03  0.12509000000E+03 0.  0.
         25    1    4    4    0    0 -0.37417440903E+02 -0.27724351500E+02  0.51418476079E+03  0.53122705209E+03  0.12509000000E+03 0.  0.
         25    1    3    3    0    0  0.72659677725E+02 -0.20555797514E+02  0.26476870195E+03  0.30241022339E+03  0.12509000000E+03 0.  0.
<mgrwt>
<rscale>  2 0.45192455E+03</rscale>
<asrwt>0</asrwt>
<pdfrwt beam="1">  1       21 0.21793591E+00 0.45192455E+03</pdfrwt>
<pdfrwt beam="2">  1       21 0.50667009E-02 0.45192455E+03</pdfrwt>
<totfact> 0.23946521E+04</totfact>
</mgrwt>
</event>
<event>
 7    0  0.4750554E-002  0.4582123E+03  0.7546771E-02  0.1025301E+00
         21   -1    0    0  502  501  0.00000000000E+00  0.00000000000E+00  0.12287846795E+03  0.12287846795E+03  0.00000000000E+00 0. -1.
         21   -1    0    0  501  502 -0.00000000000E+00 -0.00000000000E+00 -0.42716701981E+03  0.42716701981E+03  0.00000000000E+00 0. -1.
      99926    2    1    2    0    0  0.00000000000E+00  0.00000000000E+00 -0.30428855187E+03  0.55004548776E+03  0.45821230430E+03 0.  0.
      99925    2    3    3    0    0  0.25769911484E+02 -0.10130524910E+03 -0.12996797911E+03  0.31137833037E+03  0.26294095762E+03 0.  0.
         25    1    3    3    0    0 -0.25769911484E+02  0.10130524910E+03 -0.17432057275E+03  0.23866715739E+03  0.12509000000E+03 0.  0.
         25    1    4    4    0    0  0.11817752867E+02 -0.13325152725E+02 -0.36149288699E+02  0.13142107195E+03  0.12509000000E+03 0.  0.
         25    1    4    4    0    0  0.13952158617E+02 -0.87980096372E+02 -0.93818690413E+02  0.17995725842E+03  0.12509000000E+03 0.  0.
<mgrwt>
<rscale>  2 0.45821230E+03</rscale>
<asrwt>0</asrwt>
<pdfrwt beam="1">  1       21 0.18070363E-01 0.45821230E+03</pdfrwt>
<pdfrwt beam="2">  1       21 0.62818678E-01 0.45821230E+03</pdfrwt>
<totfact> 0.60315863E+04</totfact>
</mgrwt>
</event>
<event>
 7    0  0.4750554E-002  0.4520461E+03  0.7546771E-02  0.1027114E+00
         21   -1    0    0  502  501  0.00000000000E+00  0.00000000000E+00  0.60408269342E+02  0.60408269342E+02  0.00000000000E+00 0. -1.
         21   -1    0    0  501  502 -0.00000000000E+00 -0.00000000000E+00 -0.84568568303E+03  0.84568568303E+03  0.00000000000E+00 0. -1.
      99926    2    1    2    0    0  0.22204460493E-14 -0.13322676296E-14 -0.78527741369E+03  0.90609395238E+03  0.45204605305E+03 0.  0.
      99925    2    3    3    0    0 -0.31392808506E+01 -0.37879945814E+01 -0.27444027163E+03  0.38014119994E+03  0.26299366002E+03 0.  0.
         25    1    4    4    0    0  0.22375023346E+02 -0.33693620309E+02 -0.12626387395E+03  0.18227993769E+03  0.12509000000E+03 0.  0.
         25    1    3    3    0    0  0.31392808506E+01  0.37879945814E+01 -0.51083714206E+03  0.52595275244E+03  0.12509000000E+03 0.  0.
         25    1    4    4    0    0 -0.25514304196E+02  0.29905625728E+02 -0.14817639768E+03  0.19786126224E+03  0.12509000000E+03 0.  0.
<mgrwt>
<rscale>  2 0.45204605E+03</rscale>
<asrwt>0</asrwt>
<pdfrwt beam="1">  1       21 0.88835699E-02 0.45204605E+03</pdfrwt>
<pdfrwt beam="2">  1       21 0.12436553E+00 0.45204605E+03</pdfrwt>
<totfact> 0.43979460E+04</totfact>
</mgrwt>
</event>
<event>
 7    0  0.4750554E-002  0.4530885E+03  0.7546771E-02  0.1026805E+00
         21   -1    0    0  502  501  0.00000000000E+00  0.00000000000E+00  0.51588162058E+03  0.51588162058E+03  0.00000000000E+00 0. -1.
         21   -1    0    0  501  502 -0.00000000000E+00 -0.00000000000E+00 -0.99484651750E+02  0.99484651750E+02  0.00000000000E+00 0. -1.
      99926    2    1    2    0    0 -0.27755575616E-15  0.00000000000E+00  0.41639696883E+03  0.61536627233E+03  0.45308852719E+03 0.  0.
      99925    2    3    3    0    0  0.40507191369E+00 -0.66915433074E+02  0.14159763571E+03  0.30610906409E+03  0.26301146251E+03 0.  0.
         25    1    3    3    0    0 -0.40507191369E+00  0.66915433074E+02  0.27479933312E+03  0.30925720824E+03  0.12509000000E+03 0.  0.
         25    1    4    4    0    0 -0.24098876145E+02 -0.20959364551E+01  0.53762591761E+02  0.13828620016E+03  0.12509000000E+03 0.  0.
         25    1    4    4    0    0  0.24503948059E+02 -0.64819496619E+02  0.87835043952E+02  0.16782286393E+03  0.12509000000E+03 0.  0.
<mgrwt>
<rscale>  2 0.45308853E+03</rscale>
<asrwt>0</asrwt>
<pdfrwt beam="1">  1       21 0.75864943E-01 0.45308853E+03</pdfrwt>
<pdfrwt beam="2">  1       21 0.14630096E-01 0.45308853E+03</pdfrwt>
<totfact> 0.58622226E+04</totfact>
</mgrwt>
</event>
<event>
 7    0  0.4750554E-002  0.4741045E+03  0.7546771E-02  0.1020768E+00
         21   -1    0    0  502  501  0.00000000000E+00  0.00000000000E+00  0.73164675851E+03  0.73164675851E+03  0.00000000000E+00 0.  1.
         21   -1    0    0  501  502 -0.00000000000E+00 -0.00000000000E+00 -0.76804496538E+02  0.76804496538E+02  0.00000000000E+00 0.  1.
      99926    2    1    2    0    0  0.00000000000E+00  0.00000000000E+00  0.65484226197E+03  0.80845125505E+03  0.47410446499E+03 0.  0.
      99925    2    3    3    0    0 -0.86364834630E+02  0.93155786107E+02  0.35673072146E+03  0.46109713627E+03  0.26309100383E+03 0.  0.
         25    1    4    4    0    0 -0.47545883866E+02  0.83248119167E+02  0.16031184267E+03  0.22480715162E+03  0.12509000000E+03 0.  0.
         25    1    3    3    0    0  0.86364834630E+02 -0.93155786107E+02  0.29811154051E+03  0.34735411878E+03  0.12509000000E+03 0.  0.
         25    1    4    4    0    0 -0.38818950764E+02  0.99076669407E+01  0.19641887879E+03  0.23628998465E+03  0.12509000000E+03 0.  0.
<mgrwt>
<rscale>  2 0.47410446E+03</rscale>
<asrwt>0</asrwt>
<pdfrwt beam="1">  1       21 0.10759511E+00 0.47410446E+03</pdfrwt>
<pdfrwt beam="2">  1       21 0.11294779E-01 0.47410446E+03</pdfrwt>
<totfact> 0.40877202E+04</totfact>
</mgrwt>
</event>
<event>
 7    0  0.4750554E-002  0.4594389E+03  0.7546771E-02  0.1024944E+00
         21   -1    0    0  502  501  0.00000000000E+00  0.00000000000E+00  0.45714333292E+02  0.45714333292E+02  0.00000000000E+00 0. -1.
         21   -1    0    0  501  502 -0.00000000000E+00 -0.00000000000E+00 -0.11543647599E+04  0.11543647599E+04  0.00000000000E+00 0. -1.
      99926    2    1    2    0    0  0.00000000000E+00  0.00000000000E+00 -0.11086504266E+04  0.12000790932E+04  0.45943885502E+03 0.  0.
      99925    2    3    3    0    0 -0.96501511328E+02  0.20973260873E+02 -0.52988844934E+03  0.59977470891E+03  0.26305040076E+03 0.  0.
         25    1    4    4    0    0 -0.44474682780E+02  0.50041975925E+02 -0.28658088011E+03  0.31977852603E+03  0.12509000000E+03 0.  0.
         25    1    3    3    0    0  0.96501511328E+02 -0.20973260873E+02 -0.57876197727E+03  0.60030438429E+03  0.12509000000E+03 0.  0.
         25    1    4    4    0    0 -0.52026828548E+02 -0.29068715052E+02 -0.24330756923E+03  0.27999618288E+03  0.12509000000E+03 0.  0.
<mgrwt>
<rscale>  2 0.45943886E+03</rscale>
<asrwt>0</asrwt>
<pdfrwt beam="1">  1       21 0.67226973E-02 0.45943886E+03</pdfrwt>
<pdfrwt beam="2">  1       21 0.16975949E+00 0.45943886E+03</pdfrwt>
<totfact> 0.31065272E+04</totfact>
</mgrwt>
</event>
<event>
 7    0  0.4750554E-002  0.4568911E+03  0.7546771E-02  0.1025687E+00
         21   -1    0    0  502  501  0.00000000000E+00  0.00000000000E+00  0.11326539930E+03  0.11326539930E+03  0.00000000000E+00 0.  1.
         21   -1    0    0  501  502 -0.00000000000E+00 -0.00000000000E+00 -0.46075307217E+03  0.46075307217E+03  0.00000000000E+00 0.  1.
      99926    2    1    2    0    0  0.00000000000E+00  0.00000000000E+00 -0.34748767286E+03  0.57401847147E+03  0.45689114984E+03 0.  0.
      99925    2    3    3    0    0 -0.71986573189E+02 -0.58860480098E+02 -0.13323667737E+03  0.30907013687E+03  0.26291769525E+03 0.  0.
         25    1    3    3    0    0  0.71986573189E+02  0.58860480098E+02 -0.21425099549E+03  0.26494833460E+03  0.12509000000E+03 0.  0.
         25    1    4    4    0    0 -0.10268868167E+02 -0.13425597533E+02 -0.93498043034E+02  0.15708306234E+03  0.12509000000E+03 0.  0.
         25    1    4    4    0    0 -0.61717705022E+02 -0.45434882565E+02 -0.39738634337E+02  0.15198707454E+03  0.12509000000E+03 0.  0.
<mgrwt>
<rscale>  2 0.45689115E+03</rscale>
<asrwt>0</asrwt>
<pdfrwt beam="1">  1       21 0.16656676E-01 0.45689115E+03</pdfrwt>
<pdfrwt beam="2">  1       21 0.67757804E-01 0.45689115E+03</pdfrwt>
<totfact> 0.59413270E+04</totfact>
</mgrwt>
</event>
<event>
 7    0  0.4750554E-002  0.4546831E+03  0.7546771E-02  0.1026335E+00
         21   -1    0    0  502  501  0.00000000000E+00  0.00000000000E+00  0.43402267859E+03  0.43402267859E+03  0.00000000000E+00 0.  1.
         21   -1    0    0  501  502 -0.00000000000E+00 -0.00000000000E+00 -0.11908175744E+03  0.11908175744E+03  0.00000000000E+00 0.  1.
      99926    2    1    2    0    0  0.88817841970E-15  0.00000000000E+00  0.31494092115E+03  0.55310443604E+03  0.45468311311E+03 0.  0.
      99925    2    3    3    0    0 -0.62573783678E+01  0.19013401930E+02  0.63083672989E+02  0.27118202510E+03  0.26298189425E+03 0.  0.
         25    1    3    3    0    0  0.62573783678E+01 -0.19013401930E+02  0.25185724816E+03  0.28192241094E+03  0.12509000000E+03 0.  0.
         25    1    4    4    0    0 -0.23733575523E+02  0.44424368486E+02  0.35094094883E+02  0.13934098722E+03  0.12509000000E+03 0.  0.
         25    1    4    4    0    0  0.17476197155E+02 -0.25410966555E+02  0.27989578106E+02  0.13184103789E+03  0.12509000000E+03 0.  0.
<mgrwt>
<rscale>  2 0.45468311E+03</rscale>
<asrwt>0</asrwt>
<pdfrwt beam="1">  1       21 0.63826864E-01 0.45468311E+03</pdfrwt>
<pdfrwt beam="2">  1       21 0.17512023E-01 0.45468311E+03</pdfrwt>
<totfact> 0.61816661E+04</totfact>
</mgrwt>
</event>
<event>
 6    0  0.4750554E-002  0.4562799E+03  0.7546771E-02  0.1025866E+00
         21   -1    0    0  502  501  0.00000000000E+00  0.00000000000E+00  0.96132808449E+02  0.96132808449E+02  0.00000000000E+00 0.  1.
         21   -1    0    0  501  502 -0.00000000000E+00 -0.00000000000E+00 -0.54141585948E+03  0.54141585948E+03  0.00000000000E+00 0.  1.
      99926    2    1    2    0    0  0.00000000000E+00  0.14210854715E-13 -0.44528305103E+03  0.63754866793E+03  0.45627985759E+03 0.  0.
         25    1    3    3    0    0 -0.48266454123E+02  0.79456414367E+02 -0.20699484268E+03  0.25910875202E+03  0.12509000000E+03 0.  0.
         25    1    3    3    0    0  0.51365094186E+02 -0.98367260328E+02 -0.14304643298E+03  0.22005517693E+03  0.12509000000E+03 0.  0.
         25    1    3    3    0    0 -0.30986400624E+01  0.18910845961E+02 -0.95241775362E+02  0.15838473897E+03  0.12509000000E+03 0.  0.
<mgrwt>
<rscale>  2 0.45627986E+03</rscale>
<asrwt>0</asrwt>
<pdfrwt beam="1">  1       21 0.14137178E-01 0.45627986E+03</pdfrwt>
<pdfrwt beam="2">  1       21 0.79619978E-01 0.45627986E+03</pdfrwt>
<totfact> 0.55858209E+04</totfact>
</mgrwt>
</event>
<event>
 7    0  0.4750554E-002  0.4557067E+03  0.7546771E-02  0.1026034E+00
         21   -1    0    0  502  501  0.00000000000E+00  0.00000000000E+00  0.59167196347E+03  0.59167196347E+03  0.00000000000E+00 0. -1.
         21   -1    0    0  501  502 -0.00000000000E+00 -0.00000000000E+00 -0.87746500678E+02  0.87746500678E+02  0.00000000000E+00 0. -1.
      99926    2    1    2    0    0  0.00000000000E+00  0.00000000000E+00  0.50392546279E+03  0.67941846414E+03  0.45570667910E+03 0.  0.
      99925    2    3    3    0    0 -0.35959239868E+02 -0.89057995468E+02  0.40804902012E+03  0.49485358707E+03  0.26296706321E+03 0.  0.
         25    1    4    4    0    0  0.75358946898E+01 -0.25417810806E+02  0.23754155670E+03  0.26977092889E+03  0.12509000000E+03 0.  0.
         25    1    3    3    0    0  0.35959239868E+02  0.89057995468E+02  0.95876442672E+02  0.18456487707E+03  0.12509000000E+03 0.  0.
         25    1    4    4    0    0 -0.43495134558E+02 -0.63640184662E+02  0.17050746342E+03  0.22508265818E+03  0.12509000000E+03 0.  0.
<mgrwt>
<rscale>  2 0.45570668E+03</rscale>
<asrwt>0</asrwt>
<pdfrwt beam="1">  1       21 0.87010581E-01 0.45570668E+03</pdfrwt>
<pdfrwt beam="2">  1       21 0.12903897E-01 0.45570668E+03</pdfrwt>
<totfact> 0.53735517E+04</totfact>
</mgrwt>
</event>
<event>
 7    0  0.4750554E-002  0.4556603E+03  0.7546771E-02  0.1026047E+00
         21   -1    0    0  502  501  0.00000000000E+00  0.00000000000E+00  0.35869823480E+03  0.35869823480E+03  0.00000000000E+00 0.  1.
         21   -1    0    0  501  502 -0.00000000000E+00 -0.00000000000E+00 -0.14470820002E+03  0.14470820002E+03  0.00000000000E+00 0.  1.
      99926    2    1    2    0    0  0.00000000000E+00  0.00000000000E+00  0.21399003478E+03  0.50340643481E+03  0.45566029411E+03 0.  0.
      99925    2    3    3    0    0 -0.53045741786E+02 -0.10040823308E+03  0.14322080610E+03  0.32023586998E+03  0.26295084927E+03 0.  0.
         25    1    4    4    0    0 -0.23789865190E+02 -0.46305137534E+02  0.11566212691E+03  0.17814420886E+03  0.12509000000E+03 0.  0.
         25    1    4    4    0    0 -0.29255876597E+02 -0.54103095549E+02  0.27558679196E+02  0.14209166113E+03  0.12509000000E+03 0.  0.
         25    1    3    3    0    0  0.53045741786E+02  0.10040823308E+03  0.70769228674E+02  0.18317056483E+03  0.12509000000E+03 0.  0.
<mgrwt>
<rscale>  2 0.45566029E+03</rscale>
<asrwt>0</asrwt>
<pdfrwt beam="1">  1       21 0.52749740E-01 0.45566029E+03</pdfrwt>
<pdfrwt beam="2">  1       21 0.21280618E-01 0.45566029E+03</pdfrwt>
<totfact> 0.64692279E+04</totfact>
</mgrwt>
</event>
<event>
 7    0  0.4750554E-002  0.4581201E+03  0.7546771E-02  0.1025328E+00
         21   -1    0    0  502  501  0.00000000000E+00  0.00000000000E+00  0.92882530987E+02  0.92882530987E+02  0.00000000000E+00 0. -1.
         21   -1    0    0  501  502 -0.00000000000E+00 -0.00000000000E+00 -0.56489111573E+03  0.56489111573E+03  0.00000000000E+00 0. -1.
      99926    2    1    2    0    0  0.44408920985E-15  0.00000000000E+00 -0.47200858474E+03  0.65777364672E+03  0.45812014390E+03 0.  0.
      99925    2    3    3    0    0 -0.26685198828E+01 -0.82706643336E+02 -0.41307191312E+03  0.49662604601E+03  0.26298576829E+03 0.  0.
         25    1    3    3    0    0  0.26685198828E+01  0.82706643336E+02 -0.58936671628E+02  0.16114760070E+03  0.12509000000E+03 0.  0.
         25    1    4    4    0    0 -0.20742465557E+02 -0.61163428925E+01 -0.17025597267E+03  0.21237293579E+03  0.12509000000E+03 0.  0.
         25    1    4    4    0    0  0.18073945674E+02 -0.76590300444E+02 -0.24281594045E+03  0.28425311022E+03  0.12509000000E+03 0.  0.
<mgrwt>
<rscale>  2 0.45812014E+03</rscale>
<asrwt>0</asrwt>
<pdfrwt beam="1">  1       21 0.13659196E-01 0.45812014E+03</pdfrwt>
<pdfrwt beam="2">  1       21 0.83072224E-01 0.45812014E+03</pdfrwt>
<totfact> 0.53916693E+04</totfact>
</mgrwt>
</event>
<event>
 7    0  0.4750554E-002  0.4525180E+03  0.7546771E-02  0.1026974E+00
         21   -1    0    0  502  501  0.00000000000E+00  0.00000000000E+00  0.12576560255E+03  0.12576560255E+03  0.00000000000E+00 0.  1.
         21   -1    0    0  501  502 -0.00000000000E+00 -0.00000000000E+00 -0.40705197792E+03  0.40705197792E+03  0.00000000000E+00 0.  1.
      99926    2    1    2    0    0  0.00000000000E+00  0.00000000000E+00 -0.28128637537E+03  0.53281758047E+03  0.45251800969E+03 0.  0.
      99925    2    3    3    0    0 -0.25404881901E+02  0.80170338364E+02 -0.26229832502E+03  0.38089409534E+03  0.26307263138E+03 0.  0.
         25    1    4    4    0    0  0.18900341467E+02  0.63648344748E+02 -0.12004339291E+03  0.18565090621E+03  0.12509000000E+03 0.  0.
         25    1    3    3    0    0  0.25404881901E+02 -0.80170338364E+02 -0.18988050349E+02  0.15192348513E+03  0.12509000000E+03 0.  0.
         25    1    4    4    0    0 -0.44305223368E+02  0.16521993616E+02 -0.14225493212E+03  0.19524318913E+03  0.12509000000E+03 0.  0.
<mgrwt>
<rscale>  2 0.45251801E+03</rscale>
<asrwt>0</asrwt>
<pdfrwt beam="1">  1       21 0.18494942E-01 0.45251801E+03</pdfrwt>
<pdfrwt beam="2">  1       21 0.59860584E-01 0.45251801E+03</pdfrwt>
<totfact> 0.64269773E+04</totfact>
</mgrwt>
</event>
<event>
 7    0  0.4750554E-002  0.4565857E+03  0.7546771E-02  0.1025776E+00
         21   -1    0    0  502  501  0.00000000000E+00  0.00000000000E+00  0.11606806827E+03  0.11606806827E+03  0.00000000000E+00 0. -1.
         21   -1    0    0  501  502 -0.00000000000E+00 -0.00000000000E+00 -0.44902639043E+03  0.44902639043E+03  0.00000000000E+00 0. -1.
      99926    2    1    2    0    0  0.00000000000E+00  0.00000000000E+00 -0.33295832216E+03  0.56509445870E+03  0.45658570166E+03 0.  0.
      99925    2    3    3    0    0 -0.10475193566E+03  0.18067464347E+01 -0.26763012331E+03  0.38933463957E+03  0.26263919416E+03 0.  0.
         25    1    4    4    0    0 -0.59472269812E+02  0.37934896859E+02 -0.15519650245E+03  0.21144613912E+03  0.12509000000E+03 0.  0.
         25    1    4    4    0    0 -0.45279665843E+02 -0.36128150425E+02 -0.11243362086E+03  0.17788850045E+03  0.12509000000E+03 0.  0.
         25    1    3    3    0    0  0.10475193566E+03 -0.18067464347E+01 -0.65328198846E+02  0.17575981913E+03  0.12509000000E+03 0.  0.
<mgrwt>
<rscale>  2 0.45658570E+03</rscale>
<asrwt>0</asrwt>
<pdfrwt beam="1">  1       21 0.17068833E-01 0.45658570E+03</pdfrwt>
<pdfrwt beam="2">  1       21 0.66033293E-01 0.45658570E+03</pdfrwt>
<totfact> 0.60122384E+04</totfact>
</mgrwt>
</event>
<event>
 7    0  0.4750554E-002  0.4506226E+03  0.7546771E-02  0.1027537E+00
         21   -1    0    0  502  501  0.00000000000E+00  0.00000000000E+00  0.47572648756E+03  0.47572648756E+03  0.00000000000E+00 0. -1.
         21   -1    0    0  501  502 -0.00000000000E+00 -0.00000000000E+00 -0.10671084005E+03  0.10671084005E+03  0.00000000000E+00 0. -1.
      99926    2    1    2    0    0  0.00000000000E+00  0.00000000000E+00  0.36901564752E+03  0.58243732761E+03  0.45062256100E+03 0.  0.
      99925    2    3    3    0    0 -0.12065955640E+02 -0.73439510521E+02  0.13010496319E+03  0.30267891008E+03  0.26296059053E+03 0.  0.
         25    1    3    3    0    0  0.12065955640E+02  0.73439510521E+02  0.23891068433E+03  0.27975841753E+03  0.12509000000E+03 0.  0.
         25    1    4    4    0    0 -0.40832666455E+02 -0.37727003000E+02  0.88900366219E+02  0.16322198571E+03  0.12509000000E+03 0.  0.
         25    1    4    4    0    0  0.28766710815E+02 -0.35712507521E+02  0.41204596970E+02  0.13945692437E+03  0.12509000000E+03 0.  0.
<mgrwt>
<rscale>  2 0.45062256E+03</rscale>
<asrwt>0</asrwt>
<pdfrwt beam="1">  1       21 0.69959777E-01 0.45062256E+03</pdfrwt>
<pdfrwt beam="2">  1       21 0.15692771E-01 0.45062256E+03</pdfrwt>
<totfact> 0.61886400E+04</totfact>
</mgrwt>
</event>
<event>
 7    0  0.4750554E-002  0.4549069E+03  0.7546771E-02  0.1026269E+00
         21   -1    0    0  502  501  0.00000000000E+00  0.00000000000E+00  0.97832920916E+03  0.97832920916E+03  0.00000000000E+00 0. -1.
         21   -1    0    0  501  502 -0.00000000000E+00 -0.00000000000E+00 -0.52881040476E+02  0.52881040476E+02  0.00000000000E+00 0. -1.
      99926    2    1    2    0    0  0.26645352591E-14  0.00000000000E+00  0.92544816868E+03  0.10312102496E+04  0.45490687622E+03 0.  0.
      99925    2    3    3    0    0  0.44015783183E+01 -0.96627517543E+02  0.71521138186E+03  0.76814511384E+03  0.26298924718E+03 0.  0.
         25    1    4    4    0    0  0.19529395060E+02 -0.74693411885E+02  0.30720307141E+03  0.34056091707E+03  0.12509000000E+03 0.  0.
         25    1    4    4    0    0 -0.15127816742E+02 -0.21934105658E+02  0.40800831045E+03  0.42758419677E+03  0.12509000000E+03 0.  0.
         25    1    3    3    0    0 -0.44015783183E+01  0.96627517543E+02  0.21023678682E+03  0.26306513579E+03  0.12509000000E+03 0.  0.
<mgrwt>
<rscale>  2 0.45490688E+03</rscale>
<asrwt>0</asrwt>
<pdfrwt beam="1">  1       21 0.14387193E+00 0.45490688E+03</pdfrwt>
<pdfrwt beam="2">  1       21 0.77766242E-02 0.45490688E+03</pdfrwt>
<totfact> 0.38002115E+04</totfact>
</mgrwt>
</event>
<event>
 7    0  0.4750554E-002  0.4587548E+03  0.7546771E-02  0.1025143E+00
         21   -1    0    0  502  501  0.00000000000E+00  0.00000000000E+00  0.69845597092E+03  0.69845597092E+03  0.00000000000E+00 0.  1.
         21   -1    0    0  501  502 -0.00000000000E+00 -0.00000000000E+00 -0.75329018605E+02  0.75329018605E+02  0.00000000000E+00 0.  1.
      99926    2    1    2    0    0  0.00000000000E+00  0.00000000000E+00  0.62312695231E+03  0.77378498952E+03  0.45875484882E+03 0.  0.
      99925    2    3    3    0    0  0.68055334865E+01 -0.44497186701E+02  0.57246537361E+03  0.63151616452E+03  0.26281123864E+03 0.  0.
         25    1    4    4    0    0  0.92951536642E+01  0.18075145949E+02  0.27584275559E+03  0.30356192893E+03  0.12509000000E+03 0.  0.
         25    1    4    4    0    0 -0.24896201777E+01 -0.62572332650E+02  0.29662261802E+03  0.32795423559E+03  0.12509000000E+03 0.  0.
         25    1    3    3    0    0 -0.68055334865E+01  0.44497186701E+02  0.50661578698E+02  0.14226882500E+03  0.12509000000E+03 0.  0.
<mgrwt>
<rscale>  2 0.45875485E+03</rscale>
<asrwt>0</asrwt>
<pdfrwt beam="1">  1       21 0.10271411E+00 0.45875485E+03</pdfrwt>
<pdfrwt beam="2">  1       21 0.11077797E-01 0.45875485E+03</pdfrwt>
<totfact> 0.47639205E+04</totfact>
</mgrwt>
</event>
<event>
 7    0  0.4750554E-002  0.4549366E+03  0.7546771E-02  0.1026260E+00
         21   -1    0    0  502  501  0.00000000000E+00  0.00000000000E+00  0.69407650864E+03  0.69407650864E+03  0.00000000000E+00 0.  1.
         21   -1    0    0  501  502 -0.00000000000E+00 -0.00000000000E+00 -0.74547735266E+02  0.74547735266E+02  0.00000000000E+00 0.  1.
      99926    2    1    2    0    0  0.00000000000E+00  0.00000000000E+00  0.61952877338E+03  0.76862424391E+03  0.45493661897E+03 0.  0.
      99925    2    3    3    0    0  0.97357613524E+02  0.40461650895E+02  0.31949163759E+03  0.42688539470E+03  0.26275574897E+03 0.  0.
         25    1    4    4    0    0  0.56407560462E+02  0.51770819744E+02  0.13060784365E+03  0.19638723883E+03  0.12509000000E+03 0.  0.
         25    1    4    4    0    0  0.40950053062E+02 -0.11309168849E+02  0.18888379394E+03  0.23049815587E+03  0.12509000000E+03 0.  0.
         25    1    3    3    0    0 -0.97357613524E+02 -0.40461650895E+02  0.30003713579E+03  0.34173884921E+03  0.12509000000E+03 0.  0.
<mgrwt>
<rscale>  2 0.45493662E+03</rscale>
<asrwt>0</asrwt>
<pdfrwt beam="1">  1       21 0.10207007E+00 0.45493662E+03</pdfrwt>
<pdfrwt beam="2">  1       21 0.10962903E-01 0.45493662E+03</pdfrwt>
<totfact> 0.49344322E+04</totfact>
</mgrwt>
</event>
<event>
 7    0  0.4750554E-002  0.4622115E+03  0.7546771E-02  0.1024142E+00
         21   -1    0    0  502  501  0.00000000000E+00  0.00000000000E+00  0.61177639268E+02  0.61177639268E+02  0.00000000000E+00 0.  1.
         21   -1    0    0  501  502 -0.00000000000E+00 -0.00000000000E+00 -0.87302919834E+03  0.87302919834E+03  0.00000000000E+00 0.  1.
      99926    2    1    2    0    0  0.00000000000E+00  0.00000000000E+00 -0.81185155907E+03  0.93420683760E+03  0.46221148997E+03 0.  0.
      99925    2    3    3    0    0 -0.10073270806E+03 -0.34422034715E+02 -0.39499407622E+03  0.48615592080E+03  0.26266957214E+03 0.  0.
         25    1    4    4    0    0 -0.27335313757E+02 -0.21253563096E+01 -0.13084240651E+03  0.18308189413E+03  0.12509000000E+03 0.  0.
         25    1    3    3    0    0  0.10073270806E+03  0.34422034715E+02 -0.41685748285E+03  0.44805091681E+03  0.12509000000E+03 0.  0.
         25    1    4    4    0    0 -0.73397394305E+02 -0.32296678406E+02 -0.26415166971E+03  0.30307402666E+03  0.12509000000E+03 0.  0.
<mgrwt>
<rscale>  2 0.46221149E+03</rscale>
<asrwt>0</asrwt>
<pdfrwt beam="1">  1       21 0.89967118E-02 0.46221149E+03</pdfrwt>
<pdfrwt beam="2">  1       21 0.12838664E+00 0.46221149E+03</pdfrwt>
<totfact> 0.39510514E+04</totfact>
</mgrwt>
</event>
<event>
 7    0  0.4750554E-002  0.4482772E+03  0.7546771E-02  0.1028237E+00
         21   -1    0    0  502  501  0.00000000000E+00  0.00000000000E+00  0.23027802603E+04  0.23027802603E+04  0.00000000000E+00 0. -1.
         21   -1    0    0  501  502 -0.00000000000E+00 -0.00000000000E+00 -0.21816282748E+02  0.21816282748E+02  0.00000000000E+00 0. -1.
      99926    2    1    2    0    0  0.00000000000E+00 -0.17763568394E-14  0.22809639776E+04  0.23245965431E+04  0.44827716991E+03 0.  0.
      99925    2    3    3    0    0 -0.84615503595E+02 -0.11006574744E+02  0.11141712508E+04  0.11480194298E+04  0.26323014063E+03 0.  0.
         25    1    3    3    0    0  0.84615503595E+02  0.11006574744E+02  0.11667927268E+04  0.11765771133E+04  0.12509000000E+03 0.  0.
         25    1    4    4    0    0 -0.89360327302E+01  0.18639998679E+02  0.47000436808E+03  0.48680480312E+03  0.12509000000E+03 0.  0.
         25    1    4    4    0    0 -0.75679470864E+02 -0.29646573422E+02  0.64416688273E+03  0.66121462668E+03  0.12509000000E+03 0.  0.
<mgrwt>
<rscale>  2 0.44827717E+03</rscale>
<asrwt>0</asrwt>
<pdfrwt beam="1">  1       21 0.33864399E+00 0.44827717E+03</pdfrwt>
<pdfrwt beam="2">  1       21 0.32082785E-02 0.44827717E+03</pdfrwt>
<totfact> 0.95885825E+03</totfact>
</mgrwt>
</event>
<event>
 7    0  0.4750554E-002  0.4534847E+03  0.7546771E-02  0.1026688E+00
         21   -1    0    0  502  501  0.00000000000E+00  0.00000000000E+00  0.54643026251E+03  0.54643026251E+03  0.00000000000E+00 0. -1.
         21   -1    0    0  501  502 -0.00000000000E+00 -0.00000000000E+00 -0.94087182295E+02  0.94087182295E+02  0.00000000000E+00 0. -1.
      99926    2    1    2    0    0  0.00000000000E+00  0.00000000000E+00  0.45234308022E+03  0.64051744481E+03  0.45348465782E+03 0.  0.
      99925    2    3    3    0    0 -0.55626510100E+02  0.10216609135E+02  0.42089120254E+03  0.49967918141E+03  0.26330816969E+03 0.  0.
         25    1    3    3    0    0  0.55626510100E+02 -0.10216609135E+02  0.31451877672E+02  0.14083826340E+03  0.12509000000E+03 0.  0.
         25    1    4    4    0    0 -0.55567619616E+02 -0.23799664406E+02  0.19906235853E+03  0.24274990229E+03  0.12509000000E+03 0.  0.
         25    1    4    4    0    0 -0.58890483513E-01  0.34016273542E+02  0.22182884401E+03  0.25692927912E+03  0.12509000000E+03 0.  0.
<mgrwt>
<rscale>  2 0.45348466E+03</rscale>
<asrwt>0</asrwt>
<pdfrwt beam="1">  1       21 0.80357390E-01 0.45348466E+03</pdfrwt>
<pdfrwt beam="2">  1       21 0.13836351E-01 0.45348466E+03</pdfrwt>
<totfact> 0.56928819E+04</totfact>
</mgrwt>
</event>
<event>
 7    0  0.4750554E-002  0.4455952E+03  0.7546771E-02  0.1029044E+00
         21   -1    0    0  502  501  0.00000000000E+00  0.00000000000E+00  0.24731680539E+03  0.24731680539E+03  0.00000000000E+00 0.  1.
         21   -1    0    0  501  502 -0.00000000000E+00 -0.00000000000E+00 -0.20070924746E+03  0.20070924746E+03  0.00000000000E+00 0.  1.
      99926    2    1    2    0    0  0.00000000000E+00  0.88817841970E-15  0.46607557930E+02  0.44802605284E+03  0.44559519698E+03 0.  0.
      99925    2    3    3    0    0 -0.98005134985E+02  0.31083886666E+01 -0.55166710751E+01  0.28075647428E+03  0.26301919251E+03 0.  0.
         25    1    4    4    0    0 -0.80760602376E+02 -0.25823230278E+02 -0.62802616825E+00  0.15111921332E+03  0.12509000000E+03 0.  0.
         25    1    3    3    0    0  0.98005134985E+02 -0.31083886666E+01  0.52124229005E+02  0.16726957856E+03  0.12509000000E+03 0.  0.
         25    1    4    4    0    0 -0.17244532609E+02  0.28931618945E+02 -0.48886449068E+01  0.12963726096E+03  0.12509000000E+03 0.  0.
<mgrwt>
<rscale>  2 0.44559520E+03</rscale>
<asrwt>0</asrwt>
<pdfrwt beam="1">  1       21 0.36370119E-01 0.44559520E+03</pdfrwt>
<pdfrwt beam="2">  1       21 0.29516066E-01 0.44559520E+03</pdfrwt>
<totfact> 0.74494543E+04</totfact>
</mgrwt>
</event>
<event>
 7    0  0.4750554E-002  0.4494061E+03  0.7546771E-02  0.1027899E+00
         21   -1    0    0  502  501  0.00000000000E+00  0.00000000000E+00  0.43349149335E+02  0.43349149335E+02  0.00000000000E+00 0. -1.
         21   -1    0    0  501  502 -0.00000000000E+00 -0.00000000000E+00 -0.11647624390E+04  0.11647624390E+04  0.00000000000E+00 0. -1.
      99926    2    1    2    0    0  0.88817841970E-15  0.14210854715E-13 -0.11214132896E+04  0.12081115883E+04  0.44940610101E+03 0.  0.
      99925    2    3    3    0    0 -0.79993075239E+01 -0.81001367041E+02 -0.89855316870E+03  0.93989646572E+03  0.26340531296E+03 0.  0.
         25    1    3    3    0    0  0.79993075239E+01  0.81001367041E+02 -0.22286012094E+03  0.26821512259E+03  0.12509000000E+03 0.  0.
         25    1    4    4    0    0 -0.83990545441E+01  0.45886270641E+00 -0.45121107433E+03  0.46830513170E+03  0.12509000000E+03 0.  0.
         25    1    4    4    0    0  0.39974702026E+00 -0.81460229748E+02 -0.44734209437E+03  0.47159133402E+03  0.12509000000E+03 0.  0.
<mgrwt>
<rscale>  2 0.44940610E+03</rscale>
<asrwt>0</asrwt>
<pdfrwt beam="1">  1       21 0.63748746E-02 0.44940610E+03</pdfrwt>
<pdfrwt beam="2">  1       21 0.17128860E+00 0.44940610E+03</pdfrwt>
<totfact> 0.33328610E+04</totfact>
</mgrwt>
</event>
<event>
 7    0  0.4750554E-002  0.4572941E+03  0.7546771E-02  0.1025569E+00
         21   -1    0    0  502  501  0.00000000000E+00  0.00000000000E+00  0.85137254918E+03  0.85137254918E+03  0.00000000000E+00 0.  1.
         21   -1    0    0  501  502 -0.00000000000E+00 -0.00000000000E+00 -0.61406110690E+02  0.61406110690E+02  0.00000000000E+00 0.  1.
      99926    2    1    2    0    0  0.00000000000E+00  0.00000000000E+00  0.78996643849E+03  0.91277865987E+03  0.45729411539E+03 0.  0.
      99925    2    3    3    0    0 -0.11346887140E+02 -0.84281158636E+02  0.65155437950E+03  0.70774824329E+03  0.26296844086E+03 0.  0.
         25    1    3    3    0    0  0.11346887140E+02  0.84281158636E+02  0.13841205899E+03  0.20503041658E+03  0.12509000000E+03 0.  0.
         25    1    4    4    0    0  0.16696057882E+02 -0.57665872582E+02  0.41218108798E+03  0.43490788518E+03  0.12509000000E+03 0.  0.
         25    1    4    4    0    0 -0.28042945021E+02 -0.26615286054E+02  0.23937329152E+03  0.27284035811E+03  0.12509000000E+03 0.  0.
<mgrwt>
<rscale>  2 0.45729412E+03</rscale>
<asrwt>0</asrwt>
<pdfrwt beam="1">  1       21 0.12520184E+00 0.45729412E+03</pdfrwt>
<pdfrwt beam="2">  1       21 0.90303109E-02 0.45729412E+03</pdfrwt>
<totfact> 0.41927821E+04</totfact>
</mgrwt>
</event>
<event>
 7    0  0.4750554E-002  0.4733863E+03  0.7546771E-02  0.1020969E+00
         21   -1    0    0  502  501  0.00000000000E+00  0.00000000000E+00  0.13219892488E+03  0.13219892488E+03  0.00000000000E+00 0. -1.
         21   -1    0    0  501  502 -0.00000000000E+00 -0.00000000000E+00 -0.42378287177E+03  0.42378287177E+03  0.00000000000E+00 0. -1.
      99926    2    1    2    0    0  0.71054273576E-14  0.00000000000E+00 -0.29158394690E+03  0.55598179665E+03  0.47338626947E+03 0.  0.
      99925    2    3    3    0    0  0.56309875205E+02 -0.49453391358E+02 -0.30512674641E+03  0.40953264001E+03  0.26267510711E+03 0.  0.
         25    1    3    3    0    0 -0.56309875205E+02  0.49453391358E+02  0.13542799514E+02  0.14644915664E+03  0.12509000000E+03 0.  0.
         25    1    4    4    0    0 -0.10141146221E+02 -0.93116951747E+01 -0.14582296098E+03  0.19261722292E+03  0.12509000000E+03 0.  0.
         25    1    4    4    0    0  0.66451021425E+02 -0.40141696183E+02 -0.15930378543E+03  0.21691541709E+03  0.12509000000E+03 0.  0.
<mgrwt>
<rscale>  2 0.47338627E+03</rscale>
<asrwt>0</asrwt>
<pdfrwt beam="1">  1       21 0.19441019E-01 0.47338627E+03</pdfrwt>
<pdfrwt beam="2">  1       21 0.62321010E-01 0.47338627E+03</pdfrwt>
<totfact> 0.53285276E+04</totfact>
</mgrwt>
</event>
<event>
 7    0  0.4750554E-002  0.4534875E+03  0.7546771E-02  0.1026687E+00
         21   -1    0    0  502  501  0.00000000000E+00  0.00000000000E+00  0.21013284234E+03  0.21013284234E+03  0.00000000000E+00 0.  1.
         21   -1    0    0  501  502 -0.00000000000E+00 -0.00000000000E+00 -0.24466774722E+03  0.24466774722E+03  0.00000000000E+00 0.  1.
      99926    2    1    2    0    0  0.00000000000E+00  0.00000000000E+00 -0.34534904877E+02  0.45480058957E+03  0.45348750436E+03 0.  0.
      99925    2    3    3    0    0 -0.96050961276E+02 -0.53781981791E+02 -0.40868016492E+02  0.28804956219E+03  0.26302864251E+03 0.  0.
         25    1    4    4    0    0 -0.21782013630E+02 -0.25932751331E+02 -0.51723558541E+02  0.13953421916E+03  0.12509000000E+03 0.  0.
         25    1    4    4    0    0 -0.74268947646E+02 -0.27849230460E+02  0.10855542049E+02  0.14851534303E+03  0.12509000000E+03 0.  0.
         25    1    3    3    0    0  0.96050961276E+02  0.53781981791E+02  0.63331116153E+01  0.16675102737E+03  0.12509000000E+03 0.  0.
<mgrwt>
<rscale>  2 0.45348750E+03</rscale>
<asrwt>0</asrwt>
<pdfrwt beam="1">  1       21 0.30901889E-01 0.45348750E+03</pdfrwt>
<pdfrwt beam="2">  1       21 0.35980551E-01 0.45348750E+03</pdfrwt>
<totfact> 0.69394098E+04</totfact>
</mgrwt>
</event>
<event>
 7    0  0.4750554E-002  0.4349030E+03  0.7546771E-02  0.1032322E+00
         21   -1    0    0  502  501  0.00000000000E+00  0.00000000000E+00  0.36526344719E+03  0.36526344719E+03  0.00000000000E+00 0.  1.
         21   -1    0    0  501  502 -0.00000000000E+00 -0.00000000000E+00 -0.12945495114E+03  0.12945495114E+03  0.00000000000E+00 0.  1.
      99926    2    1    2    0    0 -0.14210854715E-13  0.26333102365E-14  0.23580849605E+03  0.49471839833E+03  0.43490303153E+03 0.  0.
      99925    2    3    3    0    0  0.91106969744E+02  0.82024635554E-02  0.17343749937E+03  0.32787077524E+03  0.26290340254E+03 0.  0.
         25    1    4    4    0    0  0.21264207799E+02 -0.29950368070E+02  0.98758184361E+02  0.16355389986E+03  0.12509000000E+03 0.  0.
         25    1    4    4    0    0  0.69842761945E+02  0.29958570534E+02  0.74679315011E+02  0.16431687538E+03  0.12509000000E+03 0.  0.
         25    1    3    3    0    0 -0.91106969744E+02 -0.82024635554E-02  0.62370996675E+02  0.16684762309E+03  0.12509000000E+03 0.  0.
<mgrwt>
<rscale>  2 0.43490303E+03</rscale>
<asrwt>0</asrwt>
<pdfrwt beam="1">  1       21 0.53715213E-01 0.43490303E+03</pdfrwt>
<pdfrwt beam="2">  1       21 0.19037493E-01 0.43490303E+03</pdfrwt>
<totfact> 0.77249134E+04</totfact>
</mgrwt>
</event>
<event>
 7    0  0.4750554E-002  0.4560904E+03  0.7546771E-02  0.1025921E+00
         21   -1    0    0  502  501  0.00000000000E+00  0.00000000000E+00  0.11704921552E+03  0.11704921552E+03  0.00000000000E+00 0.  1.
         21   -1    0    0  501  502 -0.00000000000E+00 -0.00000000000E+00 -0.44429696383E+03  0.44429696383E+03  0.00000000000E+00 0.  1.
      99926    2    1    2    0    0  0.14210854715E-13  0.00000000000E+00 -0.32724774831E+03  0.56134617935E+03  0.45609039049E+03 0.  0.
      99925    2    3    3    0    0  0.93506850009E+02  0.27086841985E+02 -0.13245316972E+03  0.31020943581E+03  0.26307569993E+03 0.  0.
         25    1    3    3    0    0 -0.93506850009E+02 -0.27086841985E+02 -0.19479457859E+03  0.25113674354E+03  0.12509000000E+03 0.  0.
         25    1    4    4    0    0  0.74218261488E+02  0.44374900359E+02 -0.61063931524E+02  0.16387127251E+03  0.12509000000E+03 0.  0.
         25    1    4    4    0    0  0.19288588521E+02 -0.17288058373E+02 -0.71389238197E+02  0.14633816331E+03  0.12509000000E+03 0.  0.
<mgrwt>
<rscale>  2 0.45609039E+03</rscale>
<asrwt>0</asrwt>
<pdfrwt beam="1">  1       21 0.17213120E-01 0.45609039E+03</pdfrwt>
<pdfrwt beam="2">  1       21 0.65337788E-01 0.45609039E+03</pdfrwt>
<totfact> 0.60598585E+04</totfact>
</mgrwt>
</event>
<event>
 6    0  0.4750554E-002  0.4595376E+03  0.7546771E-02  0.1024915E+00
         21   -1    0    0  502  501  0.00000000000E+00  0.00000000000E+00  0.30817533513E+03  0.30817533513E+03  0.00000000000E+00 0.  1.
         21   -1    0    0  501  502 -0.00000000000E+00 -0.00000000000E+00 -0.17131057398E+03  0.17131057398E+03  0.00000000000E+00 0.  1.
      99926    2    1    2    0    0  0.00000000000E+00  0.00000000000E+00  0.13686476115E+03  0.47948590911E+03  0.45953756560E+03 0.  0.
         25    1    3    3    0    0  0.40463971843E+02  0.81627971633E+02  0.10317215966E+03  0.18599048739E+03  0.12509000000E+03 0.  0.
         25    1    3    3    0    0 -0.39129941047E+02 -0.93189758283E+02 -0.82973648990E+01  0.16103365393E+03  0.12509000000E+03 0.  0.
         25    1    3    3    0    0 -0.13340307957E+01  0.11561786650E+02  0.41989966395E+02  0.13246176779E+03  0.12509000000E+03 0.  0.
<mgrwt>
<rscale>  2 0.45953757E+03</rscale>
<asrwt>0</asrwt>
<pdfrwt beam="1">  1       21 0.45319902E-01 0.45953757E+03</pdfrwt>
<pdfrwt beam="2">  1       21 0.25192731E-01 0.45953757E+03</pdfrwt>
<totfact> 0.64387369E+04</totfact>
</mgrwt>
</event>
<event>
 6    0  0.4750554E-002  0.4552535E+03  0.7546771E-02  0.1026167E+00
         21   -1    0    0  502  501  0.00000000000E+00  0.00000000000E+00  0.16183053181E+03  0.16183053181E+03  0.00000000000E+00 0.  1.
         21   -1    0    0  501  502 -0.00000000000E+00 -0.00000000000E+00 -0.32017406068E+03  0.32017406068E+03  0.00000000000E+00 0.  1.
      99926    2    1    2    0    0  0.00000000000E+00  0.00000000000E+00 -0.15834352887E+03  0.48200459250E+03  0.45525350526E+03 0.  0.
         25    1    3    3    0    0  0.22008977197E+02  0.68511981297E+02  0.40677612194E+02  0.14993486216E+03  0.12509000000E+03 0.  0.
         25    1    3    3    0    0 -0.37626698486E+02 -0.31012679740E+02 -0.10353162751E+03  0.16954014492E+03  0.12509000000E+03 0.  0.
         25    1    3    3    0    0  0.15617721289E+02 -0.37499301557E+02 -0.95489513552E+02  0.16252958541E+03  0.12509000000E+03 0.  0.
<mgrwt>
<rscale>  2 0.45525351E+03</rscale>
<asrwt>0</asrwt>
<pdfrwt beam="1">  1       21 0.23798608E-01 0.45525351E+03</pdfrwt>
<pdfrwt beam="2">  1       21 0.47084420E-01 0.45525351E+03</pdfrwt>
<totfact> 0.66420710E+04</totfact>
</mgrwt>
</event>
<event>
 7    0  0.4750554E-002  0.4602168E+03  0.7546771E-02  0.1024718E+00
         21   -1    0    0  502  501  0.00000000000E+00  0.00000000000E+00  0.58069814333E+02  0.58069814333E+02  0.00000000000E+00 0. -1.
         21   -1    0    0  501  502 -0.00000000000E+00 -0.00000000000E+00 -0.91183123888E+03  0.91183123888E+03  0.00000000000E+00 0. -1.
      99926    2    1    2    0    0 -0.44408920985E-15  0.14210854715E-13 -0.85376142455E+03  0.96990105322E+03  0.46021677825E+03 0.  0.
      99925    2    3    3    0    0  0.39676333345E+01  0.11753354662E+03 -0.51359852493E+03  0.58886538156E+03  0.26296219518E+03 0.  0.
         25    1    3    3    0    0 -0.39676333345E+01 -0.11753354662E+03 -0.34016289962E+03  0.38103567166E+03  0.12509000000E+03 0.  0.
         25    1    4    4    0    0 -0.12397943431E+02  0.66010520848E+02 -0.18555390508E+03  0.23364258528E+03  0.12509000000E+03 0.  0.
         25    1    4    4    0    0  0.16365576766E+02  0.51523025776E+02 -0.32804461985E+03  0.35522279628E+03  0.12509000000E+03 0.  0.
<mgrwt>
<rscale>  2 0.46021678E+03</rscale>
<asrwt>0</asrwt>
<pdfrwt beam="1">  1       21 0.85396781E-02 0.46021678E+03</pdfrwt>
<pdfrwt beam="2">  1       21 0.13409284E+00 0.46021678E+03</pdfrwt>
<totfact> 0.38740949E+04</totfact>
</mgrwt>
</event>
<event>
 7    0  0.4750554E-002  0.4551188E+03  0.7546771E-02  0.1026206E+00
         21   -1    0    0  502  501  0.00000000000E+00  0.00000000000E+00  0.14104005490E+03  0.14104005490E+03  0.00000000000E+00 0. -1.
         21   -1    0    0  501  502 -0.00000000000E+00 -0.00000000000E+00 -0.36715306338E+03  0.36715306338E+03  0.00000000000E+00 0. -1.
      99926    2    1    2    0    0  0.71054273576E-14  0.14210854715E-13 -0.22611300847E+03  0.50819311828E+03  0.45511883379E+03 0.  0.
      99925    2    3    3    0    0  0.45918499793E+02  0.64030436306E+02 -0.51117054734E+02  0.27910907841E+03  0.26283173129E+03 0.  0.
         25    1    3    3    0    0 -0.45918499793E+02 -0.64030436306E+02 -0.17499595374E+03  0.22908403987E+03  0.12509000000E+03 0.  0.
         25    1    4    4    0    0  0.44892095878E+02  0.10182445232E+02  0.97614998378E+00  0.13329457390E+03  0.12509000000E+03 0.  0.
         25    1    4    4    0    0  0.10264039149E+01  0.53847991074E+02 -0.52093204718E+02  0.14581450451E+03  0.12509000000E+03 0.  0.
<mgrwt>
<rscale>  2 0.45511883E+03</rscale>
<asrwt>0</asrwt>
<pdfrwt beam="1">  1       21 0.20741185E-01 0.45511883E+03</pdfrwt>
<pdfrwt beam="2">  1       21 0.53993096E-01 0.45511883E+03</pdfrwt>
<totfact> 0.64637834E+04</totfact>
</mgrwt>
</event>
<event>
 7    0  0.4750554E-002  0.4588299E+03  0.7546771E-02  0.1025121E+00
         21   -1    0    0  502  501  0.00000000000E+00  0.00000000000E+00  0.22026393791E+04  0.22026393791E+04  0.00000000000E+00 0.  1.
         21   -1    0    0  501  502 -0.00000000000E+00 -0.00000000000E+00 -0.23894612177E+02  0.23894612177E+02  0.00000000000E+00 0.  1.
      99926    2    1    2    0    0  0.00000000000E+00  0.00000000000E+00  0.21787447669E+04  0.22265339913E+04  0.45882987579E+03 0.  0.
      99925    2    3    3    0    0  0.93303817649E+02 -0.60799632160E+02  0.15342915049E+04  0.15606738613E+04  0.26315448255E+03 0.  0.
         25    1    4    4    0    0  0.42457900228E+02 -0.71659440651E+02  0.80763098673E+03  0.82149441115E+03  0.12509000000E+03 0.  0.
         25    1    4    4    0    0  0.50845917421E+02  0.10859808491E+02  0.72666051814E+03  0.73917945012E+03  0.12509000000E+03 0.  0.
         25    1    3    3    0    0 -0.93303817649E+02  0.60799632160E+02  0.64445326206E+03  0.66586013001E+03  0.12509000000E+03 0.  0.
<mgrwt>
<rscale>  2 0.45882988E+03</rscale>
<asrwt>0</asrwt>
<pdfrwt beam="1">  1       21 0.32391742E+00 0.45882988E+03</pdfrwt>
<pdfrwt beam="2">  1       21 0.35139150E-02 0.45882988E+03</pdfrwt>
<totfact> 0.10049088E+04</totfact>
</mgrwt>
</event>
<event>
 7    0  0.4750554E-002  0.4549169E+03  0.7546771E-02  0.1026266E+00
         21   -1    0    0  502  501  0.00000000000E+00  0.00000000000E+00  0.77028464533E+03  0.77028464533E+03  0.00000000000E+00 0. -1.
         21   -1    0    0  501  502 -0.00000000000E+00 -0.00000000000E+00 -0.67166532247E+02  0.67166532247E+02  0.00000000000E+00 0. -1.
      99926    2    1    2    0    0  0.00000000000E+00  0.00000000000E+00  0.70311811308E+03  0.83745117758E+03  0.45491690877E+03 0.  0.
      99925    2    3    3    0    0  0.30088213580E+02  0.10860885443E+03  0.42459562449E+03  0.51199231903E+03  0.26297054312E+03 0.  0.
         25    1    4    4    0    0  0.15282237051E+02  0.85072379088E+02  0.28126081597E+03  0.31972802685E+03  0.12509000000E+03 0.  0.
         25    1    4    4    0    0  0.14805976528E+02  0.23536475346E+02  0.14333480852E+03  0.19226429218E+03  0.12509000000E+03 0.  0.
         25    1    3    3    0    0 -0.30088213580E+02 -0.10860885443E+03  0.27852248859E+03  0.32545885855E+03  0.12509000000E+03 0.  0.
<mgrwt>
<rscale>  2 0.45491691E+03</rscale>
<asrwt>0</asrwt>
<pdfrwt beam="1">  1       21 0.11327715E+00 0.45491691E+03</pdfrwt>
<pdfrwt beam="2">  1       21 0.98774317E-02 0.45491691E+03</pdfrwt>
<totfact> 0.46036058E+04</totfact>
</mgrwt>
</event>
<event>
 7    0  0.4750554E-002  0.4800670E+03  0.7546771E-02  0.1019117E+00
         21   -1    0    0  502  501  0.00000000000E+00  0.00000000000E+00  0.52814392759E+02  0.52814392759E+02  0.00000000000E+00 0. -1.
         21   -1    0    0  501  502 -0.00000000000E+00 -0.00000000000E+00 -0.10909163268E+04  0.10909163268E+04  0.00000000000E+00 0. -1.
      99926    2    1    2    0    0  0.35527136788E-14  0.00000000000E+00 -0.10381019341E+04  0.11437307196E+04  0.48006700930E+03 0.  0.
      99925    2    3    3    0    0 -0.24471150400E+02  0.98334056113E+02 -0.85342458440E+03  0.89873754546E+03  0.26292057842E+03 0.  0.
         25    1    4    4    0    0  0.22224926467E+02  0.25182675108E+02 -0.38974290471E+03  0.41070080880E+03  0.12509000000E+03 0.  0.
         25    1    4    4    0    0 -0.46696076867E+02  0.73151381005E+02 -0.46368167969E+03  0.48803673665E+03  0.12509000000E+03 0.  0.
         25    1    3    3    0    0  0.24471150400E+02 -0.98334056113E+02 -0.18467734969E+03  0.24499317415E+03  0.12509000000E+03 0.  0.
<mgrwt>
<rscale>  2 0.48006701E+03</rscale>
<asrwt>0</asrwt>
<pdfrwt beam="1">  1       21 0.77668226E-02 0.48006701E+03</pdfrwt>
<pdfrwt beam="2">  1       21 0.16042887E+00 0.48006701E+03</pdfrwt>
<totfact> 0.28089600E+04</totfact>
</mgrwt>
</event>
<event>
 7    0  0.4750554E-002  0.4513455E+03  0.7546771E-02  0.1027322E+00
         21   -1    0    0  502  501  0.00000000000E+00  0.00000000000E+00  0.49534583152E+03  0.49534583152E+03  0.00000000000E+00 0. -1.
         21   -1    0    0  501  502 -0.00000000000E+00 -0.00000000000E+00 -0.10281339840E+03  0.10281339840E+03  0.00000000000E+00 0. -1.
      99926    2    1    2    0    0  0.00000000000E+00  0.00000000000E+00  0.39253243312E+03  0.59815922992E+03  0.45134549215E+03 0.  0.
      99925    2    3    3    0    0  0.96144512732E+02 -0.52725009805E+02  0.25147207127E+03  0.38005552116E+03  0.26302148686E+03 0.  0.
         25    1    4    4    0    0  0.17535083619E+02 -0.41075279545E+02  0.87596531889E+02  0.15910788241E+03  0.12509000000E+03 0.  0.
         25    1    4    4    0    0  0.78609429113E+02 -0.11649730259E+02  0.16387553938E+03  0.22094763874E+03  0.12509000000E+03 0.  0.
         25    1    3    3    0    0 -0.96144512732E+02  0.52725009805E+02  0.14106036185E+03  0.21810370876E+03  0.12509000000E+03 0.  0.
<mgrwt>
<rscale>  2 0.45134549E+03</rscale>
<asrwt>0</asrwt>
<pdfrwt beam="1">  1       21 0.72844974E-01 0.45134549E+03</pdfrwt>
<pdfrwt beam="2">  1       21 0.15119618E-01 0.45134549E+03</pdfrwt>
<totfact> 0.60520478E+04</totfact>
</mgrwt>
</event>
<event>
 7    0  0.4750554E-002  0.4547088E+03  0.7546771E-02  0.1026327E+00
         21   -1    0    0  502  501  0.00000000000E+00  0.00000000000E+00  0.14745320110E+03  0.14745320110E+03  0.00000000000E+00 0.  1.
         21   -1    0    0  501  502 -0.00000000000E+00 -0.00000000000E+00 -0.35055212075E+03  0.35055212075E+03  0.00000000000E+00 0.  1.
      99926    2    1    2    0    0  0.71054273576E-14  0.00000000000E+00 -0.20309891964E+03  0.49800532185E+03  0.45470884028E+03 0.  0.
      99925    2    3    3    0    0 -0.52162798888E+02 -0.98477709243E+02 -0.14779488789E+03  0.32158292862E+03  0.26297040573E+03 0.  0.
         25    1    4    4    0    0 -0.65588896735E+02 -0.50276196022E+02 -0.90960972477E+02  0.17535964723E+03  0.12509000000E+03 0.  0.
         25    1    3    3    0    0  0.52162798888E+02  0.98477709243E+02 -0.55304031753E+02  0.17642239323E+03  0.12509000000E+03 0.  0.
         25    1    4    4    0    0  0.13426097847E+02 -0.48201513221E+02 -0.56833915413E+02  0.14622328139E+03  0.12509000000E+03 0.  0.
<mgrwt>
<rscale>  2 0.45470884E+03</rscale>
<asrwt>0</asrwt>
<pdfrwt beam="1">  1       21 0.21684295E-01 0.45470884E+03</pdfrwt>
<pdfrwt beam="2">  1       21 0.51551782E-01 0.45470884E+03</pdfrwt>
<totfact> 0.65562423E+04</totfact>
</mgrwt>
</event>
<event>
 7    0  0.4750554E-002  0.4556462E+03  0.7546771E-02  0.1026052E+00
         21   -1    0    0  502  501  0.00000000000E+00  0.00000000000E+00  0.20769655447E+04  0.20769655447E+04  0.00000000000E+00 0. -1.
         21   -1    0    0  501  502 -0.00000000000E+00 -0.00000000000E+00 -0.24989992948E+02  0.24989992948E+02  0.00000000000E+00 0. -1.
      99926    2    1    2    0    0  0.35527136788E-14  0.00000000000E+00  0.20519755518E+04  0.21019555377E+04  0.45564615357E+03 0.  0.
      99925    2    3    3    0    0  0.21160376272E+02 -0.10541121823E+03  0.11187567002E+04  0.11542719304E+04  0.26299781104E+03 0.  0.
         25    1    4    4    0    0  0.28602035677E+02 -0.20883872467E+02  0.43526354591E+03  0.45426432291E+03  0.12509000000E+03 0.  0.
         25    1    4    4    0    0 -0.74416594057E+01 -0.84527345767E+02  0.68349315424E+03  0.70000760744E+03  0.12509000000E+03 0.  0.
         25    1    3    3    0    0 -0.21160376272E+02  0.10541121823E+03  0.93321885164E+03  0.94768360734E+03  0.12509000000E+03 0.  0.
<mgrwt>
<rscale>  2 0.45564615E+03</rscale>
<asrwt>0</asrwt>
<pdfrwt beam="1">  1       21 0.30543599E+00 0.45564615E+03</pdfrwt>
<pdfrwt beam="2">  1       21 0.36750004E-02 0.45564615E+03</pdfrwt>
<totfact> 0.12055066E+04</totfact>
</mgrwt>
</event>
<event>
 7    0  0.4750554E-002  0.4443989E+03  0.7546771E-02  0.1029406E+00
         21   -1    0    0  502  501  0.00000000000E+00  0.00000000000E+00  0.26485623633E+03  0.26485623633E+03  0.00000000000E+00 0.  1.
         21   -1    0    0  501  502 -0.00000000000E+00 -0.00000000000E+00 -0.18641282447E+03  0.18641282447E+03  0.00000000000E+00 0.  1.
      99926    2    1    2    0    0  0.17763568394E-14 -0.14210854715E-13  0.78443411860E+02  0.45126906080E+03  0.44439891581E+03 0.  0.
      99925    2    3    3    0    0 -0.15081191528E+02 -0.10149670545E+03  0.42935599326E+02  0.28562686689E+03  0.26307834925E+03 0.  0.
         25    1    3    3    0    0  0.15081191528E+02  0.10149670545E+03  0.35507812534E+02  0.16564219392E+03  0.12509000000E+03 0.  0.
         25    1    4    4    0    0 -0.42844298390E+02 -0.37211992606E+02  0.55305387248E+01  0.13747167438E+03  0.12509000000E+03 0.  0.
         25    1    4    4    0    0  0.27763106862E+02 -0.64284712841E+02  0.37405060601E+02  0.14815519251E+03  0.12509000000E+03 0.  0.
<mgrwt>
<rscale>  2 0.44439892E+03</rscale>
<asrwt>0</asrwt>
<pdfrwt beam="1">  1       21 0.38949447E-01 0.44439892E+03</pdfrwt>
<pdfrwt beam="2">  1       21 0.27413651E-01 0.44439892E+03</pdfrwt>
<totfact> 0.74960702E+04</totfact>
</mgrwt>
</event>
<event>
 7    0  0.4750554E-002  0.4556426E+03  0.7546771E-02  0.1026053E+00
         21   -1    0    0  502  501  0.00000000000E+00  0.00000000000E+00  0.94813169849E+02  0.94813169849E+02  0.00000000000E+00 0. -1.
         21   -1    0    0  501  502 -0.00000000000E+00 -0.00000000000E+00 -0.54741912584E+03  0.54741912584E+03  0.00000000000E+00 0. -1.
      99926    2    1    2    0    0  0.00000000000E+00  0.00000000000E+00 -0.45260595600E+03  0.64223229569E+03  0.45564259045E+03 0.  0.
      99925    2    3    3    0    0  0.11189378467E+03 -0.15329576464E+02 -0.30345185842E+03  0.41717748484E+03  0.26305666408E+03 0.  0.
         25    1    4    4    0    0  0.18417671422E+02 -0.23091815295E+02 -0.15752586902E+03  0.20330850957E+03  0.12509000000E+03 0.  0.
         25    1    4    4    0    0  0.93476113252E+02  0.77622388303E+01 -0.14592598940E+03  0.21386897527E+03  0.12509000000E+03 0.  0.
         25    1    3    3    0    0 -0.11189378467E+03  0.15329576464E+02 -0.14915409757E+03  0.22505481085E+03  0.12509000000E+03 0.  0.
<mgrwt>
<rscale>  2 0.45564259E+03</rscale>
<asrwt>0</asrwt>
<pdfrwt beam="1">  1       21 0.13943113E-01 0.45564259E+03</pdfrwt>
<pdfrwt beam="2">  1       21 0.80502812E-01 0.45564259E+03</pdfrwt>
<totfact> 0.55867392E+04</totfact>
</mgrwt>
</event>
<event>
 7    0  0.4750554E-002  0.4556597E+03  0.7546771E-02  0.1026048E+00
         21   -1    0    0  502  501  0.00000000000E+00  0.00000000000E+00  0.12006156169E+04  0.12006156169E+04  0.00000000000E+00 0. -1.
         21   -1    0    0  501  502 -0.00000000000E+00 -0.00000000000E+00 -0.43233195055E+02  0.43233195055E+02  0.00000000000E+00 0. -1.
      99926    2    1    2    0    0  0.00000000000E+00  0.00000000000E+00  0.11573824219E+04  0.12438488120E+04  0.45565973776E+03 0.  0.
      99925    2    3    3    0    0  0.12178023596E+02  0.81080677656E+02  0.94327392862E+03  0.98267389831E+03  0.26298270944E+03 0.  0.
         25    1    3    3    0    0 -0.12178023596E+02 -0.81080677656E+02  0.21410849325E+03  0.26117491367E+03  0.12509000000E+03 0.  0.
         25    1    4    4    0    0 -0.18804031890E+02  0.72988342236E+02  0.47763699897E+03  0.49946521460E+03  0.12509000000E+03 0.  0.
         25    1    4    4    0    0  0.30982055486E+02  0.80923354194E+01  0.46563692965E+03  0.48320868371E+03  0.12509000000E+03 0.  0.
<mgrwt>
<rscale>  2 0.45565974E+03</rscale>
<asrwt>0</asrwt>
<pdfrwt beam="1">  1       21 0.17656110E+00 0.45565974E+03</pdfrwt>
<pdfrwt beam="2">  1       21 0.63578236E-02 0.45565974E+03</pdfrwt>
<totfact> 0.30632407E+04</totfact>
</mgrwt>
</event>
<event>
 7    0  0.4750554E-002  0.4590951E+03  0.7546771E-02  0.1025044E+00
         21   -1    0    0  502  501  0.00000000000E+00  0.00000000000E+00  0.12693866008E+03  0.12693866008E+03  0.00000000000E+00 0.  1.
         21   -1    0    0  501  502 -0.00000000000E+00 -0.00000000000E+00 -0.41509873515E+03  0.41509873515E+03  0.00000000000E+00 0.  1.
      99926    2    1    2    0    0  0.00000000000E+00  0.14210854715E-13 -0.28816007506E+03  0.54203739523E+03  0.45909509796E+03 0.  0.
      99925    2    3    3    0    0  0.32813336117E+02 -0.82998391382E+02 -0.27033251920E+03  0.38734163625E+03  0.26265647572E+03 0.  0.
         25    1    3    3    0    0 -0.32813336117E+02  0.82998391382E+02 -0.17827555865E+02  0.15469575898E+03  0.12509000000E+03 0.  0.
         25    1    4    4    0    0  0.60118326514E+01 -0.58185597279E+02 -0.18774899675E+03  0.23306415371E+03  0.12509000000E+03 0.  0.
         25    1    4    4    0    0  0.26801503465E+02 -0.24812794103E+02 -0.82583522445E+02  0.15427748254E+03  0.12509000000E+03 0.  0.
<mgrwt>
<rscale>  2 0.45909510E+03</rscale>
<asrwt>0</asrwt>
<pdfrwt beam="1">  1       21 0.18667450E-01 0.45909510E+03</pdfrwt>
<pdfrwt beam="2">  1       21 0.61043930E-01 0.45909510E+03</pdfrwt>
<totfact> 0.60414005E+04</totfact>
</mgrwt>
</event>
<event>
 7    0  0.4750554E-002  0.4598842E+03  0.7546771E-02  0.1024815E+00
         21   -1    0    0  502  501  0.00000000000E+00  0.00000000000E+00  0.68589138215E+02  0.68589138215E+02  0.00000000000E+00 0. -1.
         21   -1    0    0  501  502 -0.00000000000E+00 -0.00000000000E+00 -0.77087092205E+03  0.77087092205E+03  0.00000000000E+00 0. -1.
      99926    2    1    2    0    0  0.00000000000E+00  0.00000000000E+00 -0.70228178383E+03  0.83946006026E+03  0.45988421246E+03 0.  0.
      99925    2    3    3    0    0  0.59498568599E+02 -0.38173379782E+02 -0.61185989149E+03  0.66969282755E+03  0.26290429791E+03 0.  0.
         25    1    3    3    0    0 -0.59498568599E+02  0.38173379782E+02 -0.90421892336E+02  0.16976723271E+03  0.12509000000E+03 0.  0.
         25    1    4    4    0    0 -0.55594290561E+00 -0.39037110124E+02 -0.25261996593E+03  0.28458489125E+03  0.12509000000E+03 0.  0.
         25    1    4    4    0    0  0.60054511505E+02  0.86373034178E+00 -0.35923992556E+03  0.38510793630E+03  0.12509000000E+03 0.  0.
<mgrwt>
<rscale>  2 0.45988421E+03</rscale>
<asrwt>0</asrwt>
<pdfrwt beam="1">  1       21 0.10086638E-01 0.45988421E+03</pdfrwt>
<pdfrwt beam="2">  1       21 0.11336337E+00 0.45988421E+03</pdfrwt>
<totfact> 0.44196547E+04</totfact>
</mgrwt>
</event>
<event>
 7    0  0.4750554E-002  0.4485222E+03  0.7546771E-02  0.1028164E+00
         21   -1    0    0  502  501  0.00000000000E+00  0.00000000000E+00  0.75270546866E+03  0.75270546866E+03  0.00000000000E+00 0.  1.
         21   -1    0    0  501  502 -0.00000000000E+00 -0.00000000000E+00 -0.66816348391E+02  0.66816348391E+02  0.00000000000E+00 0.  1.
      99926    2    1    2    0    0  0.00000000000E+00  0.00000000000E+00  0.68588912027E+03  0.81952181705E+03  0.44852215477E+03 0.  0.
      99925    2    3    3    0    0 -0.77908243657E+02  0.61217803986E+02  0.36103663405E+03  0.45759093987E+03  0.26310587825E+03 0.  0.
         25    1    4    4    0    0 -0.10092578458E+02  0.13492064717E+02  0.12332673664E+03  0.17646781016E+03  0.12509000000E+03 0.  0.
         25    1    4    4    0    0 -0.67815665199E+02  0.47725739269E+02  0.23770989741E+03  0.28112312972E+03  0.12509000000E+03 0.  0.
         25    1    3    3    0    0  0.77908243657E+02 -0.61217803986E+02  0.32485248622E+03  0.36193087718E+03  0.12509000000E+03 0.  0.
<mgrwt>
<rscale>  2 0.44852215E+03</rscale>
<asrwt>0</asrwt>
<pdfrwt beam="1">  1       21 0.11069198E+00 0.44852215E+03</pdfrwt>
<pdfrwt beam="2">  1       21 0.98259340E-02 0.44852215E+03</pdfrwt>
<totfact> 0.49293222E+04</totfact>
</mgrwt>
</event>
<event>
 7    0  0.4750554E-002  0.4576912E+03  0.7546771E-02  0.1025453E+00
         21   -1    0    0  502  501  0.00000000000E+00  0.00000000000E+00  0.73188030090E+03  0.73188030090E+03  0.00000000000E+00 0. -1.
         21   -1    0    0  501  502 -0.00000000000E+00 -0.00000000000E+00 -0.71555844936E+02  0.71555844936E+02  0.00000000000E+00 0. -1.
      99926    2    1    2    0    0  0.14210854715E-13 -0.71054273576E-14  0.66032445597E+03  0.80343614584E+03  0.45769122047E+03 0.  0.
      99925    2    3    3    0    0  0.10693150174E+03 -0.42295428512E+02  0.39343000160E+03  0.48704492092E+03  0.26306337543E+03 0.  0.
         25    1    3    3    0    0 -0.10693150174E+03  0.42295428512E+02  0.26689445436E+03  0.31639122492E+03  0.12509000000E+03 0.  0.
         25    1    4    4    0    0  0.15679703861E+02 -0.12868505175E+02  0.14222846080E+03  0.19049381801E+03  0.12509000000E+03 0.  0.
         25    1    4    4    0    0  0.91251797881E+02 -0.29426923337E+02  0.25120154081E+03  0.29655110291E+03  0.12509000000E+03 0.  0.
<mgrwt>
<rscale>  2 0.45769122E+03</rscale>
<asrwt>0</asrwt>
<pdfrwt beam="1">  1       21 0.10762945E+00 0.45769122E+03</pdfrwt>
<pdfrwt beam="2">  1       21 0.10522919E-01 0.45769122E+03</pdfrwt>
<totfact> 0.46606912E+04</totfact>
</mgrwt>
</event>
<event>
 7    0  0.4750554E-002  0.4534613E+03  0.7546771E-02  0.1026695E+00
         21   -1    0    0  502  501  0.00000000000E+00  0.00000000000E+00  0.42196436177E+02  0.42196436177E+02  0.00000000000E+00 0.  1.
         21   -1    0    0  501  502 -0.00000000000E+00 -0.00000000000E+00 -0.12182733756E+04  0.12182733756E+04  0.00000000000E+00 0.  1.
      99926    2    1    2    0    0  0.00000000000E+00 -0.35527136788E-14 -0.11760769394E+04  0.12604698117E+04  0.45346133126E+03 0.  0.
      99925    2    3    3    0    0  0.80989887420E+02  0.29299451407E+02 -0.54333482835E+03  0.60975642868E+03  0.26300636285E+03 0.  0.
         25    1    4    4    0    0  0.25138471582E+02 -0.23859882882E+02 -0.25589715986E+03  0.28693570933E+03  0.12509000000E+03 0.  0.
         25    1    4    4    0    0  0.55851415838E+02  0.53159334289E+02 -0.28743766849E+03  0.32282071935E+03  0.12509000000E+03 0.  0.
         25    1    3    3    0    0 -0.80989887420E+02 -0.29299451407E+02 -0.63274211103E+03  0.65071338305E+03  0.12509000000E+03 0.  0.
<mgrwt>
<rscale>  2 0.45346133E+03</rscale>
<asrwt>0</asrwt>
<pdfrwt beam="1">  1       21 0.62053585E-02 0.45346133E+03</pdfrwt>
<pdfrwt beam="2">  1       21 0.17915784E+00 0.45346133E+03</pdfrwt>
<totfact> 0.30650116E+04</totfact>
</mgrwt>
</event>
<event>
 7    0  0.4750554E-002  0.4016255E+03  0.7546771E-02  0.1043218E+00
         21   -1    0    0  502  501  0.00000000000E+00  0.00000000000E+00  0.21649777045E+03  0.21649777045E+03  0.00000000000E+00 0. -1.
         21   -1    0    0  501  502 -0.00000000000E+00 -0.00000000000E+00 -0.18626405266E+03  0.18626405266E+03  0.00000000000E+00 0. -1.
      99926    2    1    2    0    0  0.71054273576E-14  0.71054273576E-14  0.30233717785E+02  0.40276182311E+03  0.40162545794E+03 0.  0.
      99925    2    3    3    0    0  0.31535450976E+02  0.34392216936E+02  0.33073820143E+02  0.26922200307E+03  0.26307660501E+03 0.  0.
         25    1    3    3    0    0 -0.31535450976E+02 -0.34392216936E+02 -0.28401023579E+01  0.13353982004E+03  0.12509000000E+03 0.  0.
         25    1    4    4    0    0 -0.15873114201E+02 -0.63486296249E+01  0.27836656104E+02  0.12928514368E+03  0.12509000000E+03 0.  0.
         25    1    4    4    0    0  0.47408565176E+02  0.40740846561E+02  0.52371640395E+01  0.13993685940E+03  0.12509000000E+03 0.  0.
<mgrwt>
<rscale>  2 0.40162546E+03</rscale>
<asrwt>0</asrwt>
<pdfrwt beam="1">  1       21 0.31837908E-01 0.40162546E+03</pdfrwt>
<pdfrwt beam="2">  1       21 0.27391772E-01 0.40162546E+03</pdfrwt>
<totfact> 0.11384859E+05</totfact>
</mgrwt>
</event>
<event>
 7    0  0.4750554E-002  0.4691675E+03  0.7546771E-02  0.1022155E+00
         21   -1    0    0  502  501  0.00000000000E+00  0.00000000000E+00  0.19839729765E+04  0.19839729765E+04  0.00000000000E+00 0.  1.
         21   -1    0    0  501  502 -0.00000000000E+00 -0.00000000000E+00 -0.27737041991E+02  0.27737041991E+02  0.00000000000E+00 0.  1.
      99926    2    1    2    0    0  0.14210854715E-13  0.71054273576E-14  0.19562359345E+04  0.20117100185E+04  0.46916752555E+03 0.  0.
      99925    2    3    3    0    0 -0.11814939802E+03 -0.38354771849E+02  0.11278675652E+04  0.11647908770E+04  0.26310107153E+03 0.  0.
         25    1    4    4    0    0 -0.90013190060E+02 -0.45020901726E+02  0.55790164449E+03  0.58054371843E+03  0.12509000000E+03 0.  0.
         25    1    4    4    0    0 -0.28136207959E+02  0.66661298769E+01  0.56996592067E+03  0.58424715858E+03  0.12509000000E+03 0.  0.
         25    1    3    3    0    0  0.11814939802E+03  0.38354771849E+02  0.82836836936E+03  0.84691914149E+03  0.12509000000E+03 0.  0.
<mgrwt>
<rscale>  2 0.46916753E+03</rscale>
<asrwt>0</asrwt>
<pdfrwt beam="1">  1       21 0.29176064E+00 0.46916753E+03</pdfrwt>
<pdfrwt beam="2">  1       21 0.40789781E-02 0.46916753E+03</pdfrwt>
<totfact> 0.12129714E+04</totfact>
</mgrwt>
</event>
<event>
 7    0  0.4750554E-002  0.4539615E+03  0.7546771E-02  0.1026547E+00
         21   -1    0    0  502  501  0.00000000000E+00  0.00000000000E+00  0.67401284646E+02  0.67401284646E+02  0.00000000000E+00 0. -1.
         21   -1    0    0  501  502 -0.00000000000E+00 -0.00000000000E+00 -0.76438099981E+03  0.76438099981E+03  0.00000000000E+00 0. -1.
      99926    2    1    2    0    0  0.00000000000E+00  0.00000000000E+00 -0.69697971516E+03  0.83178228445E+03  0.45396150209E+03 0.  0.
      99925    2    3    3    0    0 -0.84773389946E+02  0.95254036138E+01 -0.57254154899E+03  0.63579854468E+03  0.26298042348E+03 0.  0.
         25    1    3    3    0    0  0.84773389946E+02 -0.95254036138E+01 -0.12443816617E+03  0.19598373978E+03  0.12509000000E+03 0.  0.
         25    1    4    4    0    0 -0.71789982994E+02  0.12784287302E+02 -0.37054354906E+03  0.39782819095E+03  0.12509000000E+03 0.  0.
         25    1    4    4    0    0 -0.12983406952E+02 -0.32588836884E+01 -0.20199799993E+03  0.23797035373E+03  0.12509000000E+03 0.  0.
<mgrwt>
<rscale>  2 0.45396150E+03</rscale>
<asrwt>0</asrwt>
<pdfrwt beam="1">  1       21 0.99119527E-02 0.45396150E+03</pdfrwt>
<pdfrwt beam="2">  1       21 0.11240898E+00 0.45396150E+03</pdfrwt>
<totfact> 0.46644537E+04</totfact>
</mgrwt>
</event>
<event>
 7    0  0.4750554E-002  0.4468419E+03  0.7546771E-02  0.1028668E+00
         21   -1    0    0  502  501  0.00000000000E+00  0.00000000000E+00  0.53659219139E+03  0.53659219139E+03  0.00000000000E+00 0. -1.
         21   -1    0    0  501  502 -0.00000000000E+00 -0.00000000000E+00 -0.93025792991E+02  0.93025792991E+02  0.00000000000E+00 0. -1.
      99926    2    1    2    0    0  0.71054273576E-14 -0.71054273576E-14  0.44356639840E+03  0.62961798438E+03  0.44684186964E+03 0.  0.
      99925    2    3    3    0    0  0.36835938745E+02 -0.31395971969E+02  0.41307396060E+03  0.49206839222E+03  0.26298025071E+03 0.  0.
         25    1    3    3    0    0 -0.36835938745E+02  0.31395971969E+02  0.30492437799E+02  0.13754959215E+03  0.12509000000E+03 0.  0.
         25    1    4    4    0    0 -0.14820703281E+02  0.70026701114E+01  0.17946315345E+03  0.21937005762E+03  0.12509000000E+03 0.  0.
         25    1    4    4    0    0  0.51656642026E+02 -0.38398642080E+02  0.23361080715E+03  0.27269833460E+03  0.12509000000E+03 0.  0.
<mgrwt>
<rscale>  2 0.44684187E+03</rscale>
<asrwt>0</asrwt>
<pdfrwt beam="1">  1       21 0.78910615E-01 0.44684187E+03</pdfrwt>
<pdfrwt beam="2">  1       21 0.13680264E-01 0.44684187E+03</pdfrwt>
<totfact> 0.60707223E+04</totfact>
</mgrwt>
</event>
<event>
 7    0  0.4750554E-002  0.4555127E+03  0.7546771E-02  0.1026091E+00
         21   -1    0    0  502  501  0.00000000000E+00  0.00000000000E+00  0.78774028228E+03  0.78774028228E+03  0.00000000000E+00 0. -1.
         21   -1    0    0  501  502 -0.00000000000E+00 -0.00000000000E+00 -0.65850340583E+02  0.65850340583E+02  0.00000000000E+00 0. -1.
      99926    2    1    2    0    0  0.00000000000E+00  0.00000000000E+00  0.72188994169E+03  0.85359062286E+03  0.45551274792E+03 0.  0.
      99925    2    3    3    0    0  0.71236707152E+02 -0.89515621223E+02  0.44395924117E+03  0.52804385620E+03  0.26199769343E+03 0.  0.
         25    1    3    3    0    0 -0.71236707152E+02  0.89515621223E+02  0.27793070053E+03  0.32554676666E+03  0.12509000000E+03 0.  0.
         25    1    4    4    0    0  0.23211974279E+02 -0.33659009284E+02  0.27784364463E+03  0.30743507220E+03  0.12509000000E+03 0.  0.
         25    1    4    4    0    0  0.48024732873E+02 -0.55856611938E+02  0.16611559653E+03  0.22060878400E+03  0.12509000000E+03 0.  0.
<mgrwt>
<rscale>  2 0.45551275E+03</rscale>
<asrwt>0</asrwt>
<pdfrwt beam="1">  1       21 0.11584415E+00 0.45551275E+03</pdfrwt>
<pdfrwt beam="2">  1       21 0.96838740E-02 0.45551275E+03</pdfrwt>
<totfact> 0.45097517E+04</totfact>
</mgrwt>
</event>
<event>
 7    0  0.4750554E-002  0.4250911E+03  0.7546771E-02  0.1035422E+00
         21   -1    0    0  502  501  0.00000000000E+00  0.00000000000E+00  0.62391380664E+03  0.62391380664E+03  0.00000000000E+00 0. -1.
         21   -1    0    0  501  502 -0.00000000000E+00 -0.00000000000E+00 -0.72406804470E+02  0.72406804470E+02  0.00000000000E+00 0. -1.
      99926    2    1    2    0    0  0.00000000000E+00  0.00000000000E+00  0.55150700217E+03  0.69632061111E+03  0.42509107261E+03 0.  0.
      99925    2    3    3    0    0 -0.11667767107E+01 -0.80175546338E+02  0.32903540315E+03  0.42879378990E+03  0.26300254396E+03 0.  0.
         25    1    4    4    0    0 -0.12870938713E+02 -0.27078315239E+02  0.10297763322E+03  0.16477498980E+03  0.12509000000E+03 0.  0.
         25    1    3    3    0    0  0.11667767107E+01  0.80175546338E+02  0.22247159902E+03  0.26752682121E+03  0.12509000000E+03 0.  0.
         25    1    4    4    0    0  0.11704162002E+02 -0.53097231099E+02  0.22605776994E+03  0.26401880010E+03  0.12509000000E+03 0.  0.
<mgrwt>
<rscale>  2 0.42509107E+03</rscale>
<asrwt>0</asrwt>
<pdfrwt beam="1">  1       21 0.91752027E-01 0.42509107E+03</pdfrwt>
<pdfrwt beam="2">  1       21 0.10648060E-01 0.42509107E+03</pdfrwt>
<totfact> 0.67683160E+04</totfact>
</mgrwt>
</event>
<event>
 7    0  0.4750554E-002  0.4490827E+03  0.7546771E-02  0.1027996E+00
         21   -1    0    0  502  501  0.00000000000E+00  0.00000000000E+00  0.24176203939E+03  0.24176203939E+03  0.00000000000E+00 0. -1.
         21   -1    0    0  501  502 -0.00000000000E+00 -0.00000000000E+00 -0.20854731597E+03  0.20854731597E+03  0.00000000000E+00 0. -1.
      99926    2    1    2    0    0  0.00000000000E+00  0.00000000000E+00  0.33214723414E+02  0.45030935536E+03  0.44908272921E+03 0.  0.
      99925    2    3    3    0    0  0.10427926358E+02  0.93438409984E+02  0.73373920107E+02  0.28875519327E+03  0.26297595210E+03 0.  0.
         25    1    4    4    0    0  0.32491293380E+02  0.66067891783E+02  0.63540497033E+02  0.15844732037E+03  0.12509000000E+03 0.  0.
         25    1    3    3    0    0 -0.10427926358E+02 -0.93438409984E+02 -0.40159196693E+02  0.16155416209E+03  0.12509000000E+03 0.  0.
         25    1    4    4    0    0 -0.22063367022E+02  0.27370518202E+02  0.98334230743E+01  0.13030787290E+03  0.12509000000E+03 0.  0.
<mgrwt>
<rscale>  2 0.44908273E+03</rscale>
<asrwt>0</asrwt>
<pdfrwt beam="1">  1       21 0.35553241E-01 0.44908273E+03</pdfrwt>
<pdfrwt beam="2">  1       21 0.30668723E-01 0.44908273E+03</pdfrwt>
<totfact> 0.72241766E+04</totfact>
</mgrwt>
</event>
<event>
 7    0  0.4750554E-002  0.4537325E+03  0.7546771E-02  0.1026615E+00
         21   -1    0    0  502  501  0.00000000000E+00  0.00000000000E+00  0.14023749845E+03  0.14023749845E+03  0.00000000000E+00 0.  1.
         21   -1    0    0  501  502 -0.00000000000E+00 -0.00000000000E+00 -0.36700800286E+03  0.36700800286E+03  0.00000000000E+00 0.  1.
      99926    2    1    2    0    0  0.14210854715E-13  0.00000000000E+00 -0.22677050441E+03  0.50724550131E+03  0.45373245082E+03 0.  0.
      99925    2    3    3    0    0  0.66098413026E+02 -0.76034849457E+02 -0.88507193579E+02  0.29531497081E+03  0.26311045234E+03 0.  0.
         25    1    4    4    0    0 -0.71152019113E+01 -0.38643712826E+02 -0.53358712346E+02  0.14155784303E+03  0.12509000000E+03 0.  0.
         25    1    4    4    0    0  0.73213614937E+02 -0.37391136631E+02 -0.35148481233E+02  0.15375712778E+03  0.12509000000E+03 0.  0.
         25    1    3    3    0    0 -0.66098413026E+02  0.76034849457E+02 -0.13826331084E+03  0.21193053050E+03  0.12509000000E+03 0.  0.
<mgrwt>
<rscale>  2 0.45373245E+03</rscale>
<asrwt>0</asrwt>
<pdfrwt beam="1">  1       21 0.20623162E-01 0.45373245E+03</pdfrwt>
<pdfrwt beam="2">  1       21 0.53971763E-01 0.45373245E+03</pdfrwt>
<totfact> 0.65420249E+04</totfact>
</mgrwt>
</event>
<event>
 7    0  0.4750554E-002  0.4570038E+03  0.7546771E-02  0.1025654E+00
         21   -1    0    0  502  501  0.00000000000E+00  0.00000000000E+00  0.10507364300E+04  0.10507364300E+04  0.00000000000E+00 0. -1.
         21   -1    0    0  501  502 -0.00000000000E+00 -0.00000000000E+00 -0.49691925390E+02  0.49691925390E+02  0.00000000000E+00 0. -1.
      99926    2    1    2    0    0  0.00000000000E+00  0.35527136788E-14  0.10010445046E+04  0.11004283554E+04  0.45700379117E+03 0.  0.
      99925    2    3    3    0    0  0.11062835951E+03  0.59780281446E+01  0.55694969560E+03  0.62593696639E+03  0.26330543427E+03 0.  0.
         25    1    4    4    0    0  0.56145723627E+02  0.39734032120E+02  0.32072065518E+03  0.35105609573E+03  0.12509000000E+03 0.  0.
         25    1    3    3    0    0 -0.11062835951E+03 -0.59780281446E+01  0.44409480903E+03  0.47449138902E+03  0.12509000000E+03 0.  0.
         25    1    4    4    0    0  0.54482635879E+02 -0.33756003976E+02  0.23622904042E+03  0.27488087066E+03  0.12509000000E+03 0.  0.
<mgrwt>
<rscale>  2 0.45700379E+03</rscale>
<asrwt>0</asrwt>
<pdfrwt beam="1">  1       21 0.15452005E+00 0.45700379E+03</pdfrwt>
<pdfrwt beam="2">  1       21 0.73076368E-02 0.45700379E+03</pdfrwt>
<totfact> 0.34930169E+04</totfact>
</mgrwt>
</event>
<event>
 7    0  0.4750554E-002  0.4499177E+03  0.7546771E-02  0.1027747E+00
         21   -1    0    0  502  501  0.00000000000E+00  0.00000000000E+00  0.55166164349E+03  0.55166164349E+03  0.00000000000E+00 0. -1.
         21   -1    0    0  501  502 -0.00000000000E+00 -0.00000000000E+00 -0.91734654390E+02  0.91734654390E+02  0.00000000000E+00 0. -1.
      99926    2    1    2    0    0  0.00000000000E+00  0.00000000000E+00  0.45992698909E+03  0.64339629788E+03  0.44991772673E+03 0.  0.
      99925    2    3    3    0    0 -0.24649610672E+02  0.10542385848E+03  0.29529371021E+03  0.41000088691E+03  0.26302197387E+03 0.  0.
         25    1    4    4    0    0  0.27364905827E+02  0.58637776999E+02  0.13737869317E+03  0.19674257394E+03  0.12509000000E+03 0.  0.
         25    1    3    3    0    0  0.24649610672E+02 -0.10542385848E+03  0.16463327889E+03  0.23339541097E+03  0.12509000000E+03 0.  0.
         25    1    4    4    0    0 -0.52014516498E+02  0.46786081477E+02  0.15791501704E+03  0.21325831297E+03  0.12509000000E+03 0.  0.
<mgrwt>
<rscale>  2 0.44991773E+03</rscale>
<asrwt>0</asrwt>
<pdfrwt beam="1">  1       21 0.81126711E-01 0.44991773E+03</pdfrwt>
<pdfrwt beam="2">  1       21 0.13490391E-01 0.44991773E+03</pdfrwt>
<totfact> 0.58390037E+04</totfact>
</mgrwt>
</event>
<event>
 7    0  0.4750554E-002  0.4258707E+03  0.7546771E-02  0.1035172E+00
         21   -1    0    0  502  501  0.00000000000E+00  0.00000000000E+00  0.20895382060E+03  0.20895382060E+03  0.00000000000E+00 0.  1.
         21   -1    0    0  501  502 -0.00000000000E+00 -0.00000000000E+00 -0.21699271272E+03  0.21699271272E+03  0.00000000000E+00 0.  1.
      99926    2    1    2    0    0  0.00000000000E+00 -0.22204460493E-15 -0.80388921183E+01  0.42594653332E+03  0.42587066753E+03 0.  0.
      99925    2    3    3    0    0  0.34908452338E+02  0.81680640254E+00 -0.80483137642E+02  0.27723559214E+03  0.26298815732E+03 0.  0.
         25    1    4    4    0    0  0.33160001572E+02 -0.74152701927E+01 -0.26152645323E+01  0.12964921768E+03  0.12509000000E+03 0.  0.
         25    1    3    3    0    0 -0.34908452338E+02 -0.81680640254E+00  0.72444245523E+02  0.14871094118E+03  0.12509000000E+03 0.  0.
         25    1    4    4    0    0  0.17484507657E+01  0.82320765953E+01 -0.77867873109E+02  0.14758637446E+03  0.12509000000E+03 0.  0.
<mgrwt>
<rscale>  2 0.42587067E+03</rscale>
<asrwt>0</asrwt>
<pdfrwt beam="1">  1       21 0.30728503E-01 0.42587067E+03</pdfrwt>
<pdfrwt beam="2">  1       21 0.31910693E-01 0.42587067E+03</pdfrwt>
<totfact> 0.89869593E+04</totfact>
</mgrwt>
</event>
<event>
 7    0  0.4750554E-002  0.4546520E+03  0.7546771E-02  0.1026344E+00
         21   -1    0    0  502  501  0.00000000000E+00  0.00000000000E+00  0.43628259666E+03  0.43628259666E+03  0.00000000000E+00 0.  1.
         21   -1    0    0  501  502 -0.00000000000E+00 -0.00000000000E+00 -0.11844868809E+03  0.11844868809E+03  0.00000000000E+00 0.  1.
      99926    2    1    2    0    0  0.00000000000E+00  0.00000000000E+00  0.31783390857E+03  0.55473128474E+03  0.45465196012E+03 0.  0.
      99925    2    3    3    0    0  0.86452828963E+02 -0.64494160063E+02  0.15926951514E+03  0.32576892260E+03  0.26291638244E+03 0.  0.
         25    1    4    4    0    0  0.58747793676E+02 -0.58058073699E+02  0.11875978412E+03  0.19124183017E+03  0.12509000000E+03 0.  0.
         25    1    4    4    0    0  0.27705035287E+02 -0.64360863636E+01  0.40509731020E+02  0.13452709242E+03  0.12509000000E+03 0.  0.
         25    1    3    3    0    0 -0.86452828963E+02  0.64494160063E+02  0.15856439343E+03  0.22896236215E+03  0.12509000000E+03 0.  0.
<mgrwt>
<rscale>  2 0.45465196E+03</rscale>
<asrwt>0</asrwt>
<pdfrwt beam="1">  1       21 0.64159205E-01 0.45465196E+03</pdfrwt>
<pdfrwt beam="2">  1       21 0.17418925E-01 0.45465196E+03</pdfrwt>
<totfact> 0.61724716E+04</totfact>
</mgrwt>
</event>
<event>
 7    0  0.4750554E-002  0.4599553E+03  0.7546771E-02  0.1024794E+00
         21   -1    0    0  502  501  0.00000000000E+00  0.00000000000E+00  0.52029131889E+03  0.52029131889E+03  0.00000000000E+00 0. -1.
         21   -1    0    0  501  502 -0.00000000000E+00 -0.00000000000E+00 -0.10165403743E+03  0.10165403743E+03  0.00000000000E+00 0. -1.
      99926    2    1    2    0    0 -0.71054273576E-14 -0.44408920985E-15  0.41863728146E+03  0.62194535632E+03  0.45995527263E+03 0.  0.
      99925    2    3    3    0    0 -0.51560775665E+02 -0.39459429437E+01  0.11913345297E+03  0.29327510298E+03  0.26295136881E+03 0.  0.
         25    1    3    3    0    0  0.51560775665E+02  0.39459429437E+01  0.29950382848E+03  0.32867025334E+03  0.12509000000E+03 0.  0.
         25    1    4    4    0    0  0.88488083713E+01 -0.23418686835E+02  0.61581555714E+02  0.14165638851E+03  0.12509000000E+03 0.  0.
         25    1    4    4    0    0 -0.60409584036E+02  0.19472743891E+02  0.57551897260E+02  0.15161871447E+03  0.12509000000E+03 0.  0.
<mgrwt>
<rscale>  2 0.45995527E+03</rscale>
<asrwt>0</asrwt>
<pdfrwt beam="1">  1       21 0.76513428E-01 0.45995527E+03</pdfrwt>
<pdfrwt beam="2">  1       21 0.14949123E-01 0.45995527E+03</pdfrwt>
<totfact> 0.55157300E+04</totfact>
</mgrwt>
</event>
<event>
 7    0  0.4750554E-002  0.4611868E+03  0.7546771E-02  0.1024438E+00
         21   -1    0    0  502  501  0.00000000000E+00  0.00000000000E+00  0.24782242874E+03  0.24782242874E+03  0.00000000000E+00 0. -1.
         21   -1    0    0  501  502 -0.00000000000E+00 -0.00000000000E+00 -0.21456215171E+03  0.21456215171E+03  0.00000000000E+00 0. -1.
      99926    2    1    2    0    0  0.00000000000E+00  0.00000000000E+00  0.33260277029E+02  0.46238458045E+03  0.46118678885E+03 0.  0.
      99925    2    3    3    0    0 -0.87990726949E+02  0.73067540457E+02  0.52659624848E+02  0.29178248113E+03  0.26321615966E+03 0.  0.
         25    1    4    4    0    0 -0.60151763077E+02  0.50345273617E+02  0.64444412848E+02  0.16110081199E+03  0.12509000000E+03 0.  0.
         25    1    4    4    0    0 -0.27838963871E+02  0.22722266840E+02 -0.11784788000E+02  0.13068166914E+03  0.12509000000E+03 0.  0.
         25    1    3    3    0    0  0.87990726949E+02 -0.73067540457E+02 -0.19399347820E+02  0.17060209932E+03  0.12509000000E+03 0.  0.
<mgrwt>
<rscale>  2 0.46118679E+03</rscale>
<asrwt>0</asrwt>
<pdfrwt beam="1">  1       21 0.36444475E-01 0.46118679E+03</pdfrwt>
<pdfrwt beam="2">  1       21 0.31553258E-01 0.46118679E+03</pdfrwt>
<totfact> 0.64752313E+04</totfact>
</mgrwt>
</event>
<event>
 7    0  0.4750554E-002  0.4569638E+03  0.7546771E-02  0.1025665E+00
         21   -1    0    0  502  501  0.00000000000E+00  0.00000000000E+00  0.28551401049E+03  0.28551401049E+03  0.00000000000E+00 0.  1.
         21   -1    0    0  501  502 -0.00000000000E+00 -0.00000000000E+00 -0.18284210117E+03  0.18284210117E+03  0.00000000000E+00 0.  1.
      99926    2    1    2    0    0  0.00000000000E+00  0.00000000000E+00  0.10267190932E+03  0.46835611167E+03  0.45696381298E+03 0.  0.
      99925    2    3    3    0    0  0.88622694685E+02  0.73047160380E+02  0.69173173766E+02  0.29526785951E+03  0.26307472557E+03 0.  0.
         25    1    4    4    0    0  0.40714409085E+02  0.18817872744E+02  0.71162602276E+02  0.15074282571E+03  0.12509000000E+03 0.  0.
         25    1    4    4    0    0  0.47908285599E+02  0.54229287635E+02 -0.19894285101E+01  0.14452503379E+03  0.12509000000E+03 0.  0.
         25    1    3    3    0    0 -0.88622694685E+02 -0.73047160380E+02  0.33498735555E+02  0.17308825216E+03  0.12509000000E+03 0.  0.
<mgrwt>
<rscale>  2 0.45696381E+03</rscale>
<asrwt>0</asrwt>
<pdfrwt beam="1">  1       21 0.41987355E-01 0.45696381E+03</pdfrwt>
<pdfrwt beam="2">  1       21 0.26888544E-01 0.45696381E+03</pdfrwt>
<totfact> 0.66516301E+04</totfact>
</mgrwt>
</event>
<event>
 7    0  0.4750554E-002  0.4523237E+03  0.7546771E-02  0.1027031E+00
         21   -1    0    0  502  501  0.00000000000E+00  0.00000000000E+00  0.39952967393E+02  0.39952967393E+02  0.00000000000E+00 0.  1.
         21   -1    0    0  501  502 -0.00000000000E+00 -0.00000000000E+00 -0.12802350125E+04  0.12802350125E+04  0.00000000000E+00 0.  1.
      99926    2    1    2    0    0  0.00000000000E+00  0.00000000000E+00 -0.12402820451E+04  0.13201879798E+04  0.45232372349E+03 0.  0.
      99925    2    3    3    0    0 -0.85511913673E+02  0.42190704987E+02 -0.94652623859E+03  0.98697284678E+03  0.26288997125E+03 0.  0.
         25    1    3    3    0    0  0.85511913673E+02 -0.42190704987E+02 -0.29375580647E+03  0.33321513306E+03  0.12509000000E+03 0.  0.
         25    1    4    4    0    0 -0.78096785941E+02  0.32264361998E+02 -0.58723324243E+03  0.60632539625E+03  0.12509000000E+03 0.  0.
         25    1    4    4    0    0 -0.74151277318E+01  0.99263429885E+01 -0.35929299617E+03  0.38064745053E+03  0.12509000000E+03 0.  0.
<mgrwt>
<rscale>  2 0.45232372E+03</rscale>
<asrwt>0</asrwt>
<pdfrwt beam="1">  1       21 0.58754369E-02 0.45232372E+03</pdfrwt>
<pdfrwt beam="2">  1       21 0.18826984E+00 0.45232372E+03</pdfrwt>
<totfact> 0.29135633E+04</totfact>
</mgrwt>
</event>
<event>
 7    0  0.4750554E-002  0.4399092E+03  0.7546771E-02  0.1030775E+00
         21   -1    0    0  502  501  0.00000000000E+00  0.00000000000E+00  0.48503135166E+02  0.48503135166E+02  0.00000000000E+00 0. -1.
         21   -1    0    0  501  502 -0.00000000000E+00 -0.00000000000E+00 -0.99746189317E+03  0.99746189317E+03  0.00000000000E+00 0. -1.
      99926    2    1    2    0    0  0.00000000000E+00 -0.13322676296E-14 -0.94895875801E+03  0.10459650283E+04  0.43990921349E+03 0.  0.
      99925    2    3    3    0    0 -0.82775713467E+02  0.33788901156E+01 -0.73199547109E+03  0.78217759193E+03  0.26290907170E+03 0.  0.
         25    1    4    4    0    0 -0.25462203636E+02 -0.35741797953E+02 -0.34540592157E+03  0.36997102412E+03  0.12509000000E+03 0.  0.
         25    1    4    4    0    0 -0.57313509831E+02  0.39120688068E+02 -0.38658954952E+03  0.41220656781E+03  0.12509000000E+03 0.  0.
         25    1    3    3    0    0  0.82775713467E+02 -0.33788901156E+01 -0.21696328692E+03  0.26378743641E+03  0.12509000000E+03 0.  0.
<mgrwt>
<rscale>  2 0.43990921E+03</rscale>
<asrwt>0</asrwt>
<pdfrwt beam="1">  1       21 0.71328140E-02 0.43990921E+03</pdfrwt>
<pdfrwt beam="2">  1       21 0.14668557E+00 0.43990921E+03</pdfrwt>
<totfact> 0.42179402E+04</totfact>
</mgrwt>
</event>
<event>
 7    0  0.4750554E-002  0.4585747E+03  0.7546771E-02  0.1025195E+00
         21   -1    0    0  502  501  0.00000000000E+00  0.00000000000E+00  0.10239277215E+04  0.10239277215E+04  0.00000000000E+00 0. -1.
         21   -1    0    0  501  502 -0.00000000000E+00 -0.00000000000E+00 -0.51344143511E+02  0.51344143511E+02  0.00000000000E+00 0. -1.
      99926    2    1    2    0    0  0.71054273576E-14 -0.14210854715E-13  0.97258357800E+03  0.10752718650E+04  0.45857471312E+03 0.  0.
      99925    2    3    3    0    0  0.50558212746E+02 -0.74258030992E+02  0.78377610954E+03  0.83162015399E+03  0.26309067370E+03 0.  0.
         25    1    4    4    0    0  0.52842771110E+02 -0.67979504342E+02  0.46213149787E+03  0.48644280331E+03  0.12509000000E+03 0.  0.
         25    1    4    4    0    0 -0.22845583635E+01 -0.62785266508E+01  0.32164461167E+03  0.34517735068E+03  0.12509000000E+03 0.  0.
         25    1    3    3    0    0 -0.50558212746E+02  0.74258030992E+02  0.18880746845E+03  0.24365171103E+03  0.12509000000E+03 0.  0.
<mgrwt>
<rscale>  2 0.45857471E+03</rscale>
<asrwt>0</asrwt>
<pdfrwt beam="1">  1       21 0.15057759E+00 0.45857471E+03</pdfrwt>
<pdfrwt beam="2">  1       21 0.75506100E-02 0.45857471E+03</pdfrwt>
<totfact> 0.35366670E+04</totfact>
</mgrwt>
</event>
<event>
 7    0  0.4750554E-002  0.4536130E+03  0.7546771E-02  0.1026650E+00
         21   -1    0    0  502  501  0.00000000000E+00  0.00000000000E+00  0.57646245115E+02  0.57646245115E+02  0.00000000000E+00 0.  1.
         21   -1    0    0  501  502 -0.00000000000E+00 -0.00000000000E+00 -0.89235986782E+03  0.89235986782E+03  0.00000000000E+00 0.  1.
      99926    2    1    2    0    0  0.00000000000E+00 -0.17763568394E-14 -0.83471362271E+03  0.95000611294E+03  0.45361303187E+03 0.  0.
      99925    2    3    3    0    0  0.98415864566E+02  0.88001851481E+01 -0.63590752509E+03  0.69518362923E+03  0.26294252645E+03 0.  0.
         25    1    4    4    0    0  0.84428234303E+02 -0.73011306278E+01 -0.29536704151E+03  0.33176894153E+03  0.12509000000E+03 0.  0.
         25    1    3    3    0    0 -0.98415864566E+02 -0.88001851481E+01 -0.19880609761E+03  0.25482248371E+03  0.12509000000E+03 0.  0.
         25    1    4    4    0    0  0.13987630263E+02  0.16101315776E+02 -0.34054048358E+03  0.36341468769E+03  0.12509000000E+03 0.  0.
<mgrwt>
<rscale>  2 0.45361303E+03</rscale>
<asrwt>0</asrwt>
<pdfrwt beam="1">  1       21 0.84773890E-02 0.45361303E+03</pdfrwt>
<pdfrwt beam="2">  1       21 0.13122939E+00 0.45361303E+03</pdfrwt>
<totfact> 0.41589803E+04</totfact>
</mgrwt>
</event>
<event>
 7    0  0.4750554E-002  0.4552914E+03  0.7546771E-02  0.1026156E+00
         21   -1    0    0  502  501  0.00000000000E+00  0.00000000000E+00  0.17507849257E+02  0.17507849257E+02  0.00000000000E+00 0. -1.
         21   -1    0    0  501  502 -0.00000000000E+00 -0.00000000000E+00 -0.29599611971E+04  0.29599611971E+04  0.00000000000E+00 0. -1.
      99926    2    1    2    0    0  0.00000000000E+00  0.00000000000E+00 -0.29424533479E+04  0.29774690464E+04  0.45529135483E+03 0.  0.
      99925    2    3    3    0    0  0.50549151993E+02 -0.95977438447E+02 -0.16535824544E+04  0.16780066292E+04  0.26382651267E+03 0.  0.
         25    1    4    4    0    0  0.53939485604E+02 -0.52968279956E+02 -0.68437685117E+03  0.69981018091E+03  0.12509000000E+03 0.  0.
         25    1    4    4    0    0 -0.33903336104E+01 -0.43009158492E+02 -0.96920560320E+03  0.97819644829E+03  0.12509000000E+03 0.  0.
         25    1    3    3    0    0 -0.50549151993E+02  0.95977438447E+02 -0.12888708935E+04  0.12994624172E+04  0.12509000000E+03 0.  0.
<mgrwt>
<rscale>  2 0.45529135E+03</rscale>
<asrwt>0</asrwt>
<pdfrwt beam="1">  1       21 0.25746871E-02 0.45529135E+03</pdfrwt>
<pdfrwt beam="2">  1       21 0.43528784E+00 0.45529135E+03</pdfrwt>
<totfact> 0.33671019E+03</totfact>
</mgrwt>
</event>
<event>
 7    0  0.4750554E-002  0.4488246E+03  0.7546771E-02  0.1028073E+00
         21   -1    0    0  502  501  0.00000000000E+00  0.00000000000E+00  0.35086711112E+03  0.35086711112E+03  0.00000000000E+00 0. -1.
         21   -1    0    0  501  502 -0.00000000000E+00 -0.00000000000E+00 -0.14353265443E+03  0.14353265443E+03  0.00000000000E+00 0. -1.
      99926    2    1    2    0    0 -0.14210854715E-13  0.00000000000E+00  0.20733445669E+03  0.49439976555E+03  0.44882463306E+03 0.  0.
      99925    2    3    3    0    0 -0.10169418648E+03 -0.13603711713E+02  0.16557819238E+03  0.32731337398E+03  0.26304208496E+03 0.  0.
         25    1    4    4    0    0 -0.53767507541E+02  0.11861462603E+01  0.37123617790E+02  0.14113122584E+03  0.12509000000E+03 0.  0.
         25    1    4    4    0    0 -0.47926678942E+02 -0.14789857974E+02  0.12845457459E+03  0.18618214814E+03  0.12509000000E+03 0.  0.
         25    1    3    3    0    0  0.10169418648E+03  0.13603711713E+02  0.41756264316E+02  0.16708639157E+03  0.12509000000E+03 0.  0.
<mgrwt>
<rscale>  2 0.44882463E+03</rscale>
<asrwt>0</asrwt>
<pdfrwt beam="1">  1       21 0.51598104E-01 0.44882463E+03</pdfrwt>
<pdfrwt beam="2">  1       21 0.21107743E-01 0.44882463E+03</pdfrwt>
<totfact> 0.68986216E+04</totfact>
</mgrwt>
</event>
<event>
 7    0  0.4750554E-002  0.4219573E+03  0.7546771E-02  0.1036431E+00
         21   -1    0    0  502  501  0.00000000000E+00  0.00000000000E+00  0.36073389481E+03  0.36073389481E+03  0.00000000000E+00 0.  1.
         21   -1    0    0  501  502 -0.00000000000E+00 -0.00000000000E+00 -0.12339288339E+03  0.12339288339E+03  0.00000000000E+00 0.  1.
      99926    2    1    2    0    0  0.00000000000E+00  0.00000000000E+00  0.23734101142E+03  0.48412677820E+03  0.42195732209E+03 0.  0.
      99925    2    3    3    0    0  0.32528275734E+02 -0.49802046353E+02  0.96059608780E+02  0.28627260115E+03  0.26303273786E+03 0.  0.
         25    1    3    3    0    0 -0.32528275734E+02  0.49802046353E+02  0.14128140264E+03  0.19785417705E+03  0.12509000000E+03 0.  0.
         25    1    4    4    0    0  0.49186621095E+02 -0.35592036183E+02  0.73554864988E+02  0.15730207563E+03  0.12509000000E+03 0.  0.
         25    1    4    4    0    0 -0.16658345360E+02 -0.14210010170E+02  0.22504743791E+02  0.12897052552E+03  0.12509000000E+03 0.  0.
<mgrwt>
<rscale>  2 0.42195732E+03</rscale>
<asrwt>0</asrwt>
<pdfrwt beam="1">  1       21 0.53049102E-01 0.42195732E+03</pdfrwt>
<pdfrwt beam="2">  1       21 0.18146012E-01 0.42195732E+03</pdfrwt>
<totfact> 0.87094713E+04</totfact>
</mgrwt>
</event>
<event>
 7    0  0.4750554E-002  0.4550449E+03  0.7546771E-02  0.1026228E+00
         21   -1    0    0  502  501  0.00000000000E+00  0.00000000000E+00  0.16386393918E+03  0.16386393918E+03  0.00000000000E+00 0.  1.
         21   -1    0    0  501  502 -0.00000000000E+00 -0.00000000000E+00 -0.31591132088E+03  0.31591132088E+03  0.00000000000E+00 0.  1.
      99926    2    1    2    0    0  0.00000000000E+00  0.00000000000E+00 -0.15204738170E+03  0.47977526007E+03  0.45504493612E+03 0.  0.
      99925    2    3    3    0    0 -0.77633201454E+02 -0.82191654499E+02 -0.93521299300E+02  0.30129503018E+03  0.26315409887E+03 0.  0.
         25    1    4    4    0    0 -0.39801364174E+02 -0.83762067187E+02 -0.50432451979E+02  0.16368009287E+03  0.12509000000E+03 0.  0.
         25    1    3    3    0    0  0.77633201454E+02  0.82191654499E+02 -0.58526082403E+02  0.17848022988E+03  0.12509000000E+03 0.  0.
         25    1    4    4    0    0 -0.37831837280E+02  0.15704126886E+01 -0.43088847321E+02  0.13761493731E+03  0.12509000000E+03 0.  0.
<mgrwt>
<rscale>  2 0.45504494E+03</rscale>
<asrwt>0</asrwt>
<pdfrwt beam="1">  1       21 0.24097638E-01 0.45504494E+03</pdfrwt>
<pdfrwt beam="2">  1       21 0.46457547E-01 0.45504494E+03</pdfrwt>
<totfact> 0.66692669E+04</totfact>
</mgrwt>
</event>
<event>
 7    0  0.4750554E-002  0.4573547E+03  0.7546771E-02  0.1025551E+00
         21   -1    0    0  502  501  0.00000000000E+00  0.00000000000E+00  0.11609753296E+04  0.11609753296E+04  0.00000000000E+00 0.  1.
         21   -1    0    0  501  502 -0.00000000000E+00 -0.00000000000E+00 -0.45042586478E+02  0.45042586478E+02  0.00000000000E+00 0.  1.
      99926    2    1    2    0    0  0.00000000000E+00  0.14210854715E-13  0.11159327431E+04  0.12060179161E+04  0.45735470560E+03 0.  0.
      99925    2    3    3    0    0 -0.30190825518E+02  0.91158673258E+02  0.53208172301E+03  0.60124447797E+03  0.26298778046E+03 0.  0.
         25    1    3    3    0    0  0.30190825518E+02 -0.91158673258E+02  0.58385102012E+03  0.60477343811E+03  0.12509000000E+03 0.  0.
         25    1    4    4    0    0 -0.38640559256E+02  0.81507133908E+02  0.29136781742E+03  0.32966531335E+03  0.12509000000E+03 0.  0.
         25    1    4    4    0    0  0.84497337382E+01  0.96515393495E+01  0.24071390559E+03  0.27157916462E+03  0.12509000000E+03 0.  0.
<mgrwt>
<rscale>  2 0.45735471E+03</rscale>
<asrwt>0</asrwt>
<pdfrwt beam="1">  1       21 0.17073165E+00 0.45735471E+03</pdfrwt>
<pdfrwt beam="2">  1       21 0.66239105E-02 0.45735471E+03</pdfrwt>
<totfact> 0.31386151E+04</totfact>
</mgrwt>
</event>
<event>
 7    0  0.4750554E-002  0.4162032E+03  0.7546771E-02  0.1038309E+00
         21   -1    0    0  502  501  0.00000000000E+00  0.00000000000E+00  0.16316190213E+04  0.16316190213E+04  0.00000000000E+00 0. -1.
         21   -1    0    0  501  502 -0.00000000000E+00 -0.00000000000E+00 -0.26541902795E+02  0.26541902795E+02  0.00000000000E+00 0. -1.
      99926    2    1    2    0    0  0.00000000000E+00  0.22204460493E-15  0.16050771185E+04  0.16581609241E+04  0.41620318818E+03 0.  0.
      99925    2    3    3    0    0  0.69207979522E+02  0.11066440730E+01  0.11133371453E+04  0.11460606620E+04  0.26295336618E+03 0.  0.
         25    1    4    4    0    0  0.53037511046E+02  0.26770396036E+02  0.47014661435E+03  0.49011731123E+03  0.12509000000E+03 0.  0.
         25    1    3    3    0    0 -0.69207979522E+02 -0.11066440730E+01  0.49173997317E+03  0.51210026206E+03  0.12509000000E+03 0.  0.
         25    1    4    4    0    0  0.16170468476E+02 -0.25663751963E+02  0.64319053099E+03  0.65594335080E+03  0.12509000000E+03 0.  0.
<mgrwt>
<rscale>  2 0.41620319E+03</rscale>
<asrwt>0</asrwt>
<pdfrwt beam="1">  1       21 0.23994391E+00 0.41620319E+03</pdfrwt>
<pdfrwt beam="2">  1       21 0.39032221E-02 0.41620319E+03</pdfrwt>
<totfact> 0.27559448E+04</totfact>
</mgrwt>
</event>
<event>
 7    0  0.4750554E-002  0.4526409E+03  0.7546771E-02  0.1026937E+00
         21   -1    0    0  502  501  0.00000000000E+00  0.00000000000E+00  0.86494678200E+02  0.86494678200E+02  0.00000000000E+00 0.  1.
         21   -1    0    0  501  502 -0.00000000000E+00 -0.00000000000E+00 -0.59218620285E+03  0.59218620285E+03  0.00000000000E+00 0.  1.
      99926    2    1    2    0    0  0.00000000000E+00  0.00000000000E+00 -0.50569152465E+03  0.67868088105E+03  0.45264093960E+03 0.  0.
      99925    2    3    3    0    0 -0.27325698897E+02  0.41094528370E+02 -0.46779383680E+03  0.53896976150E+03  0.26310050547E+03 0.  0.
         25    1    4    4    0    0  0.24287786310E+02  0.31943423970E+02 -0.24953313824E+03  0.28200101787E+03  0.12509000000E+03 0.  0.
         25    1    4    4    0    0 -0.51613485208E+02  0.91511044002E+01 -0.21826069856E+03  0.25696874363E+03  0.12509000000E+03 0.  0.
         25    1    3    3    0    0  0.27325698897E+02 -0.41094528370E+02 -0.37897687851E+02  0.13971111955E+03  0.12509000000E+03 0.  0.
<mgrwt>
<rscale>  2 0.45264094E+03</rscale>
<asrwt>0</asrwt>
<pdfrwt beam="1">  1       21 0.12719806E-01 0.45264094E+03</pdfrwt>
<pdfrwt beam="2">  1       21 0.87086206E-01 0.45264094E+03</pdfrwt>
<totfact> 0.55092589E+04</totfact>
</mgrwt>
</event>
<event>
 7    0  0.4750554E-002  0.4818767E+03  0.7546771E-02  0.1018621E+00
         21   -1    0    0  502  501  0.00000000000E+00  0.00000000000E+00  0.12139626381E+03  0.12139626381E+03  0.00000000000E+00 0.  1.
         21   -1    0    0  501  502 -0.00000000000E+00 -0.00000000000E+00 -0.47819670537E+03  0.47819670537E+03  0.00000000000E+00 0.  1.
      99926    2    1    2    0    0 -0.14210854715E-13  0.00000000000E+00 -0.35680044156E+03  0.59959296918E+03  0.48187672033E+03 0.  0.
      99925    2    3    3    0    0  0.11291216861E+03  0.74745056384E+02 -0.19560402094E+03  0.35470978194E+03  0.26310095994E+03 0.  0.
         25    1    3    3    0    0 -0.11291216861E+03 -0.74745056384E+02 -0.16119642062E+03  0.24488318725E+03  0.12509000000E+03 0.  0.
         25    1    4    4    0    0  0.97706046717E+02  0.49214041158E+02 -0.94688054160E+02  0.19126376843E+03  0.12509000000E+03 0.  0.
         25    1    4    4    0    0  0.15206121894E+02  0.25531015226E+02 -0.10091596678E+03  0.16344601351E+03  0.12509000000E+03 0.  0.
<mgrwt>
<rscale>  2 0.48187672E+03</rscale>
<asrwt>0</asrwt>
<pdfrwt beam="1">  1       21 0.17852392E-01 0.48187672E+03</pdfrwt>
<pdfrwt beam="2">  1       21 0.70323045E-01 0.48187672E+03</pdfrwt>
<totfact> 0.47729075E+04</totfact>
</mgrwt>
</event>
<event>
 7    0  0.4750554E-002  0.4559166E+03  0.7546771E-02  0.1025972E+00
         21   -1    0    0  502  501  0.00000000000E+00  0.00000000000E+00  0.59332649131E+03  0.59332649131E+03  0.00000000000E+00 0.  1.
         21   -1    0    0  501  502 -0.00000000000E+00 -0.00000000000E+00 -0.87582451945E+02  0.87582451945E+02  0.00000000000E+00 0.  1.
      99926    2    1    2    0    0 -0.17763568394E-14  0.14210854715E-13  0.50574403936E+03  0.68090894325E+03  0.45591661041E+03 0.  0.
      99925    2    3    3    0    0  0.15422557545E+02 -0.10675911502E+03  0.37343921377E+03  0.46927851327E+03  0.26292605940E+03 0.  0.
         25    1    4    4    0    0  0.35030581615E+02 -0.82979186381E+02  0.18166399935E+03  0.23824777812E+03  0.12509000000E+03 0.  0.
         25    1    3    3    0    0 -0.15422557545E+02  0.10675911502E+03  0.13230482559E+03  0.21163042998E+03  0.12509000000E+03 0.  0.
         25    1    4    4    0    0 -0.19608024070E+02 -0.23779928642E+02  0.19177521443E+03  0.23103073515E+03  0.12509000000E+03 0.  0.
<mgrwt>
<rscale>  2 0.45591661E+03</rscale>
<asrwt>0</asrwt>
<pdfrwt beam="1">  1       21 0.87253894E-01 0.45591661E+03</pdfrwt>
<pdfrwt beam="2">  1       21 0.12879773E-01 0.45591661E+03</pdfrwt>
<totfact> 0.53564524E+04</totfact>
</mgrwt>
</event>
<event>
 7    0  0.4750554E-002  0.4661532E+03  0.7546771E-02  0.1023012E+00
         21   -1    0    0  502  501  0.00000000000E+00  0.00000000000E+00  0.10553876199E+04  0.10553876199E+04  0.00000000000E+00 0.  1.
         21   -1    0    0  501  502 -0.00000000000E+00 -0.00000000000E+00 -0.51473691328E+02  0.51473691328E+02  0.00000000000E+00 0.  1.
      99926    2    1    2    0    0  0.14210854715E-13  0.14210854715E-13  0.10039139286E+04  0.11068613112E+04  0.46615317903E+03 0.  0.
      99925    2    3    3    0    0  0.89041711782E+02  0.68758843251E+02  0.50514468088E+03  0.58048266851E+03  0.26293112190E+03 0.  0.
         25    1    4    4    0    0  0.33373181844E+02  0.46806914772E+02  0.17694293647E+03  0.22418957916E+03  0.12509000000E+03 0.  0.
         25    1    4    4    0    0  0.55668529938E+02  0.21951928479E+02  0.32820174440E+03  0.35629308935E+03  0.12509000000E+03 0.  0.
         25    1    3    3    0    0 -0.89041711782E+02 -0.68758843251E+02  0.49876924771E+03  0.52637864273E+03  0.12509000000E+03 0.  0.
<mgrwt>
<rscale>  2 0.46615318E+03</rscale>
<asrwt>0</asrwt>
<pdfrwt beam="1">  1       21 0.15520405E+00 0.46615318E+03</pdfrwt>
<pdfrwt beam="2">  1       21 0.75696612E-02 0.46615318E+03</pdfrwt>
<totfact> 0.32349398E+04</totfact>
</mgrwt>
</event>
<event>
 7    0  0.4750554E-002  0.4562918E+03  0.7546771E-02  0.1025862E+00
         21   -1    0    0  502  501  0.00000000000E+00  0.00000000000E+00  0.80844836156E+03  0.80844836156E+03  0.00000000000E+00 0.  1.
         21   -1    0    0  501  502 -0.00000000000E+00 -0.00000000000E+00 -0.64383280285E+02  0.64383280285E+02  0.00000000000E+00 0.  1.
      99926    2    1    2    0    0 -0.71054273576E-14 -0.26645352591E-14  0.74406508128E+03  0.87283164185E+03  0.45629182530E+03 0.  0.
      99925    2    3    3    0    0  0.42916328888E+02 -0.70534377680E+01  0.67002430102E+03  0.72110455953E+03  0.26299745158E+03 0.  0.
         25    1    3    3    0    0 -0.42916328888E+02  0.70534377680E+01  0.74040780255E+02  0.15172708232E+03  0.12509000000E+03 0.  0.
         25    1    4    4    0    0  0.47588349497E+02 -0.27084674286E+02  0.40324585822E+03  0.42573813649E+03  0.12509000000E+03 0.  0.
         25    1    4    4    0    0 -0.46720206092E+01  0.20031236518E+02  0.26677844280E+03  0.29536642303E+03  0.12509000000E+03 0.  0.
<mgrwt>
<rscale>  2 0.45629183E+03</rscale>
<asrwt>0</asrwt>
<pdfrwt beam="1">  1       21 0.11888946E+00 0.45629183E+03</pdfrwt>
<pdfrwt beam="2">  1       21 0.94681299E-02 0.45629183E+03</pdfrwt>
<totfact> 0.43982489E+04</totfact>
</mgrwt>
</event>
<event>
 6    0  0.4750554E-002  0.4539624E+03  0.7546771E-02  0.1026547E+00
         21   -1    0    0  502  501  0.00000000000E+00  0.00000000000E+00  0.48959541260E+02  0.48959541260E+02  0.00000000000E+00 0. -1.
         21   -1    0    0  501  502 -0.00000000000E+00 -0.00000000000E+00 -0.10523068411E+04  0.10523068411E+04  0.00000000000E+00 0. -1.
      99926    2    1    2    0    0 -0.14210854715E-13  0.00000000000E+00 -0.10033472999E+04  0.11012663824E+04  0.45396237820E+03 0.  0.
         25    1    3    3    0    0  0.91683407218E+02  0.40192492746E+02 -0.47389684044E+03  0.50024694613E+03  0.12509000000E+03 0.  0.
         25    1    3    3    0    0 -0.31630769163E+01  0.20399529457E+01 -0.24784789937E+03  0.27765132052E+03  0.12509000000E+03 0.  0.
         25    1    3    3    0    0 -0.88520330302E+02 -0.42232445691E+02 -0.28160256006E+03  0.32336811574E+03  0.12509000000E+03 0.  0.
<mgrwt>
<rscale>  2 0.45396238E+03</rscale>
<asrwt>0</asrwt>
<pdfrwt beam="1">  1       21 0.71999324E-02 0.45396238E+03</pdfrwt>
<pdfrwt beam="2">  1       21 0.15475101E+00 0.45396238E+03</pdfrwt>
<totfact> 0.35738743E+04</totfact>
</mgrwt>
</event>
<event>
 7    0  0.4750554E-002  0.4526735E+03  0.7546771E-02  0.1026928E+00
         21   -1    0    0  502  501  0.00000000000E+00  0.00000000000E+00  0.18179539378E+03  0.18179539378E+03  0.00000000000E+00 0. -1.
         21   -1    0    0  501  502 -0.00000000000E+00 -0.00000000000E+00 -0.28179105167E+03  0.28179105167E+03  0.00000000000E+00 0. -1.
      99926    2    1    2    0    0  0.00000000000E+00  0.00000000000E+00 -0.99995657894E+02  0.46358644545E+03  0.45267345936E+03 0.  0.
      99925    2    3    3    0    0 -0.78878898266E+02  0.30337904043E+02  0.10590385172E+02  0.27645266968E+03  0.26300504425E+03 0.  0.
         25    1    4    4    0    0 -0.34800430088E+02  0.52933855783E+02 -0.89481442677E+01  0.14050138935E+03  0.12509000000E+03 0.  0.
         25    1    3    3    0    0  0.78878898266E+02 -0.30337904043E+02 -0.11058604307E+03  0.18713377577E+03  0.12509000000E+03 0.  0.
         25    1    4    4    0    0 -0.44078468178E+02 -0.22595951740E+02  0.19538529439E+02  0.13595128033E+03  0.12509000000E+03 0.  0.
<mgrwt>
<rscale>  2 0.45267346E+03</rscale>
<asrwt>0</asrwt>
<pdfrwt beam="1">  1       21 0.26734617E-01 0.45267346E+03</pdfrwt>
<pdfrwt beam="2">  1       21 0.41439860E-01 0.45267346E+03</pdfrwt>
<totfact> 0.69184128E+04</totfact>
</mgrwt>
</event>
<event>
 7    0  0.4750554E-002  0.4552171E+03  0.7546771E-02  0.1026178E+00
         21   -1    0    0  502  501  0.00000000000E+00  0.00000000000E+00  0.40731085817E+03  0.40731085817E+03  0.00000000000E+00 0. -1.
         21   -1    0    0  501  502 -0.00000000000E+00 -0.00000000000E+00 -0.12718945328E+03  0.12718945328E+03  0.00000000000E+00 0. -1.
      99926    2    1    2    0    0  0.00000000000E+00  0.00000000000E+00  0.28012140489E+03  0.53450031146E+03  0.45521707072E+03 0.  0.
      99925    2    3    3    0    0  0.85165712794E+02 -0.57659416668E+02  0.12029303569E+03  0.30696916487E+03  0.26302442240E+03 0.  0.
         25    1    4    4    0    0  0.19414796973E+02 -0.54629442557E+02  0.82433751398E+02  0.16063667640E+03  0.12509000000E+03 0.  0.
         25    1    4    4    0    0  0.65750915821E+02 -0.30299741107E+01  0.37859284291E+02  0.14633248847E+03  0.12509000000E+03 0.  0.
         25    1    3    3    0    0 -0.85165712794E+02  0.57659416668E+02  0.15982836920E+03  0.22753114659E+03  0.12509000000E+03 0.  0.
<mgrwt>
<rscale>  2 0.45521707E+03</rscale>
<asrwt>0</asrwt>
<pdfrwt beam="1">  1       21 0.59898655E-01 0.45521707E+03</pdfrwt>
<pdfrwt beam="2">  1       21 0.18704331E-01 0.45521707E+03</pdfrwt>
<totfact> 0.62794550E+04</totfact>
</mgrwt>
</event>
<event>
 7    0  0.4750554E-002  0.4449152E+03  0.7546771E-02  0.1029249E+00
         21   -1    0    0  502  501  0.00000000000E+00  0.00000000000E+00  0.48796515589E+03  0.48796515589E+03  0.00000000000E+00 0.  1.
         21   -1    0    0  501  502 -0.00000000000E+00 -0.00000000000E+00 -0.10141579274E+03  0.10141579274E+03  0.00000000000E+00 0.  1.
      99926    2    1    2    0    0  0.00000000000E+00  0.00000000000E+00  0.38654936315E+03  0.58938094862E+03  0.44491515196E+03 0.  0.
      99925    2    3    3    0    0 -0.40064530598E+02 -0.87249220218E+02  0.29647184485E+03  0.40777957075E+03  0.26300386023E+03 0.  0.
         25    1    3    3    0    0  0.40064530598E+02  0.87249220218E+02  0.90077518304E+02  0.18160137787E+03  0.12509000000E+03 0.  0.
         25    1    4    4    0    0 -0.27208728181E+02 -0.34680680348E+02  0.89647512245E+02  0.16008513057E+03  0.12509000000E+03 0.  0.
         25    1    4    4    0    0 -0.12855802417E+02 -0.52568539870E+02  0.20682433260E+03  0.24769444018E+03  0.12509000000E+03 0.  0.
<mgrwt>
<rscale>  2 0.44491515E+03</rscale>
<asrwt>0</asrwt>
<pdfrwt beam="1">  1       21 0.71759581E-01 0.44491515E+03</pdfrwt>
<pdfrwt beam="2">  1       21 0.14914087E-01 0.44491515E+03</pdfrwt>
<totfact> 0.64311331E+04</totfact>
</mgrwt>
</event>
<event>
 7    0  0.4750554E-002  0.4323570E+03  0.7546771E-02  0.1033118E+00
         21   -1    0    0  502  501  0.00000000000E+00  0.00000000000E+00  0.21150132363E+04  0.21150132363E+04  0.00000000000E+00 0. -1.
         21   -1    0    0  501  502 -0.00000000000E+00 -0.00000000000E+00 -0.22095913948E+02  0.22095913948E+02  0.00000000000E+00 0. -1.
      99926    2    1    2    0    0  0.00000000000E+00  0.71054273576E-14  0.20929173223E+04  0.21371091502E+04  0.43235703056E+03 0.  0.
      99925    2    3    3    0    0  0.19072556611E+02 -0.50000142415E+02  0.17055880574E+04  0.17265787077E+04  0.26302021925E+03 0.  0.
         25    1    3    3    0    0 -0.19072556611E+02  0.50000142415E+02  0.38732926493E+03  0.41053044252E+03  0.12509000000E+03 0.  0.
         25    1    4    4    0    0  0.46873607254E+00 -0.55255350820E+00  0.61690040673E+03  0.62945543524E+03  0.12509000000E+03 0.  0.
         25    1    4    4    0    0  0.18603820538E+02 -0.49447588906E+02  0.10886876507E+04  0.10971232725E+04  0.12509000000E+03 0.  0.
<mgrwt>
<rscale>  2 0.43235703E+03</rscale>
<asrwt>0</asrwt>
<pdfrwt beam="1">  1       21 0.31103122E+00 0.43235703E+03</pdfrwt>
<pdfrwt beam="2">  1       21 0.32494006E-02 0.43235703E+03</pdfrwt>
<totfact> 0.13883144E+04</totfact>
</mgrwt>
</event>
<event>
 7    0  0.4750554E-002  0.4553151E+03  0.7546771E-02  0.1026149E+00
         21   -1    0    0  502  501  0.00000000000E+00  0.00000000000E+00  0.11704207196E+04  0.11704207196E+04  0.00000000000E+00 0.  1.
         21   -1    0    0  501  502 -0.00000000000E+00 -0.00000000000E+00 -0.44281474317E+02  0.44281474317E+02  0.00000000000E+00 0.  1.
      99926    2    1    2    0    0  0.00000000000E+00  0.71054273576E-14  0.11261392453E+04  0.12147021939E+04  0.45531507787E+03 0.  0.
      99925    2    3    3    0    0 -0.26377217617E+02  0.53745676857E+02  0.96566603239E+03  0.10026090173E+04  0.26292508469E+03 0.  0.
         25    1    4    4    0    0  0.25314601107E+02  0.15596998472E+02  0.43215908680E+03  0.45088033867E+03  0.12509000000E+03 0.  0.
         25    1    3    3    0    0  0.26377217617E+02 -0.53745676857E+02  0.16047321287E+03  0.21209317655E+03  0.12509000000E+03 0.  0.
         25    1    4    4    0    0 -0.51691818724E+02  0.38148678385E+02  0.53350694559E+03  0.55172867868E+03  0.12509000000E+03 0.  0.
<mgrwt>
<rscale>  2 0.45531508E+03</rscale>
<asrwt>0</asrwt>
<pdfrwt beam="1">  1       21 0.17212067E+00 0.45531508E+03</pdfrwt>
<pdfrwt beam="2">  1       21 0.65119823E-02 0.45531508E+03</pdfrwt>
<totfact> 0.31615757E+04</totfact>
</mgrwt>
</event>
<event>
 7    0  0.4750554E-002  0.4056113E+03  0.7546771E-02  0.1041854E+00
         21   -1    0    0  502  501  0.00000000000E+00  0.00000000000E+00  0.38069431857E+02  0.38069431857E+02  0.00000000000E+00 0.  1.
         21   -1    0    0  501  502 -0.00000000000E+00 -0.00000000000E+00 -0.10803978821E+04  0.10803978821E+04  0.00000000000E+00 0.  1.
      99926    2    1    2    0    0  0.00000000000E+00  0.00000000000E+00 -0.10423284503E+04  0.11184673140E+04  0.40561130927E+03 0.  0.
      99925    2    3    3    0    0  0.57672039902E+01  0.55304440165E+02 -0.68117893634E+03  0.73224416442E+03  0.26284012493E+03 0.  0.
         25    1    4    4    0    0 -0.17988556431E+02 -0.70661582369E+01 -0.33865552125E+03  0.36153642822E+03  0.12509000000E+03 0.  0.
         25    1    3    3    0    0 -0.57672039902E+01 -0.55304440165E+02 -0.36114951392E+03  0.38622314955E+03  0.12509000000E+03 0.  0.
         25    1    4    4    0    0  0.23755760421E+02  0.62370598402E+02 -0.34252341509E+03  0.37070773620E+03  0.12509000000E+03 0.  0.
<mgrwt>
<rscale>  2 0.40561131E+03</rscale>
<asrwt>0</asrwt>
<pdfrwt beam="1">  1       21 0.55984454E-02 0.40561131E+03</pdfrwt>
<pdfrwt beam="2">  1       21 0.15888205E+00 0.40561131E+03</pdfrwt>
<totfact> 0.52255378E+04</totfact>
</mgrwt>
</event>
<event>
 7    0  0.4750554E-002  0.4515749E+03  0.7546771E-02  0.1027253E+00
         21   -1    0    0  502  501  0.00000000000E+00  0.00000000000E+00  0.51435424811E+03  0.51435424811E+03  0.00000000000E+00 0. -1.
         21   -1    0    0  501  502 -0.00000000000E+00 -0.00000000000E+00 -0.99114496383E+02  0.99114496383E+02  0.00000000000E+00 0. -1.
      99926    2    1    2    0    0  0.00000000000E+00  0.00000000000E+00  0.41523975173E+03  0.61346874449E+03  0.45157485432E+03 0.  0.
      99925    2    3    3    0    0  0.60610967138E+02  0.44369001354E+02  0.37121630069E+03  0.46106182221E+03  0.26293376425E+03 0.  0.
         25    1    4    4    0    0  0.32462463667E+02  0.58241097711E+02  0.16170764633E+03  0.21504117743E+03  0.12509000000E+03 0.  0.
         25    1    3    3    0    0 -0.60610967138E+02 -0.44369001354E+02  0.44023451038E+02  0.15240692228E+03  0.12509000000E+03 0.  0.
         25    1    4    4    0    0  0.28148503471E+02 -0.13872096358E+02  0.20950865436E+03  0.24602064478E+03  0.12509000000E+03 0.  0.
<mgrwt>
<rscale>  2 0.45157485E+03</rscale>
<asrwt>0</asrwt>
<pdfrwt beam="1">  1       21 0.75640329E-01 0.45157485E+03</pdfrwt>
<pdfrwt beam="2">  1       21 0.14575662E-01 0.45157485E+03</pdfrwt>
<totfact> 0.59448735E+04</totfact>
</mgrwt>
</event>
<event>
 7    0  0.4750554E-002  0.4517319E+03  0.7546771E-02  0.1027207E+00
         21   -1    0    0  502  501  0.00000000000E+00  0.00000000000E+00  0.34428590196E+03  0.34428590196E+03  0.00000000000E+00 0. -1.
         21   -1    0    0  501  502 -0.00000000000E+00 -0.00000000000E+00 -0.14817749708E+03  0.14817749708E+03  0.00000000000E+00 0. -1.
      99926    2    1    2    0    0  0.00000000000E+00  0.00000000000E+00  0.19610840488E+03  0.49246339904E+03  0.45173188168E+03 0.  0.
      99925    2    3    3    0    0  0.10299094030E+02 -0.16089773272E+02  0.24192113228E+03  0.35788529445E+03  0.26304200730E+03 0.  0.
         25    1    4    4    0    0  0.12743837600E+02  0.12290842594E+02  0.73481611361E+02  0.14615240510E+03  0.12509000000E+03 0.  0.
         25    1    3    3    0    0 -0.10299094030E+02  0.16089773272E+02 -0.45812727397E+02  0.13457810458E+03  0.12509000000E+03 0.  0.
         25    1    4    4    0    0 -0.24447435704E+01 -0.28380615866E+02  0.16843952091E+03  0.21173288935E+03  0.12509000000E+03 0.  0.
<mgrwt>
<rscale>  2 0.45173188E+03</rscale>
<asrwt>0</asrwt>
<pdfrwt beam="1">  1       21 0.50630280E-01 0.45173188E+03</pdfrwt>
<pdfrwt beam="2">  1       21 0.21790808E-01 0.45173188E+03</pdfrwt>
<totfact> 0.67538740E+04</totfact>
</mgrwt>
</event>
<event>
 7    0  0.4750554E-002  0.4524455E+03  0.7546771E-02  0.1026995E+00
         21   -1    0    0  502  501  0.00000000000E+00  0.00000000000E+00  0.20943512133E+03  0.20943512133E+03  0.00000000000E+00 0.  1.
         21   -1    0    0  501  502 -0.00000000000E+00 -0.00000000000E+00 -0.24435606175E+03  0.24435606175E+03  0.00000000000E+00 0.  1.
      99926    2    1    2    0    0 -0.14210854715E-13  0.00000000000E+00 -0.34920940416E+02  0.45379118307E+03  0.45244553900E+03 0.  0.
      99925    2    3    3    0    0 -0.10357310254E+03  0.38352188038E+02 -0.14576724730E+02  0.28568504663E+03  0.26306878771E+03 0.  0.
         25    1    4    4    0    0 -0.79223199750E+02  0.19488730412E+02  0.23879858128E+02  0.15124113764E+03  0.12509000000E+03 0.  0.
         25    1    3    3    0    0  0.10357310254E+03 -0.38352188038E+02 -0.20344215686E+02  0.16810613644E+03  0.12509000000E+03 0.  0.
         25    1    4    4    0    0 -0.24349902790E+02  0.18863457626E+02 -0.38456582858E+02  0.13444390899E+03  0.12509000000E+03 0.  0.
<mgrwt>
<rscale>  2 0.45244554E+03</rscale>
<asrwt>0</asrwt>
<pdfrwt beam="1">  1       21 0.30799283E-01 0.45244554E+03</pdfrwt>
<pdfrwt beam="2">  1       21 0.35934715E-01 0.45244554E+03</pdfrwt>
<totfact> 0.70051364E+04</totfact>
</mgrwt>
</event>
<event>
 7    0  0.4750554E-002  0.4553508E+03  0.7546771E-02  0.1026138E+00
         21   -1    0    0  502  501  0.00000000000E+00  0.00000000000E+00  0.23294133555E+03  0.23294133555E+03  0.00000000000E+00 0. -1.
         21   -1    0    0  501  502 -0.00000000000E+00 -0.00000000000E+00 -0.22252850948E+03  0.22252850948E+03  0.00000000000E+00 0. -1.
      99926    2    1    2    0    0  0.00000000000E+00 -0.17763568394E-14  0.10412826063E+02  0.45546984503E+03  0.45535080189E+03 0.  0.
      99925    2    3    3    0    0  0.97609796347E+02 -0.85731871268E+01 -0.50658836918E+02  0.28523933073E+03  0.26304749791E+03 0.  0.
         25    1    4    4    0    0  0.87791041445E+02 -0.17779341701E+02 -0.15650511577E+02  0.15464740076E+03  0.12509000000E+03 0.  0.
         25    1    4    4    0    0  0.98187549022E+01  0.92061545740E+01 -0.35008325341E+02  0.13059192997E+03  0.12509000000E+03 0.  0.
         25    1    3    3    0    0 -0.97609796347E+02  0.85731871268E+01  0.61071662981E+02  0.17023051430E+03  0.12509000000E+03 0.  0.
<mgrwt>
<rscale>  2 0.45535080E+03</rscale>
<asrwt>0</asrwt>
<pdfrwt beam="1">  1       21 0.34256079E-01 0.45535080E+03</pdfrwt>
<pdfrwt beam="2">  1       21 0.32724781E-01 0.45535080E+03</pdfrwt>
<totfact> 0.68319961E+04</totfact>
</mgrwt>
</event>
<event>
 7    0  0.4750554E-002  0.4517857E+03  0.7546771E-02  0.1027191E+00
         21   -1    0    0  502  501  0.00000000000E+00  0.00000000000E+00  0.94949559047E+02  0.94949559047E+02  0.00000000000E+00 0. -1.
         21   -1    0    0  501  502 -0.00000000000E+00 -0.00000000000E+00 -0.53741770330E+03  0.53741770330E+03  0.00000000000E+00 0. -1.
      99926    2    1    2    0    0  0.14210854715E-13  0.00000000000E+00 -0.44246814425E+03  0.63236726235E+03  0.45178567464E+03 0.  0.
      99925    2    3    3    0    0 -0.99746549038E+02  0.27168720167E+02 -0.22618751246E+03  0.36197433865E+03  0.26301543233E+03 0.  0.
         25    1    3    3    0    0  0.99746549038E+02 -0.27168720167E+02 -0.21628063179E+03  0.27039292370E+03  0.12509000000E+03 0.  0.
         25    1    4    4    0    0 -0.40876496566E+02 -0.22116245680E+02 -0.84363188308E+02  0.15787549505E+03  0.12509000000E+03 0.  0.
         25    1    4    4    0    0 -0.58870052472E+02  0.49284965847E+02 -0.14182432416E+03  0.20409884360E+03  0.12509000000E+03 0.  0.
<mgrwt>
<rscale>  2 0.45178567E+03</rscale>
<asrwt>0</asrwt>
<pdfrwt beam="1">  1       21 0.13963171E-01 0.45178567E+03</pdfrwt>
<pdfrwt beam="2">  1       21 0.79032014E-01 0.45178567E+03</pdfrwt>
<totfact> 0.58191335E+04</totfact>
</mgrwt>
</event>
<event>
 7    0  0.4750554E-002  0.4585807E+03  0.7546771E-02  0.1025194E+00
         21   -1    0    0  502  501  0.00000000000E+00  0.00000000000E+00  0.86127049762E+02  0.86127049762E+02  0.00000000000E+00 0.  1.
         21   -1    0    0  501  502 -0.00000000000E+00 -0.00000000000E+00 -0.61042446737E+03  0.61042446737E+03  0.00000000000E+00 0.  1.
      99926    2    1    2    0    0  0.17763568394E-14 -0.14210854715E-13 -0.52429741761E+03  0.69655151714E+03  0.45858067328E+03 0.  0.
      99925    2    3    3    0    0 -0.86064270683E+01 -0.10660603351E+03 -0.25763671755E+03  0.38319173346E+03  0.26271716616E+03 0.  0.
         25    1    4    4    0    0 -0.43639909432E+02 -0.53599375653E+02 -0.14062426772E+03  0.20049944523E+03  0.12509000000E+03 0.  0.
         25    1    4    4    0    0  0.35033482364E+02 -0.53006657859E+02 -0.11701244984E+03  0.18269228823E+03  0.12509000000E+03 0.  0.
         25    1    3    3    0    0  0.86064270683E+01  0.10660603351E+03 -0.26666070006E+03  0.31335978367E+03  0.12509000000E+03 0.  0.
<mgrwt>
<rscale>  2 0.45858067E+03</rscale>
<asrwt>0</asrwt>
<pdfrwt beam="1">  1       21 0.12665743E-01 0.45858067E+03</pdfrwt>
<pdfrwt beam="2">  1       21 0.89768302E-01 0.45858067E+03</pdfrwt>
<totfact> 0.51620376E+04</totfact>
</mgrwt>
</event>
<event>
 7    0  0.4750554E-002  0.4480364E+03  0.7546771E-02  0.1028309E+00
         21   -1    0    0  502  501  0.00000000000E+00  0.00000000000E+00  0.61316282404E+02  0.61316282404E+02  0.00000000000E+00 0.  1.
         21   -1    0    0  501  502 -0.00000000000E+00 -0.00000000000E+00 -0.81844727877E+03  0.81844727877E+03  0.00000000000E+00 0.  1.
      99926    2    1    2    0    0  0.00000000000E+00  0.71054273576E-14 -0.75713099637E+03  0.87976356118E+03  0.44803635780E+03 0.  0.
      99925    2    3    3    0    0  0.86943000136E+02 -0.49306512711E+02 -0.55182984801E+03  0.61940556325E+03  0.26297690613E+03 0.  0.
         25    1    4    4    0    0  0.77151997141E+02 -0.29334243584E+01 -0.26927524594E+03  0.30678608478E+03  0.12509000000E+03 0.  0.
         25    1    3    3    0    0 -0.86943000136E+02  0.49306512711E+02 -0.20530114835E+03  0.26035799793E+03  0.12509000000E+03 0.  0.
         25    1    4    4    0    0  0.97910029950E+01 -0.46373088352E+02 -0.28255460207E+03  0.31261947847E+03  0.12509000000E+03 0.  0.
<mgrwt>
<rscale>  2 0.44803636E+03</rscale>
<asrwt>0</asrwt>
<pdfrwt beam="1">  1       21 0.90171004E-02 0.44803636E+03</pdfrwt>
<pdfrwt beam="2">  1       21 0.12035989E+00 0.44803636E+03</pdfrwt>
<totfact> 0.46610795E+04</totfact>
</mgrwt>
</event>
<event>
 7    0  0.4750554E-002  0.4683843E+03  0.7546771E-02  0.1022377E+00
         21   -1    0    0  502  501  0.00000000000E+00  0.00000000000E+00  0.99727635538E+02  0.99727635538E+02  0.00000000000E+00 0.  1.
         21   -1    0    0  501  502 -0.00000000000E+00 -0.00000000000E+00 -0.54995757217E+03  0.54995757217E+03  0.00000000000E+00 0.  1.
      99926    2    1    2    0    0  0.14210854715E-13  0.71054273576E-14 -0.45022993663E+03  0.64968520771E+03  0.46838432219E+03 0.  0.
      99925    2    3    3    0    0  0.88253227379E+02  0.60385942371E+02 -0.18911779276E+03  0.34103953067E+03  0.26288272625E+03 0.  0.
         25    1    4    4    0    0  0.84712951354E+02  0.44799913813E+02 -0.10986460019E+03  0.19209647285E+03  0.12509000000E+03 0.  0.
         25    1    4    4    0    0  0.35402760247E+01  0.15586028559E+02 -0.79253192571E+02  0.14894305782E+03  0.12509000000E+03 0.  0.
         25    1    3    3    0    0 -0.88253227379E+02 -0.60385942371E+02 -0.26111214387E+03  0.30864567704E+03  0.12509000000E+03 0.  0.
<mgrwt>
<rscale>  2 0.46838432E+03</rscale>
<asrwt>0</asrwt>
<pdfrwt beam="1">  1       21 0.14665829E-01 0.46838432E+03</pdfrwt>
<pdfrwt beam="2">  1       21 0.80876114E-01 0.46838432E+03</pdfrwt>
<totfact> 0.50204194E+04</totfact>
</mgrwt>
</event>
<event>
 7    0  0.4750554E-002  0.4503060E+03  0.7546771E-02  0.1027631E+00
         21   -1    0    0  502  501  0.00000000000E+00  0.00000000000E+00  0.69647815704E+03  0.69647815704E+03  0.00000000000E+00 0.  1.
         21   -1    0    0  501  502 -0.00000000000E+00 -0.00000000000E+00 -0.72786027085E+02  0.72786027085E+02  0.00000000000E+00 0.  1.
      99926    2    1    2    0    0  0.00000000000E+00  0.00000000000E+00  0.62369212995E+03  0.76926418412E+03  0.45030602040E+03 0.  0.
      99925    2    3    3    0    0 -0.67432209140E+02 -0.20349294977E+01  0.53971206028E+03  0.60418419148E+03  0.26305547981E+03 0.  0.
         25    1    4    4    0    0  0.56376237885E+01  0.12925830884E+02  0.25587722324E+03  0.28516577876E+03  0.12509000000E+03 0.  0.
         25    1    4    4    0    0 -0.73069832929E+02 -0.14960760381E+02  0.28383483704E+03  0.31901841272E+03  0.12509000000E+03 0.  0.
         25    1    3    3    0    0  0.67432209140E+02  0.20349294977E+01  0.83980069674E+02  0.16507999264E+03  0.12509000000E+03 0.  0.
<mgrwt>
<rscale>  2 0.45030602E+03</rscale>
<asrwt>0</asrwt>
<pdfrwt beam="1">  1       21 0.10242325E+00 0.45030602E+03</pdfrwt>
<pdfrwt beam="2">  1       21 0.10703828E-01 0.45030602E+03</pdfrwt>
<totfact> 0.51146128E+04</totfact>
</mgrwt>
</event>
<event>
 7    0  0.4750554E-002  0.4541656E+03  0.7546771E-02  0.1026487E+00
         21   -1    0    0  502  501  0.00000000000E+00  0.00000000000E+00  0.61854933750E+03  0.61854933750E+03  0.00000000000E+00 0. -1.
         21   -1    0    0  501  502 -0.00000000000E+00 -0.00000000000E+00 -0.83367005758E+02  0.83367005758E+02  0.00000000000E+00 0. -1.
      99926    2    1    2    0    0  0.00000000000E+00  0.71054273576E-14  0.53518233174E+03  0.70191634326E+03  0.45416563578E+03 0.  0.
      99925    2    3    3    0    0  0.33264838808E+02  0.39992702098E+02  0.49103317388E+03  0.55942907378E+03  0.26294741874E+03 0.  0.
         25    1    4    4    0    0  0.26163547521E+02  0.55575529821E+02  0.29493187218E+03  0.32619854086E+03  0.12509000000E+03 0.  0.
         25    1    3    3    0    0 -0.33264838808E+02 -0.39992702098E+02  0.44149157861E+02  0.14248726947E+03  0.12509000000E+03 0.  0.
         25    1    4    4    0    0  0.71012912867E+01 -0.15582827723E+02  0.19610130170E+03  0.23323053292E+03  0.12509000000E+03 0.  0.
<mgrwt>
<rscale>  2 0.45416564E+03</rscale>
<asrwt>0</asrwt>
<pdfrwt beam="1">  1       21 0.90963136E-01 0.45416564E+03</pdfrwt>
<pdfrwt beam="2">  1       21 0.12259854E-01 0.45416564E+03</pdfrwt>
<totfact> 0.53147133E+04</totfact>
</mgrwt>
</event>
<event>
 7    0  0.4750554E-002  0.4573751E+03  0.7546771E-02  0.1025545E+00
         21   -1    0    0  502  501  0.00000000000E+00  0.00000000000E+00  0.88441773809E+02  0.88441773809E+02  0.00000000000E+00 0.  1.
         21   -1    0    0  501  502 -0.00000000000E+00 -0.00000000000E+00 -0.59132693834E+03  0.59132693834E+03  0.00000000000E+00 0.  1.
      99926    2    1    2    0    0 -0.88817841970E-15 -0.71054273576E-14 -0.50288516453E+03  0.67976871215E+03  0.45737513412E+03 0.  0.
      99925    2    3    3    0    0 -0.79172701719E+01 -0.56486359948E+02 -0.46484949572E+03  0.53712365535E+03  0.26298930671E+03 0.  0.
         25    1    4    4    0    0 -0.19942832275E+02  0.72910419680E+01 -0.19402399155E+03  0.23182686050E+03  0.12509000000E+03 0.  0.
         25    1    4    4    0    0  0.12025562103E+02 -0.63777401916E+02 -0.27082550417E+03  0.30529679485E+03  0.12509000000E+03 0.  0.
         25    1    3    3    0    0  0.79172701719E+01  0.56486359948E+02 -0.38035668816E+02  0.14264505680E+03  0.12509000000E+03 0.  0.
<mgrwt>
<rscale>  2 0.45737513E+03</rscale>
<asrwt>0</asrwt>
<pdfrwt beam="1">  1       21 0.13006144E-01 0.45737513E+03</pdfrwt>
<pdfrwt beam="2">  1       21 0.86959841E-01 0.45737513E+03</pdfrwt>
<totfact> 0.53016648E+04</totfact>
</mgrwt>
</event>
<event>
 7    0  0.4750554E-002  0.4096257E+03  0.7546771E-02  0.1040497E+00
         21   -1    0    0  502  501  0.00000000000E+00  0.00000000000E+00  0.13346069431E+03  0.13346069431E+03  0.00000000000E+00 0. -1.
         21   -1    0    0  501  502 -0.00000000000E+00 -0.00000000000E+00 -0.31431209333E+03  0.31431209333E+03  0.00000000000E+00 0. -1.
      99926    2    1    2    0    0 -0.71054273576E-14  0.00000000000E+00 -0.18085139902E+03  0.44777278764E+03  0.40962573262E+03 0.  0.
      99925    2    3    3    0    0 -0.52934029396E+02  0.11944721824E+02 -0.87183935167E+02  0.28234670224E+03  0.26300937980E+03 0.  0.
         25    1    4    4    0    0  0.11885990118E+02 -0.27279140037E+01 -0.54413688906E+02  0.13695647453E+03  0.12509000000E+03 0.  0.
         25    1    3    3    0    0  0.52934029396E+02 -0.11944721824E+02 -0.93667463850E+02  0.16542608540E+03  0.12509000000E+03 0.  0.
         25    1    4    4    0    0 -0.64820019514E+02  0.14672635827E+02 -0.32770246261E+02  0.14539022770E+03  0.12509000000E+03 0.  0.
<mgrwt>
<rscale>  2 0.40962573E+03</rscale>
<asrwt>0</asrwt>
<pdfrwt beam="1">  1       21 0.19626573E-01 0.40962573E+03</pdfrwt>
<pdfrwt beam="2">  1       21 0.46222366E-01 0.40962573E+03</pdfrwt>
<totfact> 0.10082768E+05</totfact>
</mgrwt>
</event>
<event>
 7    0  0.4750554E-002  0.4577998E+03  0.7546771E-02  0.1025421E+00
         21   -1    0    0  502  501  0.00000000000E+00  0.00000000000E+00  0.19926729251E+03  0.19926729251E+03  0.00000000000E+00 0.  1.
         21   -1    0    0  501  502 -0.00000000000E+00 -0.00000000000E+00 -0.26293915031E+03  0.26293915031E+03  0.00000000000E+00 0.  1.
      99926    2    1    2    0    0  0.00000000000E+00 -0.71054273576E-14 -0.63671857794E+02  0.46220644282E+03  0.45779983651E+03 0.  0.
      99925    2    3    3    0    0  0.24295294228E+02  0.50270493824E+02 -0.14231707622E+03  0.30425087201E+03  0.26305333882E+03 0.  0.
         25    1    3    3    0    0 -0.24295294228E+02 -0.50270493824E+02  0.78645218422E+02  0.15795557082E+03  0.12509000000E+03 0.  0.
         25    1    4    4    0    0 -0.27539854794E+02  0.16194489214E+02 -0.73960274740E+02  0.14878956759E+03  0.12509000000E+03 0.  0.
         25    1    4    4    0    0  0.51835149022E+02  0.34076004610E+02 -0.68356801477E+02  0.15546130442E+03  0.12509000000E+03 0.  0.
<mgrwt>
<rscale>  2 0.45779984E+03</rscale>
<asrwt>0</asrwt>
<pdfrwt beam="1">  1       21 0.29304014E-01 0.45779984E+03</pdfrwt>
<pdfrwt beam="2">  1       21 0.38667522E-01 0.45779984E+03</pdfrwt>
<totfact> 0.66522305E+04</totfact>
</mgrwt>
</event>
<event>
 7    0  0.4750554E-002  0.4521001E+03  0.7546771E-02  0.1027098E+00
         21   -1    0    0  502  501  0.00000000000E+00  0.00000000000E+00  0.59622799972E+03  0.59622799972E+03  0.00000000000E+00 0. -1.
         21   -1    0    0  501  502 -0.00000000000E+00 -0.00000000000E+00 -0.85703154499E+02  0.85703154499E+02  0.00000000000E+00 0. -1.
      99926    2    1    2    0    0 -0.17763568394E-14  0.14210854715E-13  0.51052484522E+03  0.68193115422E+03  0.45210007908E+03 0.  0.
      99925    2    3    3    0    0 -0.78481141835E+01  0.10424726455E+03  0.26787497250E+03  0.38960333500E+03  0.26287767628E+03 0.  0.
         25    1    3    3    0    0  0.78481141835E+01 -0.10424726455E+03  0.24264987272E+03  0.29232781922E+03  0.12509000000E+03 0.  0.
         25    1    4    4    0    0  0.90880765430E+01  0.67014499271E+02  0.89831569123E+02  0.16819855873E+03  0.12509000000E+03 0.  0.
         25    1    4    4    0    0 -0.16936190727E+02  0.37232765274E+02  0.17804340338E+03  0.22140477627E+03  0.12509000000E+03 0.  0.
<mgrwt>
<rscale>  2 0.45210008E+03</rscale>
<asrwt>0</asrwt>
<pdfrwt beam="1">  1       21 0.87680586E-01 0.45210008E+03</pdfrwt>
<pdfrwt beam="2">  1       21 0.12603405E-01 0.45210008E+03</pdfrwt>
<totfact> 0.55143694E+04</totfact>
</mgrwt>
</event>
<event>
 7    0  0.4750554E-002  0.4561525E+03  0.7546771E-02  0.1025903E+00
         21   -1    0    0  502  501  0.00000000000E+00  0.00000000000E+00  0.42975928525E+03  0.42975928525E+03  0.00000000000E+00 0.  1.
         21   -1    0    0  501  502 -0.00000000000E+00 -0.00000000000E+00 -0.12104165914E+03  0.12104165914E+03  0.00000000000E+00 0.  1.
      99926    2    1    2    0    0  0.14210854715E-13 -0.17763568394E-14  0.30871762611E+03  0.55080094439E+03  0.45615250483E+03 0.  0.
      99925    2    3    3    0    0  0.10870853615E+03 -0.93060491548E+01  0.23512697798E+03  0.36923211453E+03  0.26295153592E+03 0.  0.
         25    1    4    4    0    0  0.86788919258E+02  0.10369324316E+02  0.98323235390E+02  0.18153458654E+03  0.12509000000E+03 0.  0.
         25    1    4    4    0    0  0.21919616894E+02 -0.19675373471E+02  0.13680374259E+03  0.18769752799E+03  0.12509000000E+03 0.  0.
         25    1    3    3    0    0 -0.10870853615E+03  0.93060491548E+01  0.73590648128E+02  0.18156882986E+03  0.12509000000E+03 0.  0.
<mgrwt>
<rscale>  2 0.45615250E+03</rscale>
<asrwt>0</asrwt>
<pdfrwt beam="1">  1       21 0.63199894E-01 0.45615250E+03</pdfrwt>
<pdfrwt beam="2">  1       21 0.17800244E-01 0.45615250E+03</pdfrwt>
<totfact> 0.61253175E+04</totfact>
</mgrwt>
</event>
<event>
 7    0  0.4750554E-002  0.4530177E+03  0.7546771E-02  0.1026826E+00
         21   -1    0    0  502  501  0.00000000000E+00  0.00000000000E+00  0.34047800837E+03  0.34047800837E+03  0.00000000000E+00 0. -1.
         21   -1    0    0  501  502 -0.00000000000E+00 -0.00000000000E+00 -0.15068888054E+03  0.15068888054E+03  0.00000000000E+00 0. -1.
      99926    2    1    2    0    0  0.00000000000E+00  0.00000000000E+00  0.18978912783E+03  0.49116688892E+03  0.45301765940E+03 0.  0.
      99925    2    3    3    0    0  0.84145131368E+02  0.30426101401E+02  0.48079942455E+02  0.28203737856E+03  0.26311072054E+03 0.  0.
         25    1    3    3    0    0 -0.84145131368E+02 -0.30426101401E+02  0.14170918538E+03  0.20912951035E+03  0.12509000000E+03 0.  0.
         25    1    4    4    0    0  0.49997139772E+02 -0.24141187105E+02  0.16434153780E+02  0.13784085175E+03  0.12509000000E+03 0.  0.
         25    1    4    4    0    0  0.34147991597E+02  0.54567288506E+02  0.31645788675E+02  0.14419652682E+03  0.12509000000E+03 0.  0.
<mgrwt>
<rscale>  2 0.45301766E+03</rscale>
<asrwt>0</asrwt>
<pdfrwt beam="1">  1       21 0.50070295E-01 0.45301766E+03</pdfrwt>
<pdfrwt beam="2">  1       21 0.22160130E-01 0.45301766E+03</pdfrwt>
<totfact> 0.66943080E+04</totfact>
</mgrwt>
</event>
<event>
 7    0  0.4750554E-002  0.4558265E+03  0.7546771E-02  0.1025999E+00
         21   -1    0    0  502  501  0.00000000000E+00  0.00000000000E+00  0.88524496092E+02  0.88524496092E+02  0.00000000000E+00 0. -1.
         21   -1    0    0  501  502 -0.00000000000E+00 -0.00000000000E+00 -0.58678062176E+03  0.58678062176E+03  0.00000000000E+00 0. -1.
      99926    2    1    2    0    0 -0.71054273576E-14  0.00000000000E+00 -0.49825612566E+03  0.67530511785E+03  0.45582654094E+03 0.  0.
      99925    2    3    3    0    0  0.27027338713E+02  0.10230195007E+03 -0.24994502062E+03  0.37781212799E+03  0.26281804485E+03 0.  0.
         25    1    3    3    0    0 -0.27027338713E+02 -0.10230195007E+03 -0.24831110505E+03  0.29749298986E+03  0.12509000000E+03 0.  0.
         25    1    4    4    0    0 -0.19968484456E+02  0.67985060777E+02 -0.10752759880E+03  0.17952827483E+03  0.12509000000E+03 0.  0.
         25    1    4    4    0    0  0.46995823169E+02  0.34316889289E+02 -0.14241742182E+03  0.19828385316E+03  0.12509000000E+03 0.  0.
<mgrwt>
<rscale>  2 0.45582654E+03</rscale>
<asrwt>0</asrwt>
<pdfrwt beam="1">  1       21 0.13018308E-01 0.45582654E+03</pdfrwt>
<pdfrwt beam="2">  1       21 0.86291270E-01 0.45582654E+03</pdfrwt>
<totfact> 0.53912697E+04</totfact>
</mgrwt>
</event>
<event>
 7    0  0.4750554E-002  0.4554812E+03  0.7546771E-02  0.1026100E+00
         21   -1    0    0  502  501  0.00000000000E+00  0.00000000000E+00  0.46239663058E+03  0.46239663058E+03  0.00000000000E+00 0.  1.
         21   -1    0    0  501  502 -0.00000000000E+00 -0.00000000000E+00 -0.11216727432E+03  0.11216727432E+03  0.00000000000E+00 0.  1.
      99926    2    1    2    0    0  0.00000000000E+00 -0.71054273576E-14  0.35022935627E+03  0.57456390490E+03  0.45548115090E+03 0.  0.
      99925    2    3    3    0    0 -0.10876362538E+03 -0.32607189569E+02  0.22562085774E+03  0.36464120241E+03  0.26299368819E+03 0.  0.
         25    1    3    3    0    0  0.10876362538E+03  0.32607189569E+02  0.12460849852E+03  0.20992270249E+03  0.12509000000E+03 0.  0.
         25    1    4    4    0    0 -0.86590719591E+02 -0.44355288489E+02  0.11530928950E+03  0.19598235808E+03  0.12509000000E+03 0.  0.
         25    1    4    4    0    0 -0.22172905792E+02  0.11748098920E+02  0.11031156825E+03  0.16865884432E+03  0.12509000000E+03 0.  0.
<mgrwt>
<rscale>  2 0.45548115E+03</rscale>
<asrwt>0</asrwt>
<pdfrwt beam="1">  1       21 0.67999504E-01 0.45548115E+03</pdfrwt>
<pdfrwt beam="2">  1       21 0.16495188E-01 0.45548115E+03</pdfrwt>
<totfact> 0.60043140E+04</totfact>
</mgrwt>
</event>
<event>
 7    0  0.4750554E-002  0.4571523E+03  0.7546771E-02  0.1025610E+00
         21   -1    0    0  502  501  0.00000000000E+00  0.00000000000E+00  0.43108757671E+03  0.43108757671E+03  0.00000000000E+00 0. -1.
         21   -1    0    0  501  502 -0.00000000000E+00 -0.00000000000E+00 -0.12119822845E+03  0.12119822845E+03  0.00000000000E+00 0. -1.
      99926    2    1    2    0    0  0.00000000000E+00  0.00000000000E+00  0.30988934826E+03  0.55228580516E+03  0.45715227487E+03 0.  0.
      99925    2    3    3    0    0 -0.43476451380E+02  0.10532916946E+03  0.21533326914E+03  0.35844877061E+03  0.26293091981E+03 0.  0.
         25    1    4    4    0    0 -0.48772351840E+02  0.29567474885E+02  0.79647861687E+02  0.15888444809E+03  0.12509000000E+03 0.  0.
         25    1    3    3    0    0  0.43476451380E+02 -0.10532916946E+03  0.94556079120E+02  0.19383703455E+03  0.12509000000E+03 0.  0.
         25    1    4    4    0    0  0.52959004599E+01  0.75761694579E+02  0.13568540745E+03  0.19956432252E+03  0.12509000000E+03 0.  0.
<mgrwt>
<rscale>  2 0.45715227E+03</rscale>
<asrwt>0</asrwt>
<pdfrwt beam="1">  1       21 0.63395231E-01 0.45715227E+03</pdfrwt>
<pdfrwt beam="2">  1       21 0.17823269E-01 0.45715227E+03</pdfrwt>
<totfact> 0.60675927E+04</totfact>
</mgrwt>
</event>
<event>
 7    0  0.4750554E-002  0.4522557E+03  0.7546771E-02  0.1027051E+00
         21   -1    0    0  502  501  0.00000000000E+00  0.00000000000E+00  0.40799146447E+02  0.40799146447E+02  0.00000000000E+00 0. -1.
         21   -1    0    0  501  502 -0.00000000000E+00 -0.00000000000E+00 -0.12533059719E+04  0.12533059719E+04  0.00000000000E+00 0. -1.
      99926    2    1    2    0    0 -0.35527136788E-14  0.00000000000E+00 -0.12125068255E+04  0.12941051184E+04  0.45225574133E+03 0.  0.
      99925    2    3    3    0    0 -0.16669026690E+02 -0.10755597818E+03 -0.71014733706E+03  0.76508838083E+03  0.26306813805E+03 0.  0.
         25    1    3    3    0    0  0.16669026690E+02  0.10755597818E+03 -0.50235948842E+03  0.52901673754E+03  0.12509000000E+03 0.  0.
         25    1    4    4    0    0  0.12983268778E+02 -0.46806379663E+02 -0.25363528847E+03  0.28694558735E+03  0.12509000000E+03 0.  0.
         25    1    4    4    0    0 -0.29652295468E+02 -0.60749598516E+02 -0.45651204859E+03  0.47814279348E+03  0.12509000000E+03 0.  0.
<mgrwt>
<rscale>  2 0.45225574E+03</rscale>
<asrwt>0</asrwt>
<pdfrwt beam="1">  1       21 0.59998737E-02 0.45225574E+03</pdfrwt>
<pdfrwt beam="2">  1       21 0.18430972E+00 0.45225574E+03</pdfrwt>
<totfact> 0.29919892E+04</totfact>
</mgrwt>
</event>
<event>
 7    0  0.4750554E-002  0.4548981E+03  0.7546771E-02  0.1026271E+00
         21   -1    0    0  502  501  0.00000000000E+00  0.00000000000E+00  0.50442237928E+03  0.50442237928E+03  0.00000000000E+00 0. -1.
         21   -1    0    0  501  502 -0.00000000000E+00 -0.00000000000E+00 -0.10255903230E+03  0.10255903230E+03  0.00000000000E+00 0. -1.
      99926    2    1    2    0    0  0.00000000000E+00  0.00000000000E+00  0.40186334698E+03  0.60698141159E+03  0.45489810328E+03 0.  0.
      99925    2    3    3    0    0 -0.38565855942E+02  0.25000314615E+02  0.11522280311E+03  0.29087596958E+03  0.26309730966E+03 0.  0.
         25    1    4    4    0    0 -0.18764084074E+02  0.37836646552E+02  0.93395376608E+02  0.16172169658E+03  0.12509000000E+03 0.  0.
         25    1    4    4    0    0 -0.19801771868E+02 -0.12836331937E+02  0.21827426501E+02  0.12915427300E+03  0.12509000000E+03 0.  0.
         25    1    3    3    0    0  0.38565855942E+02 -0.25000314615E+02  0.28664054387E+03  0.31610544200E+03  0.12509000000E+03 0.  0.
<mgrwt>
<rscale>  2 0.45489810E+03</rscale>
<asrwt>0</asrwt>
<pdfrwt beam="1">  1       21 0.74179761E-01 0.45489810E+03</pdfrwt>
<pdfrwt beam="2">  1       21 0.15082211E-01 0.45489810E+03</pdfrwt>
<totfact> 0.58297502E+04</totfact>
</mgrwt>
</event>
<event>
 7    0  0.4750554E-002  0.4597612E+03  0.7546771E-02  0.1024850E+00
         21   -1    0    0  502  501  0.00000000000E+00  0.00000000000E+00  0.49532335449E+03  0.49532335449E+03  0.00000000000E+00 0.  1.
         21   -1    0    0  501  502 -0.00000000000E+00 -0.00000000000E+00 -0.10668807656E+03  0.10668807656E+03  0.00000000000E+00 0.  1.
      99926    2    1    2    0    0  0.00000000000E+00  0.00000000000E+00  0.38863527793E+03  0.60201143106E+03  0.45976122485E+03 0.  0.
      99925    2    3    3    0    0 -0.93542643159E+02  0.19121668452E+02  0.15552724653E+03  0.32075936139E+03  0.26378396314E+03 0.  0.
         25    1    4    4    0    0 -0.69323348663E+02 -0.11031530717E+02  0.47764977744E+02  0.15118340696E+03  0.12509000000E+03 0.  0.
         25    1    3    3    0    0  0.93542643159E+02 -0.19121668452E+02  0.23310803140E+03  0.28125206967E+03  0.12509000000E+03 0.  0.
         25    1    4    4    0    0 -0.24219294495E+02  0.30153199170E+02  0.10776226879E+03  0.16957595443E+03  0.12509000000E+03 0.  0.
<mgrwt>
<rscale>  2 0.45976122E+03</rscale>
<asrwt>0</asrwt>
<pdfrwt beam="1">  1       21 0.72841669E-01 0.45976122E+03</pdfrwt>
<pdfrwt beam="2">  1       21 0.15689423E-01 0.45976122E+03</pdfrwt>
<totfact> 0.56402717E+04</totfact>
</mgrwt>
</event>
<event>
 6    0  0.4750554E-002  0.4520030E+03  0.7546771E-02  0.1027126E+00
         21   -1    0    0  502  501  0.00000000000E+00  0.00000000000E+00  0.50626599059E+03  0.50626599059E+03  0.00000000000E+00 0.  1.
         21   -1    0    0  501  502 -0.00000000000E+00 -0.00000000000E+00 -0.10088899846E+03  0.10088899846E+03  0.00000000000E+00 0.  1.
      99926    2    1    2    0    0  0.00000000000E+00  0.00000000000E+00  0.40537699212E+03  0.60715498905E+03  0.45200295905E+03 0.  0.
         25    1    3    3    0    0  0.74395583159E+02  0.57672665247E+02  0.84455955046E+02  0.17787960972E+03  0.12509000000E+03 0.  0.
         25    1    3    3    0    0 -0.84795317502E+02 -0.26972802158E+02  0.14645499589E+03  0.21216585929E+03  0.12509000000E+03 0.  0.
         25    1    3    3    0    0  0.10399734343E+02 -0.30699863089E+02  0.17446604118E+03  0.21710952005E+03  0.12509000000E+03 0.  0.
<mgrwt>
<rscale>  2 0.45200296E+03</rscale>
<asrwt>0</asrwt>
<pdfrwt beam="1">  1       21 0.74450880E-01 0.45200296E+03</pdfrwt>
<pdfrwt beam="2">  1       21 0.14836618E-01 0.45200296E+03</pdfrwt>
<totfact> 0.59639483E+04</totfact>
</mgrwt>
</event>
<event>
 7    0  0.4750554E-002  0.4493272E+03  0.7546771E-02  0.1027923E+00
         21   -1    0    0  502  501  0.00000000000E+00  0.00000000000E+00  0.43568850815E+03  0.43568850815E+03  0.00000000000E+00 0. -1.
         21   -1    0    0  501  502 -0.00000000000E+00 -0.00000000000E+00 -0.11584819819E+03  0.11584819819E+03  0.00000000000E+00 0. -1.
      99926    2    1    2    0    0  0.00000000000E+00  0.00000000000E+00  0.31984030996E+03  0.55153670634E+03  0.44932717987E+03 0.  0.
      99925    2    3    3    0    0  0.81679416565E+02  0.40390117100E+02  0.27278436919E+03  0.38978177346E+03  0.26308863564E+03 0.  0.
         25    1    3    3    0    0 -0.81679416565E+02 -0.40390117100E+02  0.47055940771E+02  0.16175493288E+03  0.12509000000E+03 0.  0.
         25    1    4    4    0    0  0.58308969058E+02  0.51034851796E+02  0.17685789615E+03  0.23006676314E+03  0.12509000000E+03 0.  0.
         25    1    4    4    0    0  0.23370447507E+02 -0.10644734696E+02  0.95926473032E+02  0.15971501032E+03  0.12509000000E+03 0.  0.
<mgrwt>
<rscale>  2 0.44932718E+03</rscale>
<asrwt>0</asrwt>
<pdfrwt beam="1">  1       21 0.64071839E-01 0.44932718E+03</pdfrwt>
<pdfrwt beam="2">  1       21 0.17036500E-01 0.44932718E+03</pdfrwt>
<totfact> 0.64616649E+04</totfact>
</mgrwt>
</event>
<event>
 7    0  0.4750554E-002  0.4121497E+03  0.7546771E-02  0.1039652E+00
         21   -1    0    0  502  501  0.00000000000E+00  0.00000000000E+00  0.11209294607E+03  0.11209294607E+03  0.00000000000E+00 0.  1.
         21   -1    0    0  501  502 -0.00000000000E+00 -0.00000000000E+00 -0.37885376645E+03  0.37885376645E+03  0.00000000000E+00 0.  1.
      99926    2    1    2    0    0  0.71054273576E-14  0.22204460493E-15 -0.26676082038E+03  0.49094671252E+03  0.41214965636E+03 0.  0.
      99925    2    3    3    0    0 -0.54173426746E+02 -0.19945396817E+01 -0.21948108758E+03  0.34664972853E+03  0.26278384298E+03 0.  0.
         25    1    4    4    0    0 -0.56671710709E+02  0.32910065242E+01 -0.15016919508E+03  0.20352102783E+03  0.12509000000E+03 0.  0.
         25    1    3    3    0    0  0.54173426746E+02  0.19945396817E+01 -0.47279732798E+02  0.14429698399E+03  0.12509000000E+03 0.  0.
         25    1    4    4    0    0  0.24982839634E+01 -0.52855462058E+01 -0.69311892506E+02  0.14312870070E+03  0.12509000000E+03 0.  0.
<mgrwt>
<rscale>  2 0.41214966E+03</rscale>
<asrwt>0</asrwt>
<pdfrwt beam="1">  1       21 0.16484257E-01 0.41214966E+03</pdfrwt>
<pdfrwt beam="2">  1       21 0.55713789E-01 0.41214966E+03</pdfrwt>
<totfact> 0.94028903E+04</totfact>
</mgrwt>
</event>
<event>
 7    0  0.4750554E-002  0.4401786E+03  0.7546771E-02  0.1030692E+00
         21   -1    0    0  502  501  0.00000000000E+00  0.00000000000E+00  0.52727685010E+02  0.52727685010E+02  0.00000000000E+00 0. -1.
         21   -1    0    0  501  502 -0.00000000000E+00 -0.00000000000E+00 -0.91866916371E+03  0.91866916371E+03  0.00000000000E+00 0. -1.
      99926    2    1    2    0    0  0.00000000000E+00  0.35527136788E-14 -0.86594147870E+03  0.97139684872E+03  0.44017859235E+03 0.  0.
      99925    2    3    3    0    0 -0.77447401747E+02  0.25087920600E+02 -0.43020481555E+03  0.51080869048E+03  0.26310042028E+03 0.  0.
         25    1    3    3    0    0  0.77447401747E+02 -0.25087920600E+02 -0.43573666315E+03  0.46058815824E+03  0.12509000000E+03 0.  0.
         25    1    4    4    0    0 -0.20216276435E+02 -0.13167952351E+02 -0.25277935847E+03  0.28306713863E+03  0.12509000000E+03 0.  0.
         25    1    4    4    0    0 -0.57231125311E+02  0.38255872951E+02 -0.17742545708E+03  0.22774155185E+03  0.12509000000E+03 0.  0.
<mgrwt>
<rscale>  2 0.44017859E+03</rscale>
<asrwt>0</asrwt>
<pdfrwt beam="1">  1       21 0.77540712E-02 0.44017859E+03</pdfrwt>
<pdfrwt beam="2">  1       21 0.13509841E+00 0.44017859E+03</pdfrwt>
<totfact> 0.45313268E+04</totfact>
</mgrwt>
</event>
<event>
 7    0  0.4750554E-002  0.4248350E+03  0.7546771E-02  0.1035504E+00
         21   -1    0    0  502  501  0.00000000000E+00  0.00000000000E+00  0.67798890352E+03  0.67798890352E+03  0.00000000000E+00 0. -1.
         21   -1    0    0  501  502 -0.00000000000E+00 -0.00000000000E+00 -0.66551535151E+02  0.66551535151E+02  0.00000000000E+00 0. -1.
      99926    2    1    2    0    0  0.00000000000E+00 -0.86736173799E-17  0.61143736837E+03  0.74454043867E+03  0.42483503784E+03 0.  0.
      99925    2    3    3    0    0 -0.44013533932E+02  0.85210307759E-02  0.51706777110E+03  0.58178196660E+03  0.26300947798E+03 0.  0.
         25    1    4    4    0    0 -0.30056961402E+02 -0.12432540553E+01  0.34786844491E+03  0.37089746518E+03  0.12509000000E+03 0.  0.
         25    1    4    4    0    0 -0.13956572530E+02  0.12517750861E+01  0.16919932619E+03  0.21088450143E+03  0.12509000000E+03 0.  0.
         25    1    3    3    0    0  0.44013533932E+02 -0.85210307759E-02  0.94369597265E+02  0.16275847207E+03  0.12509000000E+03 0.  0.
<mgrwt>
<rscale>  2 0.42483504E+03</rscale>
<asrwt>0</asrwt>
<pdfrwt beam="1">  1       21 0.99704247E-01 0.42483504E+03</pdfrwt>
<pdfrwt beam="2">  1       21 0.97869909E-02 0.42483504E+03</pdfrwt>
<totfact> 0.64547359E+04</totfact>
</mgrwt>
</event>
<event>
 7    0  0.4750554E-002  0.4595556E+03  0.7546771E-02  0.1024910E+00
         21   -1    0    0  502  501  0.00000000000E+00  0.00000000000E+00  0.11306757263E+03  0.11306757263E+03  0.00000000000E+00 0. -1.
         21   -1    0    0  501  502 -0.00000000000E+00 -0.00000000000E+00 -0.46695833200E+03  0.46695833200E+03  0.00000000000E+00 0. -1.
      99926    2    1    2    0    0  0.00000000000E+00  0.71054273576E-14 -0.35389075937E+03  0.58002590464E+03  0.45955563372E+03 0.  0.
      99925    2    3    3    0    0 -0.93149263274E+02  0.38033287588E+02 -0.29816394393E+03  0.41009561813E+03  0.26297026892E+03 0.  0.
         25    1    4    4    0    0 -0.69219738407E+02 -0.93185993602E+01 -0.17976241291E+03  0.22987005388E+03  0.12509000000E+03 0.  0.
         25    1    4    4    0    0 -0.23929524867E+02  0.47351886948E+02 -0.11840153103E+03  0.18022556425E+03  0.12509000000E+03 0.  0.
         25    1    3    3    0    0  0.93149263274E+02 -0.38033287588E+02 -0.55726815436E+02  0.16993028651E+03  0.12509000000E+03 0.  0.
<mgrwt>
<rscale>  2 0.45955563E+03</rscale>
<asrwt>0</asrwt>
<pdfrwt beam="1">  1       21 0.16627584E-01 0.45955563E+03</pdfrwt>
<pdfrwt beam="2">  1       21 0.68670343E-01 0.45955563E+03</pdfrwt>
<totfact> 0.57814333E+04</totfact>
</mgrwt>
</event>
<event>
 7    0  0.4750554E-002  0.4536158E+03  0.7546771E-02  0.1026649E+00
         21   -1    0    0  502  501  0.00000000000E+00  0.00000000000E+00  0.24087022350E+03  0.24087022350E+03  0.00000000000E+00 0.  1.
         21   -1    0    0  501  502 -0.00000000000E+00 -0.00000000000E+00 -0.21356652927E+03  0.21356652927E+03  0.00000000000E+00 0.  1.
      99926    2    1    2    0    0  0.71054273576E-14  0.00000000000E+00  0.27303694231E+02  0.45443675278E+03  0.45361577415E+03 0.  0.
      99925    2    3    3    0    0  0.33489830763E+02 -0.50770398234E+02 -0.77033627526E+02  0.28056039753E+03  0.26283217990E+03 0.  0.
         25    1    3    3    0    0 -0.33489830763E+02  0.50770398234E+02  0.10433732176E+03  0.17387635524E+03  0.12509000000E+03 0.  0.
         25    1    4    4    0    0 -0.92882451485E+01  0.23500443403E+01 -0.52452486191E+02  0.13598001917E+03  0.12509000000E+03 0.  0.
         25    1    4    4    0    0  0.42778075912E+02 -0.53120442574E+02 -0.24581141335E+02  0.14458037836E+03  0.12509000000E+03 0.  0.
<mgrwt>
<rscale>  2 0.45361577E+03</rscale>
<asrwt>0</asrwt>
<pdfrwt beam="1">  1       21 0.35422092E-01 0.45361577E+03</pdfrwt>
<pdfrwt beam="2">  1       21 0.31406843E-01 0.45361577E+03</pdfrwt>
<totfact> 0.69349883E+04</totfact>
</mgrwt>
</event>
<event>
 7    0  0.4750554E-002  0.4538741E+03  0.7546771E-02  0.1026573E+00
         21   -1    0    0  502  501  0.00000000000E+00  0.00000000000E+00  0.17102582981E+03  0.17102582981E+03  0.00000000000E+00 0. -1.
         21   -1    0    0  501  502 -0.00000000000E+00 -0.00000000000E+00 -0.30112657134E+03  0.30112657134E+03  0.00000000000E+00 0. -1.
      99926    2    1    2    0    0  0.00000000000E+00  0.00000000000E+00 -0.13010074153E+03  0.47215240116E+03  0.45387408713E+03 0.  0.
      99925    2    3    3    0    0 -0.32047372408E+02  0.54312374635E+02  0.14457957932E+02  0.27085264009E+03  0.26301188562E+03 0.  0.
         25    1    4    4    0    0  0.14660513237E+02  0.32843214252E+02 -0.18992646827E+02  0.13153644402E+03  0.12509000000E+03 0.  0.
         25    1    3    3    0    0  0.32047372408E+02 -0.54312374635E+02 -0.14455869946E+03  0.20129976107E+03  0.12509000000E+03 0.  0.
         25    1    4    4    0    0 -0.46707885645E+02  0.21469160383E+02  0.33450604760E+02  0.13931619607E+03  0.12509000000E+03 0.  0.
<mgrwt>
<rscale>  2 0.45387409E+03</rscale>
<asrwt>0</asrwt>
<pdfrwt beam="1">  1       21 0.25150858E-01 0.45387409E+03</pdfrwt>
<pdfrwt beam="2">  1       21 0.44283319E-01 0.45387409E+03</pdfrwt>
<totfact> 0.67880399E+04</totfact>
</mgrwt>
</event>
<event>
 7    0  0.4750554E-002  0.4507816E+03  0.7546771E-02  0.1027489E+00
         21   -1    0    0  502  501  0.00000000000E+00  0.00000000000E+00  0.68446420828E+03  0.68446420828E+03  0.00000000000E+00 0. -1.
         21   -1    0    0  501  502 -0.00000000000E+00 -0.00000000000E+00 -0.74220130819E+02  0.74220130819E+02  0.00000000000E+00 0. -1.
      99926    2    1    2    0    0  0.00000000000E+00  0.14210854715E-13  0.61024407746E+03  0.75868433910E+03  0.45078164594E+03 0.  0.
      99925    2    3    3    0    0 -0.49910663327E+02 -0.80996292090E+02  0.47562743233E+03  0.55175289419E+03  0.26297971065E+03 0.  0.
         25    1    3    3    0    0  0.49910663327E+02  0.80996292090E+02  0.13461664513E+03  0.20693144491E+03  0.12509000000E+03 0.  0.
         25    1    4    4    0    0 -0.33840086818E+01 -0.31970590598E+01  0.21228687502E+03  0.24644451324E+03  0.12509000000E+03 0.  0.
         25    1    4    4    0    0 -0.46526654646E+02 -0.77799233030E+02  0.26334055731E+03  0.30530838095E+03  0.12509000000E+03 0.  0.
<mgrwt>
<rscale>  2 0.45078165E+03</rscale>
<asrwt>0</asrwt>
<pdfrwt beam="1">  1       21 0.10065650E+00 0.45078165E+03</pdfrwt>
<pdfrwt beam="2">  1       21 0.10914725E-01 0.45078165E+03</pdfrwt>
<totfact> 0.51512633E+04</totfact>
</mgrwt>
</event>
<event>
 7    0  0.4750554E-002  0.4534705E+03  0.7546771E-02  0.1026692E+00
         21   -1    0    0  502  501  0.00000000000E+00  0.00000000000E+00  0.21939896071E+03  0.21939896071E+03  0.00000000000E+00 0.  1.
         21   -1    0    0  501  502 -0.00000000000E+00 -0.00000000000E+00 -0.23431689813E+03  0.23431689813E+03  0.00000000000E+00 0.  1.
      99926    2    1    2    0    0  0.35527136788E-14  0.00000000000E+00 -0.14917937417E+02  0.45371585884E+03  0.45347054558E+03 0.  0.
      99925    2    3    3    0    0 -0.11284764317E+02  0.31866781931E+02  0.97225891682E+02  0.28234904700E+03  0.26291685498E+03 0.  0.
         25    1    4    4    0    0  0.29289312813E+02 -0.39007042099E+01  0.53510940359E+02  0.13922646364E+03  0.12509000000E+03 0.  0.
         25    1    3    3    0    0  0.11284764317E+02 -0.31866781931E+02 -0.11214382910E+03  0.17136681184E+03  0.12509000000E+03 0.  0.
         25    1    4    4    0    0 -0.40574077130E+02  0.35767486140E+02  0.43714951323E+02  0.14312258336E+03  0.12509000000E+03 0.  0.
<mgrwt>
<rscale>  2 0.45347055E+03</rscale>
<asrwt>0</asrwt>
<pdfrwt beam="1">  1       21 0.32264553E-01 0.45347055E+03</pdfrwt>
<pdfrwt beam="2">  1       21 0.34458367E-01 0.45347055E+03</pdfrwt>
<totfact> 0.69484060E+04</totfact>
</mgrwt>
</event>
<event>
 7    0  0.4750554E-002  0.4594390E+03  0.7546771E-02  0.1024944E+00
         21   -1    0    0  502  501  0.00000000000E+00  0.00000000000E+00  0.41474143096E+02  0.41474143096E+02  0.00000000000E+00 0. -1.
         21   -1    0    0  501  502 -0.00000000000E+00 -0.00000000000E+00 -0.12723845135E+04  0.12723845135E+04  0.00000000000E+00 0. -1.
      99926    2    1    2    0    0  0.00000000000E+00  0.00000000000E+00 -0.12309103704E+04  0.13138586566E+04  0.45943903789E+03 0.  0.
      99925    2    3    3    0    0 -0.70706940802E+02  0.41492616140E+02 -0.53161423366E+03  0.59874768364E+03  0.26299046858E+03 0.  0.
         25    1    4    4    0    0 -0.28501460346E+02  0.12929660185E+02 -0.34554874091E+03  0.36882373812E+03  0.12509000000E+03 0.  0.
         25    1    4    4    0    0 -0.42205480456E+02  0.28562955955E+02 -0.18606549275E+03  0.22992394552E+03  0.12509000000E+03 0.  0.
         25    1    3    3    0    0  0.70706940802E+02 -0.41492616140E+02 -0.69929613670E+03  0.71511097291E+03  0.12509000000E+03 0.  0.
<mgrwt>
<rscale>  2 0.45943904E+03</rscale>
<asrwt>0</asrwt>
<pdfrwt beam="1">  1       21 0.60991385E-02 0.45943904E+03</pdfrwt>
<pdfrwt beam="2">  1       21 0.18711538E+00 0.45943904E+03</pdfrwt>
<totfact> 0.27744680E+04</totfact>
</mgrwt>
</event>
<event>
 7    0  0.4750554E-002  0.4575692E+03  0.7546771E-02  0.1025489E+00
         21   -1    0    0  502  501  0.00000000000E+00  0.00000000000E+00  0.69198958040E+02  0.69198958040E+02  0.00000000000E+00 0. -1.
         21   -1    0    0  501  502 -0.00000000000E+00 -0.00000000000E+00 -0.75640428800E+03  0.75640428800E+03  0.00000000000E+00 0. -1.
      99926    2    1    2    0    0 -0.17763568394E-14  0.00000000000E+00 -0.68720532996E+03  0.82560324604E+03  0.45756917985E+03 0.  0.
      99925    2    3    3    0    0 -0.14153177175E+02 -0.71748215939E+02 -0.59296926460E+03  0.65275631078E+03  0.26292609911E+03 0.  0.
         25    1    4    4    0    0 -0.43059319449E+02 -0.53463461331E+02 -0.29014964436E+03  0.32333693094E+03  0.12509000000E+03 0.  0.
         25    1    4    4    0    0  0.28906142273E+02 -0.18284754608E+02 -0.30281962023E+03  0.32941937984E+03  0.12509000000E+03 0.  0.
         25    1    3    3    0    0  0.14153177175E+02  0.71748215939E+02 -0.94236065367E+02  0.17284693526E+03  0.12509000000E+03 0.  0.
<mgrwt>
<rscale>  2 0.45756918E+03</rscale>
<asrwt>0</asrwt>
<pdfrwt beam="1">  1       21 0.10176318E-01 0.45756918E+03</pdfrwt>
<pdfrwt beam="2">  1       21 0.11123592E+00 0.45756918E+03</pdfrwt>
<totfact> 0.45624513E+04</totfact>
</mgrwt>
</event>
<event>
 7    0  0.4750554E-002  0.4422180E+03  0.7546771E-02  0.1030068E+00
         21   -1    0    0  502  501  0.00000000000E+00  0.00000000000E+00  0.47071614336E+02  0.47071614336E+02  0.00000000000E+00 0.  1.
         21   -1    0    0  501  502 -0.00000000000E+00 -0.00000000000E+00 -0.10386128158E+04  0.10386128158E+04  0.00000000000E+00 0.  1.
      99926    2    1    2    0    0  0.00000000000E+00  0.00000000000E+00 -0.99154120147E+03  0.10856844301E+04  0.44221796395E+03 0.  0.
      99925    2    3    3    0    0 -0.53484357090E+02 -0.59762961366E+02 -0.48257702067E+03  0.55547293136E+03  0.26313002221E+03 0.  0.
         25    1    4    4    0    0 -0.55107846862E+02 -0.36320244605E+02 -0.19407707430E+03  0.24014465187E+03  0.12509000000E+03 0.  0.
         25    1    4    4    0    0  0.16234897722E+01 -0.23442716762E+02 -0.28849994637E+03  0.31532827948E+03  0.12509000000E+03 0.  0.
         25    1    3    3    0    0  0.53484357090E+02  0.59762961366E+02 -0.50896418080E+03  0.53021149878E+03  0.12509000000E+03 0.  0.
<mgrwt>
<rscale>  2 0.44221796E+03</rscale>
<asrwt>0</asrwt>
<pdfrwt beam="1">  1       21 0.69222967E-02 0.44221796E+03</pdfrwt>
<pdfrwt beam="2">  1       21 0.15273717E+00 0.44221796E+03</pdfrwt>
<totfact> 0.39819995E+04</totfact>
</mgrwt>
</event>
<event>
 7    0  0.4750554E-002  0.4518617E+03  0.7546771E-02  0.1027168E+00
         21   -1    0    0  502  501  0.00000000000E+00  0.00000000000E+00  0.41051966986E+02  0.41051966986E+02  0.00000000000E+00 0.  1.
         21   -1    0    0  501  502 -0.00000000000E+00 -0.00000000000E+00 -0.12434181028E+04  0.12434181028E+04  0.00000000000E+00 0.  1.
      99926    2    1    2    0    0  0.00000000000E+00  0.00000000000E+00 -0.12023661358E+04  0.12844700698E+04  0.45186174393E+03 0.  0.
      99925    2    3    3    0    0  0.22830090165E+02 -0.79851255594E+02 -0.55281158686E+03  0.61778719450E+03  0.26298846188E+03 0.  0.
         25    1    4    4    0    0  0.11745242003E+02 -0.63581030373E+02 -0.21486123539E+03  0.25689172176E+03  0.12509000000E+03 0.  0.
         25    1    3    3    0    0 -0.22830090165E+02  0.79851255594E+02 -0.64955454894E+03  0.66668287528E+03  0.12509000000E+03 0.  0.
         25    1    4    4    0    0  0.11084848162E+02 -0.16270225222E+02 -0.33795035147E+03  0.36089547274E+03  0.12509000000E+03 0.  0.
<mgrwt>
<rscale>  2 0.45186174E+03</rscale>
<asrwt>0</asrwt>
<pdfrwt beam="1">  1       21 0.60370553E-02 0.45186174E+03</pdfrwt>
<pdfrwt beam="2">  1       21 0.18285556E+00 0.45186174E+03</pdfrwt>
<totfact> 0.30302093E+04</totfact>
</mgrwt>
</event>
<event>
 7    0  0.4750554E-002  0.4072461E+03  0.7546771E-02  0.1041299E+00
         21   -1    0    0  502  501  0.00000000000E+00  0.00000000000E+00  0.90380854729E+02  0.90380854729E+02  0.00000000000E+00 0. -1.
         21   -1    0    0  501  502 -0.00000000000E+00 -0.00000000000E+00 -0.45875146009E+03  0.45875146009E+03  0.00000000000E+00 0. -1.
      99926    2    1    2    0    0  0.00000000000E+00  0.00000000000E+00 -0.36837060536E+03  0.54913231482E+03  0.40724611267E+03 0.  0.
      99925    2    3    3    0    0 -0.63270044626E+01 -0.57470149172E+02 -0.23794117234E+03  0.35938987326E+03  0.26306316822E+03 0.  0.
         25    1    3    3    0    0  0.63270044626E+01  0.57470149172E+02 -0.13042943302E+03  0.18974244156E+03  0.12509000000E+03 0.  0.
         25    1    4    4    0    0  0.17270954507E+02  0.22045100278E+01 -0.88535052849E+02  0.15423718558E+03  0.12509000000E+03 0.  0.
         25    1    4    4    0    0 -0.23597958969E+02 -0.59674659200E+02 -0.14940611949E+03  0.20515268768E+03  0.12509000000E+03 0.  0.
<mgrwt>
<rscale>  2 0.40724611E+03</rscale>
<asrwt>0</asrwt>
<pdfrwt beam="1">  1       21 0.13291302E-01 0.40724611E+03</pdfrwt>
<pdfrwt beam="2">  1       21 0.67463449E-01 0.40724611E+03</pdfrwt>
<totfact> 0.92090872E+04</totfact>
</mgrwt>
</event>
<event>
 7    0  0.4750554E-002  0.4440036E+03  0.7546771E-02  0.1029525E+00
         21   -1    0    0  502  501  0.00000000000E+00  0.00000000000E+00  0.96249474396E+02  0.96249474396E+02  0.00000000000E+00 0.  1.
         21   -1    0    0  501  502 -0.00000000000E+00 -0.00000000000E+00 -0.51205270370E+03  0.51205270370E+03  0.00000000000E+00 0.  1.
      99926    2    1    2    0    0 -0.35527136788E-14  0.00000000000E+00 -0.41580322931E+03  0.60830217810E+03  0.44400361978E+03 0.  0.
      99925    2    3    3    0    0 -0.26125837552E+02 -0.39792334407E+02 -0.13987029797E+03  0.30162241032E+03  0.26295700959E+03 0.  0.
         25    1    4    4    0    0 -0.49694450438E+02 -0.16559088679E+02 -0.52143927990E+02  0.14529363079E+03  0.12509000000E+03 0.  0.
         25    1    3    3    0    0  0.26125837552E+02  0.39792334407E+02 -0.27593293134E+03  0.30667976778E+03  0.12509000000E+03 0.  0.
         25    1    4    4    0    0  0.23568612887E+02 -0.23233245729E+02 -0.87726369976E+02  0.15632877953E+03  0.12509000000E+03 0.  0.
<mgrwt>
<rscale>  2 0.44400362E+03</rscale>
<asrwt>0</asrwt>
<pdfrwt beam="1">  1       21 0.14154335E-01 0.44400362E+03</pdfrwt>
<pdfrwt beam="2">  1       21 0.75301866E-01 0.44400362E+03</pdfrwt>
<totfact> 0.63509314E+04</totfact>
</mgrwt>
</event>
<event>
 7    0  0.4750554E-002  0.4587137E+03  0.7546771E-02  0.1025155E+00
         21   -1    0    0  502  501  0.00000000000E+00  0.00000000000E+00  0.41434894402E+02  0.41434894402E+02  0.00000000000E+00 0. -1.
         21   -1    0    0  501  502 -0.00000000000E+00 -0.00000000000E+00 -0.12695717674E+04  0.12695717674E+04  0.00000000000E+00 0. -1.
      99926    2    1    2    0    0  0.00000000000E+00  0.00000000000E+00 -0.12281368730E+04  0.13110066618E+04  0.45871373259E+03 0.  0.
      99925    2    3    3    0    0 -0.53118725806E+02 -0.10277450099E+02 -0.10656649919E+04  0.10989409992E+04  0.26287301059E+03 0.  0.
         25    1    3    3    0    0  0.53118725806E+02  0.10277450099E+02 -0.16247188104E+03  0.21206566257E+03  0.12509000000E+03 0.  0.
         25    1    4    4    0    0 -0.26392807539E+02  0.19560492836E+01 -0.36897732832E+03  0.39050247545E+03  0.12509000000E+03 0.  0.
         25    1    4    4    0    0 -0.26725918267E+02 -0.12233499383E+02 -0.69668766361E+03  0.70843852376E+03  0.12509000000E+03 0.  0.
<mgrwt>
<rscale>  2 0.45871373E+03</rscale>
<asrwt>0</asrwt>
<pdfrwt beam="1">  1       21 0.60933675E-02 0.45871373E+03</pdfrwt>
<pdfrwt beam="2">  1       21 0.18670171E+00 0.45871373E+03</pdfrwt>
<totfact> 0.27979878E+04</totfact>
</mgrwt>
</event>
<event>
 7    0  0.4750554E-002  0.4576783E+03  0.7546771E-02  0.1025457E+00
         21   -1    0    0  502  501  0.00000000000E+00  0.00000000000E+00  0.35082585895E+02  0.35082585895E+02  0.00000000000E+00 0.  1.
         21   -1    0    0  501  502 -0.00000000000E+00 -0.00000000000E+00 -0.14926883058E+04  0.14926883058E+04  0.00000000000E+00 0.  1.
      99926    2    1    2    0    0  0.00000000000E+00 -0.35527136788E-14 -0.14576057199E+04  0.15277708917E+04  0.45767833989E+03 0.  0.
      99925    2    3    3    0    0  0.99630274360E+02  0.21346791037E+02 -0.73263678692E+03  0.78506681943E+03  0.26304252959E+03 0.  0.
         25    1    3    3    0    0 -0.99630274360E+02 -0.21346791037E+02 -0.72496893297E+03  0.74270407224E+03  0.12509000000E+03 0.  0.
         25    1    4    4    0    0  0.75772061687E+02  0.43883461922E+02 -0.40550377271E+03  0.43329895147E+03  0.12509000000E+03 0.  0.
         25    1    4    4    0    0  0.23858212673E+02 -0.22536670885E+02 -0.32713301420E+03  0.35176786796E+03  0.12509000000E+03 0.  0.
<mgrwt>
<rscale>  2 0.45767834E+03</rscale>
<asrwt>0</asrwt>
<pdfrwt beam="1">  1       21 0.51592033E-02 0.45767834E+03</pdfrwt>
<pdfrwt beam="2">  1       21 0.21951301E+00 0.45767834E+03</pdfrwt>
<totfact> 0.22632168E+04</totfact>
</mgrwt>
</event>
<event>
 7    0  0.4750554E-002  0.4482557E+03  0.7546771E-02  0.1028243E+00
         21   -1    0    0  502  501  0.00000000000E+00  0.00000000000E+00  0.33747535358E+02  0.33747535358E+02  0.00000000000E+00 0.  1.
         21   -1    0    0  501  502 -0.00000000000E+00 -0.00000000000E+00 -0.14885022994E+04  0.14885022994E+04  0.00000000000E+00 0.  1.
      99926    2    1    2    0    0 -0.35527136788E-14  0.00000000000E+00 -0.14547547641E+04  0.15222498348E+04  0.44825565911E+03 0.  0.
      99925    2    3    3    0    0 -0.22851444051E+02  0.60383346312E+02 -0.63196780535E+03  0.68750782401E+03  0.26289801079E+03 0.  0.
         25    1    4    4    0    0  0.15548310476E+02  0.25168283898E+02 -0.38381946125E+03  0.40477163859E+03  0.12509000000E+03 0.  0.
         25    1    3    3    0    0  0.22851444051E+02 -0.60383346312E+02 -0.82278695874E+03  0.83474201079E+03  0.12509000000E+03 0.  0.
         25    1    4    4    0    0 -0.38399754527E+02  0.35215062414E+02 -0.24814834410E+03  0.28273618542E+03  0.12509000000E+03 0.  0.
<mgrwt>
<rscale>  2 0.44825566E+03</rscale>
<asrwt>0</asrwt>
<pdfrwt beam="1">  1       21 0.49628728E-02 0.44825566E+03</pdfrwt>
<pdfrwt beam="2">  1       21 0.21889740E+00 0.44825566E+03</pdfrwt>
<totfact> 0.24497382E+04</totfact>
</mgrwt>
</event>
<event>
 7    0  0.4750554E-002  0.4359020E+03  0.7546771E-02  0.1032012E+00
         21   -1    0    0  502  501  0.00000000000E+00  0.00000000000E+00  0.40758925174E+03  0.40758925174E+03  0.00000000000E+00 0. -1.
         21   -1    0    0  501  502 -0.00000000000E+00 -0.00000000000E+00 -0.11654534226E+03  0.11654534226E+03  0.00000000000E+00 0. -1.
      99926    2    1    2    0    0 -0.14210854715E-13  0.35527136788E-14  0.29104390949E+03  0.52413459400E+03  0.43590195616E+03 0.  0.
      99925    2    3    3    0    0 -0.90670861312E+02  0.17729467453E+02  0.16564478275E+03  0.32436475595E+03  0.26313259347E+03 0.  0.
         25    1    3    3    0    0  0.90670861312E+02 -0.17729467453E+02  0.12539912674E+03  0.19976983805E+03  0.12509000000E+03 0.  0.
         25    1    4    4    0    0 -0.75655903629E+02  0.37371470822E+02  0.80275659388E+02  0.17091557031E+03  0.12509000000E+03 0.  0.
         25    1    4    4    0    0 -0.15014957682E+02 -0.19642003369E+02  0.85369123361E+02  0.15344918564E+03  0.12509000000E+03 0.  0.
<mgrwt>
<rscale>  2 0.43590196E+03</rscale>
<asrwt>0</asrwt>
<pdfrwt beam="1">  1       21 0.59939596E-01 0.43590196E+03</pdfrwt>
<pdfrwt beam="2">  1       21 0.17139021E-01 0.43590196E+03</pdfrwt>
<totfact> 0.74208504E+04</totfact>
</mgrwt>
</event>
<event>
 7    0  0.4750554E-002  0.4546034E+03  0.7546771E-02  0.1026358E+00
         21   -1    0    0  502  501  0.00000000000E+00  0.00000000000E+00  0.42108267295E+03  0.42108267295E+03  0.00000000000E+00 0.  1.
         21   -1    0    0  501  502 -0.00000000000E+00 -0.00000000000E+00 -0.12269813162E+03  0.12269813162E+03  0.00000000000E+00 0.  1.
      99926    2    1    2    0    0  0.00000000000E+00 -0.71054273576E-14  0.29838454133E+03  0.54378080457E+03  0.45460337539E+03 0.  0.
      99925    2    3    3    0    0  0.85524589584E+02  0.51371264262E+02  0.25152291716E+03  0.37705653479E+03  0.26259167990E+03 0.  0.
         25    1    3    3    0    0 -0.85524589584E+02 -0.51371264262E+02  0.46861624170E+02  0.16672426978E+03  0.12509000000E+03 0.  0.
         25    1    4    4    0    0  0.62835760879E+02  0.48714563229E+02  0.17211556226E+03  0.22714030111E+03  0.12509000000E+03 0.  0.
         25    1    4    4    0    0  0.22688828705E+02  0.26567010333E+01  0.79407354896E+02  0.14991623368E+03  0.12509000000E+03 0.  0.
<mgrwt>
<rscale>  2 0.45460338E+03</rscale>
<asrwt>0</asrwt>
<pdfrwt beam="1">  1       21 0.61923922E-01 0.45460338E+03</pdfrwt>
<pdfrwt beam="2">  1       21 0.18043843E-01 0.45460338E+03</pdfrwt>
<totfact> 0.62475213E+04</totfact>
</mgrwt>
</event>
<event>
 7    0  0.4750554E-002  0.4512550E+03  0.7546771E-02  0.1027348E+00
         21   -1    0    0  502  501  0.00000000000E+00  0.00000000000E+00  0.31439648992E+03  0.31439648992E+03  0.00000000000E+00 0. -1.
         21   -1    0    0  501  502 -0.00000000000E+00 -0.00000000000E+00 -0.16192221309E+03  0.16192221309E+03  0.00000000000E+00 0. -1.
      99926    2    1    2    0    0  0.00000000000E+00  0.00000000000E+00  0.15247427683E+03  0.47631870301E+03  0.45125502961E+03 0.  0.
      99925    2    3    3    0    0 -0.81491889400E+02  0.53577797825E+02  0.14910348031E+03  0.31766694971E+03  0.26299987574E+03 0.  0.
         25    1    4    4    0    0 -0.10587913686E+02 -0.24852417848E+01  0.56526647942E+02  0.13769912988E+03  0.12509000000E+03 0.  0.
         25    1    3    3    0    0  0.81491889400E+02 -0.53577797825E+02  0.33707965274E+01  0.15865175331E+03  0.12509000000E+03 0.  0.
         25    1    4    4    0    0 -0.70903975715E+02  0.56063039610E+02  0.92576832363E+02  0.17996781983E+03  0.12509000000E+03 0.  0.
<mgrwt>
<rscale>  2 0.45125503E+03</rscale>
<asrwt>0</asrwt>
<pdfrwt beam="1">  1       21 0.46234778E-01 0.45125503E+03</pdfrwt>
<pdfrwt beam="2">  1       21 0.23812090E-01 0.45125503E+03</pdfrwt>
<totfact> 0.68997231E+04</totfact>
</mgrwt>
</event>
<event>
 7    0  0.4750554E-002  0.4536930E+03  0.7546771E-02  0.1026626E+00
         21   -1    0    0  502  501  0.00000000000E+00  0.00000000000E+00  0.14568934672E+03  0.14568934672E+03  0.00000000000E+00 0. -1.
         21   -1    0    0  501  502 -0.00000000000E+00 -0.00000000000E+00 -0.35321268964E+03  0.35321268964E+03  0.00000000000E+00 0. -1.
      99926    2    1    2    0    0  0.00000000000E+00  0.14210854715E-13 -0.20752334293E+03  0.49890203636E+03  0.45369296228E+03 0.  0.
      99925    2    3    3    0    0  0.20285642607E+02 -0.10575386678E+03 -0.16444633491E+03  0.32831914051E+03  0.26297428264E+03 0.  0.
         25    1    4    4    0    0 -0.14589393047E+02 -0.57755530160E+02 -0.11889551738E+03  0.18257109247E+03  0.12509000000E+03 0.  0.
         25    1    4    4    0    0  0.34875035654E+02 -0.47998336619E+02 -0.45550817526E+02  0.14574804804E+03  0.12509000000E+03 0.  0.
         25    1    3    3    0    0 -0.20285642607E+02  0.10575386678E+03 -0.43077008020E+02  0.17058289584E+03  0.12509000000E+03 0.  0.
<mgrwt>
<rscale>  2 0.45369296E+03</rscale>
<asrwt>0</asrwt>
<pdfrwt beam="1">  1       21 0.21424904E-01 0.45369296E+03</pdfrwt>
<pdfrwt beam="2">  1       21 0.51943042E-01 0.45369296E+03</pdfrwt>
<totfact> 0.66030300E+04</totfact>
</mgrwt>
</event>
<event>
 7    0  0.4750554E-002  0.4572553E+03  0.7546771E-02  0.1025580E+00
         21   -1    0    0  502  501  0.00000000000E+00  0.00000000000E+00  0.93524828509E+03  0.93524828509E+03  0.00000000000E+00 0.  1.
         21   -1    0    0  501  502 -0.00000000000E+00 -0.00000000000E+00 -0.55889536473E+02  0.55889536473E+02  0.00000000000E+00 0.  1.
      99926    2    1    2    0    0  0.88817841970E-15  0.35527136788E-14  0.87935874862E+03  0.99113782156E+03  0.45725525974E+03 0.  0.
      99925    2    3    3    0    0  0.26013266635E+01  0.20214172220E+02  0.30658180294E+03  0.40450649163E+03  0.26309260768E+03 0.  0.
         25    1    4    4    0    0  0.22266895414E+02  0.12909340172E+02  0.20709550234E+03  0.24330746163E+03  0.12509000000E+03 0.  0.
         25    1    4    4    0    0 -0.19665568751E+02  0.73048320475E+01  0.99486300595E+02  0.16119903000E+03  0.12509000000E+03 0.  0.
         25    1    3    3    0    0 -0.26013266635E+01 -0.20214172220E+02  0.57277694568E+03  0.58663132994E+03  0.12509000000E+03 0.  0.
<mgrwt>
<rscale>  2 0.45725526E+03</rscale>
<asrwt>0</asrwt>
<pdfrwt beam="1">  1       21 0.13753650E+00 0.45725526E+03</pdfrwt>
<pdfrwt beam="2">  1       21 0.82190501E-02 0.45725526E+03</pdfrwt>
<totfact> 0.38824796E+04</totfact>
</mgrwt>
</event>
<event>
 7    0  0.4750554E-002  0.4545366E+03  0.7546771E-02  0.1026378E+00
         21   -1    0    0  502  501  0.00000000000E+00  0.00000000000E+00  0.43267695534E+02  0.43267695534E+02  0.00000000000E+00 0.  1.
         21   -1    0    0  501  502 -0.00000000000E+00 -0.00000000000E+00 -0.11937515206E+04  0.11937515206E+04  0.00000000000E+00 0.  1.
      99926    2    1    2    0    0 -0.71054273576E-14  0.35527136788E-14 -0.11504838251E+04  0.12370192162E+04  0.45453658747E+03 0.  0.
      99925    2    3    3    0    0  0.35208817540E+02 -0.17374184974E+02 -0.43652737375E+03  0.51112470203E+03  0.26296537767E+03 0.  0.
         25    1    4    4    0    0  0.11923776283E+02 -0.47553816723E+02 -0.24046966724E+03  0.27545727598E+03  0.12509000000E+03 0.  0.
         25    1    3    3    0    0 -0.35208817540E+02  0.17374184974E+02 -0.71395645134E+03  0.72589451413E+03  0.12509000000E+03 0.  0.
         25    1    4    4    0    0  0.23285041257E+02  0.30179631748E+02 -0.19605770651E+03  0.23566742605E+03  0.12509000000E+03 0.  0.
<mgrwt>
<rscale>  2 0.45453659E+03</rscale>
<asrwt>0</asrwt>
<pdfrwt beam="1">  1       21 0.63628960E-02 0.45453659E+03</pdfrwt>
<pdfrwt beam="2">  1       21 0.17555170E+00 0.45453659E+03</pdfrwt>
<totfact> 0.31112135E+04</totfact>
</mgrwt>
</event>
<event>
 7    0  0.4750554E-002  0.4594290E+03  0.7546771E-02  0.1024947E+00
         21   -1    0    0  502  501  0.00000000000E+00  0.00000000000E+00  0.30953585972E+03  0.30953585972E+03  0.00000000000E+00 0.  1.
         21   -1    0    0  501  502 -0.00000000000E+00 -0.00000000000E+00 -0.17047700269E+03  0.17047700269E+03  0.00000000000E+00 0.  1.
      99926    2    1    2    0    0  0.00000000000E+00  0.00000000000E+00  0.13905885703E+03  0.48001286241E+03  0.45942897423E+03 0.  0.
      99925    2    3    3    0    0 -0.96236737952E+02  0.54124316877E+02  0.45782332856E+02  0.28886117011E+03  0.26297110523E+03 0.  0.
         25    1    4    4    0    0 -0.67786150768E+02  0.63960105714E+02  0.34063666067E+02  0.15966746320E+03  0.12509000000E+03 0.  0.
         25    1    3    3    0    0  0.96236737952E+02 -0.54124316877E+02  0.93276524179E+02  0.19115169231E+03  0.12509000000E+03 0.  0.
         25    1    4    4    0    0 -0.28450587184E+02 -0.98357888366E+01  0.11718666789E+02  0.12919370691E+03  0.12509000000E+03 0.  0.
<mgrwt>
<rscale>  2 0.45942897E+03</rscale>
<asrwt>0</asrwt>
<pdfrwt beam="1">  1       21 0.45519980E-01 0.45942897E+03</pdfrwt>
<pdfrwt beam="2">  1       21 0.25070147E-01 0.45942897E+03</pdfrwt>
<totfact> 0.64405276E+04</totfact>
</mgrwt>
</event>
<event>
 7    0  0.4750554E-002  0.4535199E+03  0.7546771E-02  0.1026678E+00
         21   -1    0    0  502  501  0.00000000000E+00  0.00000000000E+00  0.19953969570E+03  0.19953969570E+03  0.00000000000E+00 0. -1.
         21   -1    0    0  501  502 -0.00000000000E+00 -0.00000000000E+00 -0.25769346292E+03  0.25769346292E+03  0.00000000000E+00 0. -1.
      99926    2    1    2    0    0  0.00000000000E+00  0.71054273576E-14 -0.58153767222E+02  0.45723315863E+03  0.45351990111E+03 0.  0.
      99925    2    3    3    0    0 -0.61725727181E+02  0.20241510424E+02  0.55371741907E+02  0.27624881272E+03  0.26273102707E+03 0.  0.
         25    1    3    3    0    0  0.61725727181E+02 -0.20241510424E+02 -0.11352550913E+03  0.18098434591E+03  0.12509000000E+03 0.  0.
         25    1    4    4    0    0 -0.10534680587E+02  0.32208201844E+02 -0.26016241781E+00  0.12959908775E+03  0.12509000000E+03 0.  0.
         25    1    4    4    0    0 -0.51191046594E+02 -0.11966691421E+02  0.55631904324E+02  0.14664972497E+03  0.12509000000E+03 0.  0.
<mgrwt>
<rscale>  2 0.45351990E+03</rscale>
<asrwt>0</asrwt>
<pdfrwt beam="1">  1       21 0.29344073E-01 0.45351990E+03</pdfrwt>
<pdfrwt beam="2">  1       21 0.37896097E-01 0.45351990E+03</pdfrwt>
<totfact> 0.69195819E+04</totfact>
</mgrwt>
</event>
<event>
 7    0  0.4750554E-002  0.5067338E+03  0.7546771E-02  0.1012036E+00
         21   -1    0    0  502  501  0.00000000000E+00  0.00000000000E+00  0.15920946263E+03  0.15920946263E+03  0.00000000000E+00 0. -1.
         21   -1    0    0  501  502 -0.00000000000E+00 -0.00000000000E+00 -0.40320960310E+03  0.40320960310E+03  0.00000000000E+00 0. -1.
      99926    2    1    2    0    0  0.14210854715E-13  0.00000000000E+00 -0.24400014047E+03  0.56241906573E+03  0.50673379298E+03 0.  0.
      99925    2    3    3    0    0 -0.96518539394E+02  0.12298256003E+03 -0.16059350646E+03  0.34552113302E+03  0.26297155841E+03 0.  0.
         25    1    3    3    0    0  0.96518539394E+02 -0.12298256003E+03 -0.83406634008E+02  0.21689793271E+03  0.12509000000E+03 0.  0.
         25    1    4    4    0    0 -0.87521747636E+02  0.56388229643E+02 -0.10088491222E+03  0.19148097129E+03  0.12509000000E+03 0.  0.
         25    1    4    4    0    0 -0.89967917579E+01  0.66594330384E+02 -0.59708594243E+02  0.15404016174E+03  0.12509000000E+03 0.  0.
<mgrwt>
<rscale>  2 0.50673379E+03</rscale>
<asrwt>0</asrwt>
<pdfrwt beam="1">  1       21 0.23413157E-01 0.50673379E+03</pdfrwt>
<pdfrwt beam="2">  1       21 0.59295529E-01 0.50673379E+03</pdfrwt>
<totfact> 0.41334683E+04</totfact>
</mgrwt>
</event>
<event>
 7    0  0.4750554E-002  0.4596557E+03  0.7546771E-02  0.1024881E+00
         21   -1    0    0  502  501  0.00000000000E+00  0.00000000000E+00  0.82564822620E+03  0.82564822620E+03  0.00000000000E+00 0.  1.
         21   -1    0    0  501  502 -0.00000000000E+00 -0.00000000000E+00 -0.63975003479E+02  0.63975003479E+02  0.00000000000E+00 0.  1.
      99926    2    1    2    0    0  0.00000000000E+00  0.00000000000E+00  0.76167322272E+03  0.88962322968E+03  0.45965573267E+03 0.  0.
      99925    2    3    3    0    0  0.87027799566E+02  0.60777457998E+02  0.37977609175E+03  0.47397835236E+03  0.26297882299E+03 0.  0.
         25    1    3    3    0    0 -0.87027799566E+02 -0.60777457998E+02  0.38189713097E+03  0.41564487732E+03  0.12509000000E+03 0.  0.
         25    1    4    4    0    0  0.79557418028E+02  0.46964859297E+02  0.18141094454E+03  0.23894041030E+03  0.12509000000E+03 0.  0.
         25    1    4    4    0    0  0.74703815377E+01  0.13812598700E+02  0.19836514721E+03  0.23503794206E+03  0.12509000000E+03 0.  0.
<mgrwt>
<rscale>  2 0.45965573E+03</rscale>
<asrwt>0</asrwt>
<pdfrwt beam="1">  1       21 0.12141885E+00 0.45965573E+03</pdfrwt>
<pdfrwt beam="2">  1       21 0.94080892E-02 0.45965573E+03</pdfrwt>
<totfact> 0.42128354E+04</totfact>
</mgrwt>
</event>
<event>
 7    0  0.4750554E-002  0.4567864E+03  0.7546771E-02  0.1025717E+00
         21   -1    0    0  502  501  0.00000000000E+00  0.00000000000E+00  0.16805354179E+03  0.16805354179E+03  0.00000000000E+00 0.  1.
         21   -1    0    0  501  502 -0.00000000000E+00 -0.00000000000E+00 -0.31039778120E+03  0.31039778120E+03  0.00000000000E+00 0.  1.
      99926    2    1    2    0    0 -0.71054273576E-14  0.00000000000E+00 -0.14234423942E+03  0.47845132299E+03  0.45678636798E+03 0.  0.
      99925    2    3    3    0    0  0.47072852457E+02 -0.10380794925E+03 -0.75271149423E+02  0.29641217537E+03  0.26306365771E+03 0.  0.
         25    1    4    4    0    0  0.41550904394E+02 -0.53837662126E+02 -0.76417651041E+02  0.16159250295E+03  0.12509000000E+03 0.  0.
         25    1    3    3    0    0 -0.47072852457E+02  0.10380794925E+03 -0.67073089993E+02  0.18203914762E+03  0.12509000000E+03 0.  0.
         25    1    4    4    0    0  0.55219480633E+01 -0.49970287121E+02  0.11465016183E+01  0.13481967242E+03  0.12509000000E+03 0.  0.
<mgrwt>
<rscale>  2 0.45678637E+03</rscale>
<asrwt>0</asrwt>
<pdfrwt beam="1">  1       21 0.24713756E-01 0.45678637E+03</pdfrwt>
<pdfrwt beam="2">  1       21 0.45646732E-01 0.45678637E+03</pdfrwt>
<totfact> 0.65874082E+04</totfact>
</mgrwt>
</event>
<event>
 7    0  0.4750554E-002  0.4586321E+03  0.7546771E-02  0.1025179E+00
         21   -1    0    0  502  501  0.00000000000E+00  0.00000000000E+00  0.55015122419E+02  0.55015122419E+02  0.00000000000E+00 0.  1.
         21   -1    0    0  501  502 -0.00000000000E+00 -0.00000000000E+00 -0.95584349985E+03  0.95584349985E+03  0.00000000000E+00 0.  1.
      99926    2    1    2    0    0  0.00000000000E+00  0.00000000000E+00 -0.90082837743E+03  0.10108586223E+04  0.45863208417E+03 0.  0.
      99925    2    3    3    0    0  0.49265034593E+02  0.92491854805E+02 -0.45291375061E+03  0.53414402436E+03  0.26305358091E+03 0.  0.
         25    1    4    4    0    0  0.41940948398E+02  0.87096229667E+01 -0.20154100176E+03  0.24104187224E+03  0.12509000000E+03 0.  0.
         25    1    3    3    0    0 -0.49265034593E+02 -0.92491854805E+02 -0.44791462682E+03  0.47671459791E+03  0.12509000000E+03 0.  0.
         25    1    4    4    0    0  0.73240861956E+01  0.83782231838E+02 -0.25137274885E+03  0.29310215211E+03  0.12509000000E+03 0.  0.
<mgrwt>
<rscale>  2 0.45863208E+03</rscale>
<asrwt>0</asrwt>
<pdfrwt beam="1">  1       21 0.80904595E-02 0.45863208E+03</pdfrwt>
<pdfrwt beam="2">  1       21 0.14056521E+00 0.45863208E+03</pdfrwt>
<totfact> 0.37667356E+04</totfact>
</mgrwt>
</event>
<event>
 7    0  0.4750554E-002  0.4391668E+03  0.7546771E-02  0.1031003E+00
         21   -1    0    0  502  501  0.00000000000E+00  0.00000000000E+00  0.25461950502E+03  0.25461950502E+03  0.00000000000E+00 0. -1.
         21   -1    0    0  501  502 -0.00000000000E+00 -0.00000000000E+00 -0.18936836582E+03  0.18936836582E+03  0.00000000000E+00 0. -1.
      99926    2    1    2    0    0  0.00000000000E+00 -0.35527136788E-14  0.65251139193E+02  0.44398787084E+03  0.43916684561E+03 0.  0.
      99925    2    3    3    0    0 -0.23421381156E+02  0.31267213966E+02 -0.48836742862E+02  0.27023588467E+03  0.26289961230E+03 0.  0.
         25    1    3    3    0    0  0.23421381156E+02 -0.31267213966E+02  0.11408788205E+03  0.17375198616E+03  0.12509000000E+03 0.  0.
         25    1    4    4    0    0  0.18441717665E+02  0.27297450337E+02 -0.48836541810E+02  0.13826700135E+03  0.12509000000E+03 0.  0.
         25    1    4    4    0    0 -0.41863098821E+02  0.39697636296E+01 -0.20105191366E-03  0.13196888333E+03  0.12509000000E+03 0.  0.
<mgrwt>
<rscale>  2 0.43916685E+03</rscale>
<asrwt>0</asrwt>
<pdfrwt beam="1">  1       21 0.37444045E-01 0.43916685E+03</pdfrwt>
<pdfrwt beam="2">  1       21 0.27848289E-01 0.43916685E+03</pdfrwt>
<totfact> 0.78860215E+04</totfact>
</mgrwt>
</event>
<event>
 7    0  0.4750554E-002  0.4501810E+03  0.7546771E-02  0.1027668E+00
         21   -1    0    0  502  501  0.00000000000E+00  0.00000000000E+00  0.11840608709E+03  0.11840608709E+03  0.00000000000E+00 0. -1.
         21   -1    0    0  501  502 -0.00000000000E+00 -0.00000000000E+00 -0.42789804104E+03  0.42789804104E+03  0.00000000000E+00 0. -1.
      99926    2    1    2    0    0  0.00000000000E+00  0.00000000000E+00 -0.30949195395E+03  0.54630412814E+03  0.45018099789E+03 0.  0.
      99925    2    3    3    0    0  0.72585955072E+02  0.79224176299E+02 -0.20940995443E+03  0.35340750890E+03  0.26362690938E+03 0.  0.
         25    1    4    4    0    0  0.20262184191E+02  0.36443208220E+01 -0.11838590605E+03  0.17345480113E+03  0.12509000000E+03 0.  0.
         25    1    3    3    0    0 -0.72585955072E+02 -0.79224176299E+02 -0.10008199952E+03  0.19289661924E+03  0.12509000000E+03 0.  0.
         25    1    4    4    0    0  0.52323770880E+02  0.75579855477E+02 -0.91024048376E+02  0.17995270778E+03  0.12509000000E+03 0.  0.
<mgrwt>
<rscale>  2 0.45018100E+03</rscale>
<asrwt>0</asrwt>
<pdfrwt beam="1">  1       21 0.17412660E-01 0.45018100E+03</pdfrwt>
<pdfrwt beam="2">  1       21 0.62926181E-01 0.45018100E+03</pdfrwt>
<totfact> 0.64537275E+04</totfact>
</mgrwt>
</event>
<event>
 7    0  0.4750554E-002  0.4557995E+03  0.7546771E-02  0.1026007E+00
         21   -1    0    0  502  501  0.00000000000E+00  0.00000000000E+00  0.84235954832E+02  0.84235954832E+02  0.00000000000E+00 0.  1.
         21   -1    0    0  501  502 -0.00000000000E+00 -0.00000000000E+00 -0.61658095455E+03  0.61658095455E+03  0.00000000000E+00 0.  1.
      99926    2    1    2    0    0  0.00000000000E+00  0.00000000000E+00 -0.53234499972E+03  0.70081690938E+03  0.45579945344E+03 0.  0.
      99925    2    3    3    0    0  0.43606221244E+02  0.65985163686E+02 -0.20859151867E+03  0.34484026837E+03  0.26296167909E+03 0.  0.
         25    1    4    4    0    0  0.57242669748E+02  0.55277340192E+02 -0.10914226715E+03  0.18409739313E+03  0.12509000000E+03 0.  0.
         25    1    4    4    0    0 -0.13636448504E+02  0.10707823494E+02 -0.99449251526E+02  0.16074287524E+03  0.12509000000E+03 0.  0.
         25    1    3    3    0    0 -0.43606221244E+02 -0.65985163686E+02 -0.32375348105E+03  0.35597664102E+03  0.12509000000E+03 0.  0.
<mgrwt>
<rscale>  2 0.45579945E+03</rscale>
<asrwt>0</asrwt>
<pdfrwt beam="1">  1       21 0.12387640E-01 0.45579945E+03</pdfrwt>
<pdfrwt beam="2">  1       21 0.90673669E-01 0.45579945E+03</pdfrwt>
<totfact> 0.52527372E+04</totfact>
</mgrwt>
</event>
<event>
 7    0  0.4750554E-002  0.4566418E+03  0.7546771E-02  0.1025760E+00
         21   -1    0    0  502  501  0.00000000000E+00  0.00000000000E+00  0.53219815418E+02  0.53219815418E+02  0.00000000000E+00 0.  1.
         21   -1    0    0  501  502 -0.00000000000E+00 -0.00000000000E+00 -0.97953056063E+03  0.97953056063E+03  0.00000000000E+00 0.  1.
      99926    2    1    2    0    0  0.14210854715E-13  0.17763568394E-14 -0.92631074522E+03  0.10327503761E+04  0.45664180988E+03 0.  0.
      99925    2    3    3    0    0 -0.11440902560E+03 -0.85039974586E+01 -0.58904599454E+03  0.65518347699E+03  0.26292291976E+03 0.  0.
         25    1    3    3    0    0  0.11440902560E+03  0.85039974586E+01 -0.33726475068E+03  0.37756689906E+03  0.12509000000E+03 0.  0.
         25    1    4    4    0    0 -0.66144097422E+02 -0.43807487712E+02 -0.31232795093E+03  0.34567382695E+03  0.12509000000E+03 0.  0.
         25    1    4    4    0    0 -0.48264928179E+02  0.35303490253E+02 -0.27671804360E+03  0.30950965005E+03  0.12509000000E+03 0.  0.
<mgrwt>
<rscale>  2 0.45664181E+03</rscale>
<asrwt>0</asrwt>
<pdfrwt beam="1">  1       21 0.78264438E-02 0.45664181E+03</pdfrwt>
<pdfrwt beam="2">  1       21 0.14404861E+00 0.45664181E+03</pdfrwt>
<totfact> 0.37434663E+04</totfact>
</mgrwt>
</event>
<event>
 7    0  0.4750554E-002  0.4671216E+03  0.7546771E-02  0.1022736E+00
         21   -1    0    0  502  501  0.00000000000E+00  0.00000000000E+00  0.32528729230E+03  0.32528729230E+03  0.00000000000E+00 0. -1.
         21   -1    0    0  501  502 -0.00000000000E+00 -0.00000000000E+00 -0.16769992310E+03  0.16769992310E+03  0.00000000000E+00 0. -1.
      99926    2    1    2    0    0  0.00000000000E+00  0.00000000000E+00  0.15758736919E+03  0.49298721540E+03  0.46712162829E+03 0.  0.
      99925    2    3    3    0    0  0.11101617541E+03  0.44241349901E+02  0.60409620744E+02  0.29456113058E+03  0.26236434423E+03 0.  0.
         25    1    4    4    0    0  0.42881803746E+02  0.58439934683E+02  0.21031657384E+02  0.14609556383E+03  0.12509000000E+03 0.  0.
         25    1    3    3    0    0 -0.11101617541E+03 -0.44241349901E+02  0.97177748449E+02  0.19842608482E+03  0.12509000000E+03 0.  0.
         25    1    4    4    0    0  0.68134371661E+02 -0.14198584782E+02  0.39377963360E+02  0.14846556675E+03  0.12509000000E+03 0.  0.
<mgrwt>
<rscale>  2 0.46712163E+03</rscale>
<asrwt>0</asrwt>
<pdfrwt beam="1">  1       21 0.47836367E-01 0.46712163E+03</pdfrwt>
<pdfrwt beam="2">  1       21 0.24661753E-01 0.46712163E+03</pdfrwt>
<totfact> 0.59801267E+04</totfact>
</mgrwt>
</event>
<event>
 7    0  0.4750554E-002  0.4578027E+03  0.7546771E-02  0.1025420E+00
         21   -1    0    0  502  501  0.00000000000E+00  0.00000000000E+00  0.83137482787E+03  0.83137482787E+03  0.00000000000E+00 0. -1.
         21   -1    0    0  501  502 -0.00000000000E+00 -0.00000000000E+00 -0.63023120211E+02  0.63023120211E+02  0.00000000000E+00 0. -1.
      99926    2    1    2    0    0  0.00000000000E+00  0.00000000000E+00  0.76835170766E+03  0.89439794809E+03  0.45780273358E+03 0.  0.
      99925    2    3    3    0    0  0.16697579432E+02  0.95697769029E+02  0.60552879953E+03  0.66725112405E+03  0.26291075164E+03 0.  0.
         25    1    4    4    0    0 -0.45347349480E+01  0.99739736828E+01  0.30849345482E+03  0.33307020842E+03  0.12509000000E+03 0.  0.
         25    1    3    3    0    0 -0.16697579432E+02 -0.95697769029E+02  0.16282290813E+03  0.22714682403E+03  0.12509000000E+03 0.  0.
         25    1    4    4    0    0  0.21232314380E+02  0.85723795346E+02  0.29703534471E+03  0.33418091563E+03  0.12509000000E+03 0.  0.
<mgrwt>
<rscale>  2 0.45780273E+03</rscale>
<asrwt>0</asrwt>
<pdfrwt beam="1">  1       21 0.12226100E+00 0.45780273E+03</pdfrwt>
<pdfrwt beam="2">  1       21 0.92681064E-02 0.45780273E+03</pdfrwt>
<totfact> 0.42535595E+04</totfact>
</mgrwt>
</event>
<event>
 7    0  0.4750554E-002  0.4612307E+03  0.7546771E-02  0.1024425E+00
         21   -1    0    0  502  501  0.00000000000E+00  0.00000000000E+00  0.10007683071E+03  0.10007683071E+03  0.00000000000E+00 0.  1.
         21   -1    0    0  501  502 -0.00000000000E+00 -0.00000000000E+00 -0.53142604929E+03  0.53142604929E+03  0.00000000000E+00 0.  1.
      99926    2    1    2    0    0  0.00000000000E+00 -0.71054273576E-14 -0.43134921859E+03  0.63150288000E+03  0.46123067881E+03 0.  0.
      99925    2    3    3    0    0 -0.11160465984E+03 -0.40353349978E+02 -0.26154593213E+03  0.38950152227E+03  0.26309916055E+03 0.  0.
         25    1    3    3    0    0  0.11160465984E+03  0.40353349978E+02 -0.16980328646E+03  0.24200135773E+03  0.12509000000E+03 0.  0.
         25    1    4    4    0    0 -0.29081816742E+02 -0.24970513110E+02 -0.16499382966E+03  0.21057006083E+03  0.12509000000E+03 0.  0.
         25    1    4    4    0    0 -0.82522843099E+02 -0.15382836868E+02 -0.96552102466E+02  0.17893146144E+03  0.12509000000E+03 0.  0.
<mgrwt>
<rscale>  2 0.46123068E+03</rscale>
<asrwt>0</asrwt>
<pdfrwt beam="1">  1       21 0.14717181E-01 0.46123068E+03</pdfrwt>
<pdfrwt beam="2">  1       21 0.78150890E-01 0.46123068E+03</pdfrwt>
<totfact> 0.54070922E+04</totfact>
</mgrwt>
</event>
<event>
 7    0  0.4750554E-002  0.4477203E+03  0.7546771E-02  0.1028404E+00
         21   -1    0    0  502  501  0.00000000000E+00  0.00000000000E+00  0.83673204211E+02  0.83673204211E+02  0.00000000000E+00 0. -1.
         21   -1    0    0  501  502 -0.00000000000E+00 -0.00000000000E+00 -0.59891761103E+03  0.59891761103E+03  0.00000000000E+00 0. -1.
      99926    2    1    2    0    0  0.00000000000E+00  0.00000000000E+00 -0.51524440682E+03  0.68259081524E+03  0.44772025004E+03 0.  0.
      99925    2    3    3    0    0 -0.95023152974E+02  0.41854316325E+02 -0.29196494878E+03  0.40639811462E+03  0.26293480723E+03 0.  0.
         25    1    4    4    0    0 -0.11633161655E+02  0.14640604222E+02 -0.16400090987E+03  0.20710742208E+03  0.12509000000E+03 0.  0.
         25    1    3    3    0    0  0.95023152974E+02 -0.41854316325E+02 -0.22327945803E+03  0.27619270062E+03  0.12509000000E+03 0.  0.
         25    1    4    4    0    0 -0.83389991318E+02  0.27213712103E+02 -0.12796403892E+03  0.19929069254E+03  0.12509000000E+03 0.  0.
<mgrwt>
<rscale>  2 0.44772025E+03</rscale>
<asrwt>0</asrwt>
<pdfrwt beam="1">  1       21 0.12304882E-01 0.44772025E+03</pdfrwt>
<pdfrwt beam="2">  1       21 0.88076124E-01 0.44772025E+03</pdfrwt>
<totfact> 0.57059503E+04</totfact>
</mgrwt>
</event>
<event>
 7    0  0.4750554E-002  0.4601215E+03  0.7546771E-02  0.1024746E+00
         21   -1    0    0  502  501  0.00000000000E+00  0.00000000000E+00  0.15323754664E+03  0.15323754664E+03  0.00000000000E+00 0. -1.
         21   -1    0    0  501  502 -0.00000000000E+00 -0.00000000000E+00 -0.34539805237E+03  0.34539805237E+03  0.00000000000E+00 0. -1.
      99926    2    1    2    0    0  0.00000000000E+00  0.00000000000E+00 -0.19216050572E+03  0.49863559901E+03  0.46012150639E+03 0.  0.
      99925    2    3    3    0    0 -0.78539528933E+02  0.82447948609E+02 -0.15370265910E+03  0.32516330756E+03  0.26294590191E+03 0.  0.
         25    1    4    4    0    0 -0.52979913025E+02  0.81536077222E+02 -0.93910521493E+02  0.18417843853E+03  0.12509000000E+03 0.  0.
         25    1    3    3    0    0  0.78539528933E+02 -0.82447948609E+02 -0.38457846618E+02  0.17347229145E+03  0.12509000000E+03 0.  0.
         25    1    4    4    0    0 -0.25559615908E+02  0.91187138724E+00 -0.59792137611E+02  0.14098486903E+03  0.12509000000E+03 0.  0.
<mgrwt>
<rscale>  2 0.46012151E+03</rscale>
<asrwt>0</asrwt>
<pdfrwt beam="1">  1       21 0.22534933E-01 0.46012151E+03</pdfrwt>
<pdfrwt beam="2">  1       21 0.50793831E-01 0.46012151E+03</pdfrwt>
<totfact> 0.62775284E+04</totfact>
</mgrwt>
</event>
<event>
 7    0  0.4750554E-002  0.4573206E+03  0.7546771E-02  0.1025561E+00
         21   -1    0    0  502  501  0.00000000000E+00  0.00000000000E+00  0.12711603177E+04  0.12711603177E+04  0.00000000000E+00 0. -1.
         21   -1    0    0  501  502 -0.00000000000E+00 -0.00000000000E+00 -0.41132139975E+02  0.41132139975E+02  0.00000000000E+00 0. -1.
      99926    2    1    2    0    0 -0.14210854715E-13  0.00000000000E+00  0.12300281778E+04  0.13122924577E+04  0.45732064953E+03 0.  0.
      99925    2    3    3    0    0  0.73501222331E+02 -0.28591842437E+02  0.10137293126E+04  0.10502759882E+04  0.26308289376E+03 0.  0.
         25    1    4    4    0    0  0.23746717638E+01 -0.25902283274E+01  0.54912089059E+03  0.56319943975E+03  0.12509000000E+03 0.  0.
         25    1    3    3    0    0 -0.73501222331E+02  0.28591842437E+02  0.21629886519E+03  0.26201646956E+03  0.12509000000E+03 0.  0.
         25    1    4    4    0    0  0.71126550567E+02 -0.26001614109E+02  0.46460842199E+03  0.48707654841E+03  0.12509000000E+03 0.  0.
<mgrwt>
<rscale>  2 0.45732065E+03</rscale>
<asrwt>0</asrwt>
<pdfrwt beam="1">  1       21 0.18693532E+00 0.45732065E+03</pdfrwt>
<pdfrwt beam="2">  1       21 0.60488449E-02 0.45732065E+03</pdfrwt>
<totfact> 0.28246575E+04</totfact>
</mgrwt>
</event>
<event>
 7    0  0.4750554E-002  0.4577614E+03  0.7546771E-02  0.1025432E+00
         21   -1    0    0  502  501  0.00000000000E+00  0.00000000000E+00  0.58411221623E+03  0.58411221623E+03  0.00000000000E+00 0.  1.
         21   -1    0    0  501  502 -0.00000000000E+00 -0.00000000000E+00 -0.89685451874E+02  0.89685451874E+02  0.00000000000E+00 0.  1.
      99926    2    1    2    0    0  0.00000000000E+00 -0.17763568394E-14  0.49442676435E+03  0.67379766810E+03  0.45776137040E+03 0.  0.
      99925    2    3    3    0    0 -0.10306608366E+03  0.12282052055E+02  0.23474756742E+03  0.36744124199E+03  0.26293189136E+03 0.  0.
         25    1    4    4    0    0 -0.43328955208E+02  0.22629631271E+02  0.68585461265E+02  0.15080110135E+03  0.12509000000E+03 0.  0.
         25    1    3    3    0    0  0.10306608366E+03 -0.12282052055E+02  0.25967919693E+03  0.30635642611E+03  0.12509000000E+03 0.  0.
         25    1    4    4    0    0 -0.59737128456E+02 -0.10347579216E+02  0.16616210616E+03  0.21664014064E+03  0.12509000000E+03 0.  0.
<mgrwt>
<rscale>  2 0.45776137E+03</rscale>
<asrwt>0</asrwt>
<pdfrwt beam="1">  1       21 0.85898853E-01 0.45776137E+03</pdfrwt>
<pdfrwt beam="2">  1       21 0.13189037E-01 0.45776137E+03</pdfrwt>
<totfact> 0.53182075E+04</totfact>
</mgrwt>
</event>
<event>
 7    0  0.4750554E-002  0.4534797E+03  0.7546771E-02  0.1026689E+00
         21   -1    0    0  502  501  0.00000000000E+00  0.00000000000E+00  0.34391519044E+03  0.34391519044E+03  0.00000000000E+00 0. -1.
         21   -1    0    0  501  502 -0.00000000000E+00 -0.00000000000E+00 -0.14948730496E+03  0.14948730496E+03  0.00000000000E+00 0. -1.
      99926    2    1    2    0    0  0.14210854715E-13  0.88817841970E-15  0.19442788548E+03  0.49340249541E+03  0.45347967961E+03 0.  0.
      99925    2    3    3    0    0 -0.10365575485E+03  0.19182305133E+01  0.16781339262E+03  0.32876946576E+03  0.26302059187E+03 0.  0.
         25    1    3    3    0    0  0.10365575485E+03 -0.19182305133E+01  0.26614492854E+02  0.16463302965E+03  0.12509000000E+03 0.  0.
         25    1    4    4    0    0 -0.15149658630E+02 -0.20278692437E+02  0.82802078995E+02  0.15213293499E+03  0.12509000000E+03 0.  0.
         25    1    4    4    0    0 -0.88506096219E+02  0.22196922950E+02  0.85011313629E+02  0.17663653077E+03  0.12509000000E+03 0.  0.
<mgrwt>
<rscale>  2 0.45347968E+03</rscale>
<asrwt>0</asrwt>
<pdfrwt beam="1">  1       21 0.50575763E-01 0.45347968E+03</pdfrwt>
<pdfrwt beam="2">  1       21 0.21983427E-01 0.45347968E+03</pdfrwt>
<totfact> 0.66536098E+04</totfact>
</mgrwt>
</event>
<event>
 7    0  0.4750554E-002  0.4329443E+03  0.7546771E-02  0.1032934E+00
         21   -1    0    0  502  501  0.00000000000E+00  0.00000000000E+00  0.10246577031E+04  0.10246577031E+04  0.00000000000E+00 0.  1.
         21   -1    0    0  501  502 -0.00000000000E+00 -0.00000000000E+00 -0.45732524847E+02  0.45732524847E+02  0.00000000000E+00 0.  1.
      99926    2    1    2    0    0  0.35527136788E-14  0.00000000000E+00  0.97892517822E+03  0.10703902279E+04  0.43294426369E+03 0.  0.
      99925    2    3    3    0    0  0.20587376453E+02 -0.12055206283E+02  0.84563981370E+03  0.88604906441E+03  0.26345223847E+03 0.  0.
         25    1    4    4    0    0  0.49499735187E+02 -0.36205504870E+01  0.47589667908E+03  0.49455888369E+03  0.12509000000E+03 0.  0.
         25    1    3    3    0    0 -0.20587376453E+02  0.12055206283E+02  0.13328536452E+03  0.18434116351E+03  0.12509000000E+03 0.  0.
         25    1    4    4    0    0 -0.28912358735E+02 -0.84346557962E+01  0.36974313462E+03  0.39149018072E+03  0.12509000000E+03 0.  0.
<mgrwt>
<rscale>  2 0.43294426E+03</rscale>
<asrwt>0</asrwt>
<pdfrwt beam="1">  1       21 0.15068494E+00 0.43294426E+03</pdfrwt>
<pdfrwt beam="2">  1       21 0.67253720E-02 0.43294426E+03</pdfrwt>
<totfact> 0.43567123E+04</totfact>
</mgrwt>
</event>
<event>
 7    0  0.4750554E-002  0.4608084E+03  0.7546771E-02  0.1024547E+00
         21   -1    0    0  502  501  0.00000000000E+00  0.00000000000E+00  0.13965674873E+04  0.13965674873E+04  0.00000000000E+00 0.  1.
         21   -1    0    0  501  502 -0.00000000000E+00 -0.00000000000E+00 -0.38011840521E+02  0.38011840521E+02  0.00000000000E+00 0.  1.
      99926    2    1    2    0    0  0.00000000000E+00  0.00000000000E+00  0.13585556468E+04  0.14345793278E+04  0.46080842268E+03 0.  0.
      99925    2    3    3    0    0 -0.29501684121E+02  0.11167108805E+03  0.76078575767E+03  0.81303517838E+03  0.26246990484E+03 0.  0.
         25    1    3    3    0    0  0.29501684121E+02 -0.11167108805E+03  0.59776988910E+03  0.62154414942E+03  0.12509000000E+03 0.  0.
         25    1    4    4    0    0  0.16981828962E+02  0.71255461495E+02  0.33554693104E+03  0.36552014218E+03  0.12509000000E+03 0.  0.
         25    1    4    4    0    0 -0.46483513083E+02  0.40415626552E+02  0.42523882662E+03  0.44751503620E+03  0.12509000000E+03 0.  0.
<mgrwt>
<rscale>  2 0.46080842E+03</rscale>
<asrwt>0</asrwt>
<pdfrwt beam="1">  1       21 0.20537754E+00 0.46080842E+03</pdfrwt>
<pdfrwt beam="2">  1       21 0.55899775E-02 0.46080842E+03</pdfrwt>
<totfact> 0.24309191E+04</totfact>
</mgrwt>
</event>
<event>
 7    0  0.4750554E-002  0.4556090E+03  0.7546771E-02  0.1026062E+00
         21   -1    0    0  502  501  0.00000000000E+00  0.00000000000E+00  0.79737496017E+02  0.79737496017E+02  0.00000000000E+00 0.  1.
         21   -1    0    0  501  502 -0.00000000000E+00 -0.00000000000E+00 -0.65082164800E+03  0.65082164800E+03  0.00000000000E+00 0.  1.
      99926    2    1    2    0    0  0.71054273576E-14  0.00000000000E+00 -0.57108415198E+03  0.73055914402E+03  0.45560899274E+03 0.  0.
      99925    2    3    3    0    0 -0.38482169244E+02 -0.38698995518E+02 -0.19947500687E+03  0.33468119005E+03  0.26314013568E+03 0.  0.
         25    1    3    3    0    0  0.38482169244E+02  0.38698995518E+02 -0.37160914512E+03  0.39587795397E+03  0.12509000000E+03 0.  0.
         25    1    4    4    0    0 -0.12732315934E+02 -0.57595406373E+02 -0.86471938719E+02  0.16310808377E+03  0.12509000000E+03 0.  0.
         25    1    4    4    0    0 -0.25749853310E+02  0.18896410855E+02 -0.11300306815E+03  0.17157310628E+03  0.12509000000E+03 0.  0.
<mgrwt>
<rscale>  2 0.45560899E+03</rscale>
<asrwt>0</asrwt>
<pdfrwt beam="1">  1       21 0.11726103E-01 0.45560899E+03</pdfrwt>
<pdfrwt beam="2">  1       21 0.95709065E-01 0.45560899E+03</pdfrwt>
<totfact> 0.51030225E+04</totfact>
</mgrwt>
</event>
<event>
 7    0  0.4750554E-002  0.4436013E+03  0.7546771E-02  0.1029648E+00
         21   -1    0    0  502  501  0.00000000000E+00  0.00000000000E+00  0.31691289068E+02  0.31691289068E+02  0.00000000000E+00 0. -1.
         21   -1    0    0  501  502 -0.00000000000E+00 -0.00000000000E+00 -0.15523358723E+04  0.15523358723E+04  0.00000000000E+00 0. -1.
      99926    2    1    2    0    0  0.35527136788E-14  0.00000000000E+00 -0.15206445832E+04  0.15840271614E+04  0.44360128430E+03 0.  0.
      99925    2    3    3    0    0  0.17171484476E+02  0.21230920540E+02 -0.61509103253E+03  0.66946696479E+03  0.26287530654E+03 0.  0.
         25    1    4    4    0    0 -0.76924956210E+01 -0.17597319981E+02 -0.23888601708E+03  0.27033844975E+03  0.12509000000E+03 0.  0.
         25    1    4    4    0    0  0.24863980097E+02  0.38828240521E+02 -0.37620501545E+03  0.39912851504E+03  0.12509000000E+03 0.  0.
         25    1    3    3    0    0 -0.17171484476E+02 -0.21230920540E+02 -0.90555355070E+03  0.91456019657E+03  0.12509000000E+03 0.  0.
<mgrwt>
<rscale>  2 0.44360128E+03</rscale>
<asrwt>0</asrwt>
<pdfrwt beam="1">  1       21 0.46604832E-02 0.44360128E+03</pdfrwt>
<pdfrwt beam="2">  1       21 0.22828471E+00 0.44360128E+03</pdfrwt>
<totfact> 0.23833810E+04</totfact>
</mgrwt>
</event>
<event>
 7    0  0.4750554E-002  0.4543305E+03  0.7546771E-02  0.1026438E+00
         21   -1    0    0  502  501  0.00000000000E+00  0.00000000000E+00  0.34183930905E+03  0.34183930905E+03  0.00000000000E+00 0.  1.
         21   -1    0    0  501  502 -0.00000000000E+00 -0.00000000000E+00 -0.15095994588E+03  0.15095994588E+03  0.00000000000E+00 0.  1.
      99926    2    1    2    0    0 -0.14210854715E-13  0.13322676296E-14  0.19087936317E+03  0.49279925493E+03  0.45433046825E+03 0.  0.
      99925    2    3    3    0    0 -0.10827379615E+03  0.30059595561E+01  0.86575439217E+02  0.29720000295E+03  0.26286932942E+03 0.  0.
         25    1    4    4    0    0 -0.46178854558E+02  0.41133721609E+02  0.41785366810E+02  0.14566397853E+03  0.12509000000E+03 0.  0.
         25    1    3    3    0    0  0.10827379615E+03 -0.30059595561E+01  0.10430392395E+03  0.19559925199E+03  0.12509000000E+03 0.  0.
         25    1    4    4    0    0 -0.62094941592E+02 -0.38127762053E+02  0.44790072407E+02  0.15153602442E+03  0.12509000000E+03 0.  0.
<mgrwt>
<rscale>  2 0.45433047E+03</rscale>
<asrwt>0</asrwt>
<pdfrwt beam="1">  1       21 0.50270486E-01 0.45433047E+03</pdfrwt>
<pdfrwt beam="2">  1       21 0.22199992E-01 0.45433047E+03</pdfrwt>
<totfact> 0.66130344E+04</totfact>
</mgrwt>
</event>
<event>
 7    0  0.4750554E-002  0.4560287E+03  0.7546771E-02  0.1025939E+00
         21   -1    0    0  502  501  0.00000000000E+00  0.00000000000E+00  0.10215452025E+03  0.10215452025E+03  0.00000000000E+00 0.  1.
         21   -1    0    0  501  502 -0.00000000000E+00 -0.00000000000E+00 -0.50894026359E+03  0.50894026359E+03  0.00000000000E+00 0.  1.
      99926    2    1    2    0    0 -0.71054273576E-14  0.00000000000E+00 -0.40678574334E+03  0.61109478384E+03  0.45602872043E+03 0.  0.
      99925    2    3    3    0    0 -0.35873342952E+02  0.10576361469E+03 -0.22455088629E+03  0.36344606054E+03  0.26305341561E+03 0.  0.
         25    1    4    4    0    0 -0.18016912647E+02  0.92297565745E+02 -0.10130867562E+03  0.18642533530E+03  0.12509000000E+03 0.  0.
         25    1    3    3    0    0  0.35873342952E+02 -0.10576361469E+03 -0.18223485705E+03  0.24764872330E+03  0.12509000000E+03 0.  0.
         25    1    4    4    0    0 -0.17856430305E+02  0.13466048943E+02 -0.12324221066E+03  0.17702072525E+03  0.12509000000E+03 0.  0.
<mgrwt>
<rscale>  2 0.45602872E+03</rscale>
<asrwt>0</asrwt>
<pdfrwt beam="1">  1       21 0.15022723E-01 0.45602872E+03</pdfrwt>
<pdfrwt beam="2">  1       21 0.74844159E-01 0.45602872E+03</pdfrwt>
<totfact> 0.57531597E+04</totfact>
</mgrwt>
</event>
<event>
 7    0  0.4750554E-002  0.4428098E+03  0.7546771E-02  0.1029888E+00
         21   -1    0    0  502  501  0.00000000000E+00  0.00000000000E+00  0.80540649516E+03  0.80540649516E+03  0.00000000000E+00 0. -1.
         21   -1    0    0  501  502 -0.00000000000E+00 -0.00000000000E+00 -0.60863833259E+02  0.60863833259E+02  0.00000000000E+00 0. -1.
      99926    2    1    2    0    0  0.71054273576E-14  0.00000000000E+00  0.74454266190E+03  0.86627032842E+03  0.44280978592E+03 0.  0.
      99925    2    3    3    0    0 -0.56150478780E+02  0.63382459093E+02  0.58230856719E+03  0.64460025382E+03  0.26316536134E+03 0.  0.
         25    1    4    4    0    0  0.12825004136E+02  0.34543832328E+02  0.29051777550E+03  0.31844284113E+03  0.12509000000E+03 0.  0.
         25    1    4    4    0    0 -0.68975482917E+02  0.28838626765E+02  0.29179079169E+03  0.32615741269E+03  0.12509000000E+03 0.  0.
         25    1    3    3    0    0  0.56150478780E+02 -0.63382459093E+02  0.16223409471E+03  0.22167007460E+03  0.12509000000E+03 0.  0.
<mgrwt>
<rscale>  2 0.44280979E+03</rscale>
<asrwt>0</asrwt>
<pdfrwt beam="1">  1       21 0.11844213E+00 0.44280979E+03</pdfrwt>
<pdfrwt beam="2">  1       21 0.89505642E-02 0.44280979E+03</pdfrwt>
<totfact> 0.49262700E+04</totfact>
</mgrwt>
</event>
<event>
 7    0  0.4750554E-002  0.4423011E+03  0.7546771E-02  0.1030043E+00
         21   -1    0    0  502  501  0.00000000000E+00  0.00000000000E+00  0.84032809821E+02  0.84032809821E+02  0.00000000000E+00 0. -1.
         21   -1    0    0  501  502 -0.00000000000E+00 -0.00000000000E+00 -0.58200560712E+03  0.58200560712E+03  0.00000000000E+00 0. -1.
      99926    2    1    2    0    0 -0.14210854715E-13  0.00000000000E+00 -0.49797279730E+03  0.66603841694E+03  0.44230110331E+03 0.  0.
      99925    2    3    3    0    0  0.74765778598E+02  0.25169081653E+02 -0.22276644699E+03  0.35361330965E+03  0.26304767350E+03 0.  0.
         25    1    3    3    0    0 -0.74765778598E+02 -0.25169081653E+02 -0.27520635030E+03  0.31242510729E+03  0.12509000000E+03 0.  0.
         25    1    4    4    0    0  0.56590596455E+02 -0.78517860955E+01 -0.76001862271E+02  0.15712395527E+03  0.12509000000E+03 0.  0.
         25    1    4    4    0    0  0.18175182143E+02  0.33020867749E+02 -0.14676458472E+03  0.19648935437E+03  0.12509000000E+03 0.  0.
<mgrwt>
<rscale>  2 0.44230110E+03</rscale>
<asrwt>0</asrwt>
<pdfrwt beam="1">  1       21 0.12357766E-01 0.44230110E+03</pdfrwt>
<pdfrwt beam="2">  1       21 0.85589062E-01 0.44230110E+03</pdfrwt>
<totfact> 0.60628100E+04</totfact>
</mgrwt>
</event>
<event>
 7    0  0.4750554E-002  0.4499614E+03  0.7546771E-02  0.1027734E+00
         21   -1    0    0  502  501  0.00000000000E+00  0.00000000000E+00  0.42734197295E+03  0.42734197295E+03  0.00000000000E+00 0. -1.
         21   -1    0    0  501  502 -0.00000000000E+00 -0.00000000000E+00 -0.11844451719E+03  0.11844451719E+03  0.00000000000E+00 0. -1.
      99926    2    1    2    0    0  0.00000000000E+00 -0.71054273576E-14  0.30889745576E+03  0.54578649014E+03  0.44996139240E+03 0.  0.
      99925    2    3    3    0    0  0.83797264981E+02 -0.62636229013E+02  0.16079868370E+03  0.32550023731E+03  0.26296180142E+03 0.  0.
         25    1    4    4    0    0  0.13028443971E+02 -0.22739968276E+02  0.10783330933E+03  0.16721954793E+03  0.12509000000E+03 0.  0.
         25    1    4    4    0    0  0.70768821009E+02 -0.39896260737E+02  0.52965374378E+02  0.15828068938E+03  0.12509000000E+03 0.  0.
         25    1    3    3    0    0 -0.83797264981E+02  0.62636229013E+02  0.14809877205E+03  0.22028625283E+03  0.12509000000E+03 0.  0.
<mgrwt>
<rscale>  2 0.44996139E+03</rscale>
<asrwt>0</asrwt>
<pdfrwt beam="1">  1       21 0.62844407E-01 0.44996139E+03</pdfrwt>
<pdfrwt beam="2">  1       21 0.17418311E-01 0.44996139E+03</pdfrwt>
<totfact> 0.64686464E+04</totfact>
</mgrwt>
</event>
<event>
 7    0  0.4750554E-002  0.4843107E+03  0.7546771E-02  0.1017957E+00
         21   -1    0    0  502  501  0.00000000000E+00  0.00000000000E+00  0.33953392738E+02  0.33953392738E+02  0.00000000000E+00 0. -1.
         21   -1    0    0  501  502 -0.00000000000E+00 -0.00000000000E+00 -0.17270504477E+04  0.17270504477E+04  0.00000000000E+00 0. -1.
      99926    2    1    2    0    0  0.00000000000E+00 -0.14210854715E-13 -0.16930970550E+04  0.17610038404E+04  0.48431073550E+03 0.  0.
      99925    2    3    3    0    0  0.24910740027E+02  0.11066843890E+03 -0.13309110042E+04  0.13613861584E+04  0.26302114521E+03 0.  0.
         25    1    4    4    0    0  0.47833952369E+02  0.77883395081E+02 -0.74464574884E+03  0.76059102650E+03  0.12509000000E+03 0.  0.
         25    1    4    4    0    0 -0.22923212342E+02  0.32785043815E+02 -0.58626525536E+03  0.60079513189E+03  0.12509000000E+03 0.  0.
         25    1    3    3    0    0 -0.24910740027E+02 -0.11066843890E+03 -0.36218605076E+03  0.39961768204E+03  0.12509000000E+03 0.  0.
<mgrwt>
<rscale>  2 0.48431074E+03</rscale>
<asrwt>0</asrwt>
<pdfrwt beam="1">  1       21 0.49931450E-02 0.48431074E+03</pdfrwt>
<pdfrwt beam="2">  1       21 0.25397806E+00 0.48431074E+03</pdfrwt>
<totfact> 0.14443967E+04</totfact>
</mgrwt>
</event>
<event>
 7    0  0.4750554E-002  0.4522239E+03  0.7546771E-02  0.1027061E+00
         21   -1    0    0  502  501  0.00000000000E+00  0.00000000000E+00  0.12637832082E+04  0.12637832082E+04  0.00000000000E+00 0. -1.
         21   -1    0    0  501  502 -0.00000000000E+00 -0.00000000000E+00 -0.40455217320E+02  0.40455217320E+02  0.00000000000E+00 0. -1.
      99926    2    1    2    0    0 -0.88817841970E-15  0.14210854715E-13  0.12233279908E+04  0.13042384255E+04  0.45222394599E+03 0.  0.
      99925    2    3    3    0    0 -0.71469627257E+01  0.10063989568E+03  0.90182047249E+03  0.94480267304E+03  0.26304459450E+03 0.  0.
         25    1    3    3    0    0  0.71469627257E+01 -0.10063989568E+03  0.32150751836E+03  0.35943575245E+03  0.12509000000E+03 0.  0.
         25    1    4    4    0    0  0.61085165811E+01  0.70645986947E+02  0.35753766428E+03  0.38536847163E+03  0.12509000000E+03 0.  0.
         25    1    4    4    0    0 -0.13255479307E+02  0.29993908733E+02  0.54428280821E+03  0.55943420141E+03  0.12509000000E+03 0.  0.
<mgrwt>
<rscale>  2 0.45222395E+03</rscale>
<asrwt>0</asrwt>
<pdfrwt beam="1">  1       21 0.18585045E+00 0.45222395E+03</pdfrwt>
<pdfrwt beam="2">  1       21 0.59492975E-02 0.45222395E+03</pdfrwt>
<totfact> 0.29626296E+04</totfact>
</mgrwt>
</event>
<event>
 7    0  0.4750554E-002  0.4687468E+03  0.7546771E-02  0.1022275E+00
         21   -1    0    0  502  501  0.00000000000E+00  0.00000000000E+00  0.80289144107E+02  0.80289144107E+02  0.00000000000E+00 0. -1.
         21   -1    0    0  501  502 -0.00000000000E+00 -0.00000000000E+00 -0.68416332406E+03  0.68416332406E+03  0.00000000000E+00 0. -1.
      99926    2    1    2    0    0  0.00000000000E+00  0.00000000000E+00 -0.60387417995E+03  0.76445246816E+03  0.46874678758E+03 0.  0.
      99925    2    3    3    0    0  0.35798633423E+02 -0.29751463853E+02 -0.56543524407E+03  0.62555771791E+03  0.26351233641E+03 0.  0.
         25    1    4    4    0    0  0.49484935785E+02 -0.39128745065E+02 -0.26648670686E+03  0.30106891337E+03  0.12509000000E+03 0.  0.
         25    1    4    4    0    0 -0.13686302363E+02  0.93772812125E+01 -0.29894853721E+03  0.32448880454E+03  0.12509000000E+03 0.  0.
         25    1    3    3    0    0 -0.35798633423E+02  0.29751463853E+02 -0.38438935876E+02  0.13889475025E+03  0.12509000000E+03 0.  0.
<mgrwt>
<rscale>  2 0.46874679E+03</rscale>
<asrwt>0</asrwt>
<pdfrwt beam="1">  1       21 0.11807227E-01 0.46874679E+03</pdfrwt>
<pdfrwt beam="2">  1       21 0.10061225E+00 0.46874679E+03</pdfrwt>
<totfact> 0.44528434E+04</totfact>
</mgrwt>
</event>
<event>
 7    0  0.4750554E-002  0.4631125E+03  0.7546771E-02  0.1023882E+00
         21   -1    0    0  502  501  0.00000000000E+00  0.00000000000E+00  0.15315962704E+02  0.15315962704E+02  0.00000000000E+00 0. -1.
         21   -1    0    0  501  502 -0.00000000000E+00 -0.00000000000E+00 -0.35008113569E+04  0.35008113569E+04  0.00000000000E+00 0. -1.
      99926    2    1    2    0    0  0.14210854715E-13 -0.35527136788E-14 -0.34854953942E+04  0.35161273196E+04  0.46311249681E+03 0.  0.
      99925    2    3    3    0    0  0.11579422263E+03 -0.30894592175E+02 -0.22819315830E+04  0.23001601599E+04  0.26298713611E+03 0.  0.
         25    1    3    3    0    0 -0.11579422263E+03  0.30894592175E+02 -0.12035638112E+04  0.12159671597E+04  0.12509000000E+03 0.  0.
         25    1    4    4    0    0  0.27417132695E+02 -0.10820327527E+02 -0.80804219089E+03  0.81819830665E+03  0.12509000000E+03 0.  0.
         25    1    4    4    0    0  0.88377089936E+02 -0.20074264648E+02 -0.14738893921E+04  0.14819618532E+04  0.12509000000E+03 0.  0.
<mgrwt>
<rscale>  2 0.46311250E+03</rscale>
<asrwt>0</asrwt>
<pdfrwt beam="1">  1       21 0.22523466E-02 0.46311250E+03</pdfrwt>
<pdfrwt beam="2">  1       21 0.51482539E+00 0.46311250E+03</pdfrwt>
<totfact> 0.11721256E+03</totfact>
</mgrwt>
</event>
<event>
 7    0  0.4750554E-002  0.4614743E+03  0.7546771E-02  0.1024354E+00
         21   -1    0    0  502  501  0.00000000000E+00  0.00000000000E+00  0.63717507740E+02  0.63717507740E+02  0.00000000000E+00 0.  1.
         21   -1    0    0  501  502 -0.00000000000E+00 -0.00000000000E+00 -0.83555740048E+03  0.83555740048E+03  0.00000000000E+00 0.  1.
      99926    2    1    2    0    0  0.00000000000E+00  0.00000000000E+00 -0.77183989274E+03  0.89927490822E+03  0.46147431189E+03 0.  0.
      99925    2    3    3    0    0  0.64834404197E+02 -0.19642828080E+02 -0.67386654859E+03  0.72654498920E+03  0.26302500899E+03 0.  0.
         25    1    3    3    0    0 -0.64834404197E+02  0.19642828080E+02 -0.97973344151E+02  0.17272991903E+03  0.12509000000E+03 0.  0.
         25    1    4    4    0    0  0.36046335086E+02 -0.26192224459E+01 -0.44422259197E+03  0.46291189002E+03  0.12509000000E+03 0.  0.
         25    1    4    4    0    0  0.28788069110E+02 -0.17023605634E+02 -0.22964395662E+03  0.26363309918E+03  0.12509000000E+03 0.  0.
<mgrwt>
<rscale>  2 0.46147431E+03</rscale>
<asrwt>0</asrwt>
<pdfrwt beam="1">  1       21 0.93702227E-02 0.46147431E+03</pdfrwt>
<pdfrwt beam="2">  1       21 0.12287608E+00 0.46147431E+03</pdfrwt>
<totfact> 0.41139640E+04</totfact>
</mgrwt>
</event>
<event>
 7    0  0.4750554E-002  0.4566554E+03  0.7546771E-02  0.1025756E+00
         21   -1    0    0  502  501  0.00000000000E+00  0.00000000000E+00  0.31809897282E+03  0.31809897282E+03  0.00000000000E+00 0. -1.
         21   -1    0    0  501  502 -0.00000000000E+00 -0.00000000000E+00 -0.16389094137E+03  0.16389094137E+03  0.00000000000E+00 0. -1.
      99926    2    1    2    0    0  0.00000000000E+00  0.00000000000E+00  0.15420803145E+03  0.48198991419E+03  0.45665540665E+03 0.  0.
      99925    2    3    3    0    0  0.79754834622E+02  0.81817342625E+02  0.86360096312E+02  0.29949125228E+03  0.26302477593E+03 0.  0.
         25    1    4    4    0    0  0.20382627074E+02  0.73035277085E+01  0.58583294067E+02  0.13981524755E+03  0.12509000000E+03 0.  0.
         25    1    3    3    0    0 -0.79754834622E+02 -0.81817342625E+02  0.67847935137E+02  0.18249866192E+03  0.12509000000E+03 0.  0.
         25    1    4    4    0    0  0.59372207548E+02  0.74513814917E+02  0.27776802244E+02  0.15967600473E+03  0.12509000000E+03 0.  0.
<mgrwt>
<rscale>  2 0.45665541E+03</rscale>
<asrwt>0</asrwt>
<pdfrwt beam="1">  1       21 0.46779261E-01 0.45665541E+03</pdfrwt>
<pdfrwt beam="2">  1       21 0.24101609E-01 0.45665541E+03</pdfrwt>
<totfact> 0.65688131E+04</totfact>
</mgrwt>
</event>
<event>
 7    0  0.4750554E-002  0.4522198E+03  0.7546771E-02  0.1027062E+00
         21   -1    0    0  502  501  0.00000000000E+00  0.00000000000E+00  0.98356361779E+03  0.98356361779E+03  0.00000000000E+00 0. -1.
         21   -1    0    0  501  502 -0.00000000000E+00 -0.00000000000E+00 -0.51980058955E+02  0.51980058955E+02  0.00000000000E+00 0. -1.
      99926    2    1    2    0    0  0.35527136788E-14  0.00000000000E+00  0.93158355883E+03  0.10355436767E+04  0.45221983521E+03 0.  0.
      99925    2    3    3    0    0  0.70164259323E+01 -0.51614378177E+02  0.36425904296E+03  0.45226167918E+03  0.26294999869E+03 0.  0.
         25    1    4    4    0    0 -0.33694987141E+02 -0.11826454879E+02  0.19147089133E+03  0.23148180818E+03  0.12509000000E+03 0.  0.
         25    1    3    3    0    0 -0.70164259323E+01  0.51614378177E+02  0.56732451587E+03  0.58328199756E+03  0.12509000000E+03 0.  0.
         25    1    4    4    0    0  0.40711413073E+02 -0.39787923298E+02  0.17278815163E+03  0.22077987100E+03  0.12509000000E+03 0.  0.
<mgrwt>
<rscale>  2 0.45221984E+03</rscale>
<asrwt>0</asrwt>
<pdfrwt beam="1">  1       21 0.14464170E+00 0.45221984E+03</pdfrwt>
<pdfrwt beam="2">  1       21 0.76441269E-02 0.45221984E+03</pdfrwt>
<totfact> 0.38644271E+04</totfact>
</mgrwt>
</event>
<event>
 7    0  0.4750554E-002  0.4583017E+03  0.7546771E-02  0.1025275E+00
         21   -1    0    0  502  501  0.00000000000E+00  0.00000000000E+00  0.34330370865E+03  0.34330370865E+03  0.00000000000E+00 0. -1.
         21   -1    0    0  501  502 -0.00000000000E+00 -0.00000000000E+00 -0.15295529943E+03  0.15295529943E+03  0.00000000000E+00 0. -1.
      99926    2    1    2    0    0  0.00000000000E+00  0.00000000000E+00  0.19034840922E+03  0.49625900808E+03  0.45830174144E+03 0.  0.
      99925    2    3    3    0    0  0.83130230273E+02 -0.48813191743E+02  0.18977957920E+03  0.33833119375E+03  0.26297974277E+03 0.  0.
         25    1    4    4    0    0  0.82612652897E+02 -0.19130086753E+02  0.11157632479E+03  0.18784992678E+03  0.12509000000E+03 0.  0.
         25    1    3    3    0    0 -0.83130230273E+02  0.48813191743E+02  0.56883002747E+00  0.15792781434E+03  0.12509000000E+03 0.  0.
         25    1    4    4    0    0  0.51757737655E+00 -0.29683104990E+02  0.78203254408E+02  0.15048126697E+03  0.12509000000E+03 0.  0.
<mgrwt>
<rscale>  2 0.45830174E+03</rscale>
<asrwt>0</asrwt>
<pdfrwt beam="1">  1       21 0.50485839E-01 0.45830174E+03</pdfrwt>
<pdfrwt beam="2">  1       21 0.22493426E-01 0.45830174E+03</pdfrwt>
<totfact> 0.63844368E+04</totfact>
</mgrwt>
</event>
<event>
 7    0  0.4750554E-002  0.4509831E+03  0.7546771E-02  0.1027429E+00
         21   -1    0    0  502  501  0.00000000000E+00  0.00000000000E+00  0.10187548948E+03  0.10187548948E+03  0.00000000000E+00 0.  1.
         21   -1    0    0  501  502 -0.00000000000E+00 -0.00000000000E+00 -0.49910378978E+03  0.49910378978E+03  0.00000000000E+00 0.  1.
      99926    2    1    2    0    0 -0.49960036108E-15 -0.14210854715E-13 -0.39722830030E+03  0.60097927927E+03  0.45098311670E+03 0.  0.
      99925    2    3    3    0    0  0.31445593151E+00  0.96495218466E+02 -0.31976139540E+03  0.42502458190E+03  0.26284428692E+03 0.  0.
         25    1    4    4    0    0 -0.22477001152E+02  0.43955259419E+02 -0.20841119367E+03  0.24803228450E+03  0.12509000000E+03 0.  0.
         25    1    3    3    0    0 -0.31445593151E+00 -0.96495218466E+02 -0.77466904903E+02  0.17595469736E+03  0.12509000000E+03 0.  0.
         25    1    4    4    0    0  0.22791457083E+02  0.52539959047E+02 -0.11135020173E+03  0.17699229740E+03  0.12509000000E+03 0.  0.
<mgrwt>
<rscale>  2 0.45098312E+03</rscale>
<asrwt>0</asrwt>
<pdfrwt beam="1">  1       21 0.14981690E-01 0.45098312E+03</pdfrwt>
<pdfrwt beam="2">  1       21 0.73397616E-01 0.45098312E+03</pdfrwt>
<totfact> 0.60515870E+04</totfact>
</mgrwt>
</event>
<event>
 7    0  0.4750554E-002  0.4574815E+03  0.7546771E-02  0.1025514E+00
         21   -1    0    0  502  501  0.00000000000E+00  0.00000000000E+00  0.22487757542E+04  0.22487757542E+04  0.00000000000E+00 0.  1.
         21   -1    0    0  501  502 -0.00000000000E+00 -0.00000000000E+00 -0.23267031444E+02  0.23267031444E+02  0.00000000000E+00 0.  1.
      99926    2    1    2    0    0  0.00000000000E+00  0.00000000000E+00  0.22255087228E+04  0.22720427856E+04  0.45748152393E+03 0.  0.
      99925    2    3    3    0    0  0.45478602151E+02 -0.10359460704E+03  0.12814399927E+04  0.13130258822E+04  0.26296077018E+03 0.  0.
         25    1    3    3    0    0 -0.45478602151E+02  0.10359460704E+03  0.94406873005E+03  0.95901690340E+03  0.12509000000E+03 0.  0.
         25    1    4    4    0    0 -0.96584377842E+01 -0.43455391553E+02  0.49303348514E+03  0.51059884650E+03  0.12509000000E+03 0.  0.
         25    1    4    4    0    0  0.55137039935E+02 -0.60139215491E+02  0.78840650757E+03  0.80242703575E+03  0.12509000000E+03 0.  0.
<mgrwt>
<rscale>  2 0.45748152E+03</rscale>
<asrwt>0</asrwt>
<pdfrwt beam="1">  1       21 0.33070217E+00 0.45748152E+03</pdfrwt>
<pdfrwt beam="2">  1       21 0.34216238E-02 0.45748152E+03</pdfrwt>
<totfact> 0.95690861E+03</totfact>
</mgrwt>
</event>
<event>
 7    0  0.4750554E-002  0.4575630E+03  0.7546771E-02  0.1025490E+00
         21   -1    0    0  502  501  0.00000000000E+00  0.00000000000E+00  0.26796285002E+03  0.26796285002E+03  0.00000000000E+00 0.  1.
         21   -1    0    0  501  502 -0.00000000000E+00 -0.00000000000E+00 -0.19532921857E+03  0.19532921857E+03  0.00000000000E+00 0.  1.
      99926    2    1    2    0    0 -0.35527136788E-14  0.00000000000E+00  0.72633631453E+02  0.46329206858E+03  0.45756299719E+03 0.  0.
      99925    2    3    3    0    0  0.27926492051E+02  0.29581960942E+02 -0.63781319958E+02  0.27378869542E+03  0.26312964788E+03 0.  0.
         25    1    4    4    0    0 -0.15182897881E+02  0.24084088255E+02 -0.36221314585E+01  0.12834014037E+03  0.12509000000E+03 0.  0.
         25    1    3    3    0    0 -0.27926492051E+02 -0.29581960942E+02  0.13641495141E+03  0.18950337316E+03  0.12509000000E+03 0.  0.
         25    1    4    4    0    0  0.43109389933E+02  0.54978726872E+01 -0.60159188499E+02  0.14544855505E+03  0.12509000000E+03 0.  0.
<mgrwt>
<rscale>  2 0.45756300E+03</rscale>
<asrwt>0</asrwt>
<pdfrwt beam="1">  1       21 0.39406302E-01 0.45756300E+03</pdfrwt>
<pdfrwt beam="2">  1       21 0.28724885E-01 0.45756300E+03</pdfrwt>
<totfact> 0.66570227E+04</totfact>
</mgrwt>
</event>
<event>
 7    0  0.4750554E-002  0.4545362E+03  0.7546771E-02  0.1026378E+00
         21   -1    0    0  502  501  0.00000000000E+00  0.00000000000E+00  0.16190727489E+03  0.16190727489E+03  0.00000000000E+00 0. -1.
         21   -1    0    0  501  502 -0.00000000000E+00 -0.00000000000E+00 -0.31901468524E+03  0.31901468524E+03  0.00000000000E+00 0. -1.
      99926    2    1    2    0    0  0.22204460493E-15  0.00000000000E+00 -0.15710741035E+03  0.48092196013E+03  0.45453623986E+03 0.  0.
      99925    2    3    3    0    0  0.17522167289E+01 -0.10325670461E+03 -0.50998182255E+02  0.28708776888E+03  0.26297063550E+03 0.  0.
         25    1    3    3    0    0 -0.17522167289E+01  0.10325670461E+03 -0.10610922810E+03  0.19383419125E+03  0.12509000000E+03 0.  0.
         25    1    4    4    0    0 -0.29697679059E+02 -0.68247851037E+02 -0.46596942226E+01  0.14563290206E+03  0.12509000000E+03 0.  0.
         25    1    4    4    0    0  0.31449895788E+02 -0.35008853575E+02 -0.46338488033E+02  0.14145486682E+03  0.12509000000E+03 0.  0.
<mgrwt>
<rscale>  2 0.45453624E+03</rscale>
<asrwt>0</asrwt>
<pdfrwt beam="1">  1       21 0.23809893E-01 0.45453624E+03</pdfrwt>
<pdfrwt beam="2">  1       21 0.46913924E-01 0.45453624E+03</pdfrwt>
<totfact> 0.66878904E+04</totfact>
</mgrwt>
</event>
<event>
 7    0  0.4750554E-002  0.4374614E+03  0.7546771E-02  0.1031529E+00
         21   -1    0    0  502  501  0.00000000000E+00  0.00000000000E+00  0.36738572613E+03  0.36738572613E+03  0.00000000000E+00 0. -1.
         21   -1    0    0  501  502 -0.00000000000E+00 -0.00000000000E+00 -0.13022588156E+03  0.13022588156E+03  0.00000000000E+00 0. -1.
      99926    2    1    2    0    0 -0.71054273576E-14  0.00000000000E+00  0.23715984457E+03  0.49761160769E+03  0.43746145000E+03 0.  0.
      99925    2    3    3    0    0 -0.37097160734E+02  0.24832697471E+01  0.25205114763E+03  0.36626616632E+03  0.26313258560E+03 0.  0.
         25    1    4    4    0    0 -0.54571501683E+02  0.94689283150E+01  0.10610123393E+03  0.17312622372E+03  0.12509000000E+03 0.  0.
         25    1    3    3    0    0  0.37097160734E+02 -0.24832697471E+01 -0.14891303056E+02  0.13134544137E+03  0.12509000000E+03 0.  0.
         25    1    4    4    0    0  0.17474340950E+02 -0.69856585679E+01  0.14594991370E+03  0.19313994260E+03  0.12509000000E+03 0.  0.
<mgrwt>
<rscale>  2 0.43746145E+03</rscale>
<asrwt>0</asrwt>
<pdfrwt beam="1">  1       21 0.54027313E-01 0.43746145E+03</pdfrwt>
<pdfrwt beam="2">  1       21 0.19150865E-01 0.43746145E+03</pdfrwt>
<totfact> 0.75400256E+04</totfact>
</mgrwt>
</event>
<event>
 7    0  0.4750554E-002  0.4591569E+03  0.7546771E-02  0.1025026E+00
         21   -1    0    0  502  501  0.00000000000E+00  0.00000000000E+00  0.30224831034E+04  0.30224831034E+04  0.00000000000E+00 0. -1.
         21   -1    0    0  501  502 -0.00000000000E+00 -0.00000000000E+00 -0.17438065690E+02  0.17438065690E+02  0.00000000000E+00 0. -1.
      99926    2    1    2    0    0  0.00000000000E+00  0.00000000000E+00  0.30050450377E+04  0.30399211691E+04  0.45915687474E+03 0.  0.
      99925    2    3    3    0    0 -0.53355457032E+02  0.42701403199E+02  0.12572041805E+04  0.12862777090E+04  0.26320672248E+03 0.  0.
         25    1    4    4    0    0 -0.28999852741E+01  0.28601330650E+02  0.76676407897E+03  0.77743238094E+03  0.12509000000E+03 0.  0.
         25    1    4    4    0    0 -0.50455471757E+02  0.14100072549E+02  0.49044010149E+03  0.50884532810E+03  0.12509000000E+03 0.  0.
         25    1    3    3    0    0  0.53355457032E+02 -0.42701403199E+02  0.17478408572E+04  0.17536434600E+04  0.12509000000E+03 0.  0.
<mgrwt>
<rscale>  2 0.45915687E+03</rscale>
<asrwt>0</asrwt>
<pdfrwt beam="1">  1       21 0.44448245E+00 0.45915687E+03</pdfrwt>
<pdfrwt beam="2">  1       21 0.25644235E-02 0.45915687E+03</pdfrwt>
<totfact> 0.29352217E+03</totfact>
</mgrwt>
</event>
<event>
 7    0  0.4750554E-002  0.4573042E+03  0.7546771E-02  0.1025566E+00
         21   -1    0    0  502  501  0.00000000000E+00  0.00000000000E+00  0.62766152836E+02  0.62766152836E+02  0.00000000000E+00 0. -1.
         21   -1    0    0  501  502 -0.00000000000E+00 -0.00000000000E+00 -0.83296155760E+03  0.83296155760E+03  0.00000000000E+00 0. -1.
      99926    2    1    2    0    0  0.00000000000E+00  0.00000000000E+00 -0.77019540476E+03  0.89572771043E+03  0.45730424197E+03 0.  0.
      99925    2    3    3    0    0 -0.10323738043E+03  0.51195051768E+02 -0.47911648966E+03  0.55860261057E+03  0.26306914648E+03 0.  0.
         25    1    4    4    0    0 -0.27024683652E+02  0.49662973710E+02 -0.27504416513E+03  0.30739802432E+03  0.12509000000E+03 0.  0.
         25    1    3    3    0    0  0.10323738043E+03 -0.51195051768E+02 -0.29107891510E+03  0.33712509986E+03  0.12509000000E+03 0.  0.
         25    1    4    4    0    0 -0.76212696774E+02  0.15320780583E+01 -0.20407232453E+03  0.25120458625E+03  0.12509000000E+03 0.  0.
<mgrwt>
<rscale>  2 0.45730424E+03</rscale>
<asrwt>0</asrwt>
<pdfrwt beam="1">  1       21 0.92303174E-02 0.45730424E+03</pdfrwt>
<pdfrwt beam="2">  1       21 0.12249434E+00 0.45730424E+03</pdfrwt>
<totfact> 0.42644302E+04</totfact>
</mgrwt>
</event>
<event>
 7    0  0.4750554E-002  0.4671548E+03  0.7546771E-02  0.1022726E+00
         21   -1    0    0  502  501  0.00000000000E+00  0.00000000000E+00  0.78194612015E+02  0.78194612015E+02  0.00000000000E+00 0.  1.
         21   -1    0    0  501  502 -0.00000000000E+00 -0.00000000000E+00 -0.69772589722E+03  0.69772589722E+03  0.00000000000E+00 0.  1.
      99926    2    1    2    0    0  0.00000000000E+00  0.00000000000E+00 -0.61953128520E+03  0.77592050923E+03  0.46715481727E+03 0.  0.
      99925    2    3    3    0    0 -0.72546859474E+02  0.94960935983E+02 -0.44213017689E+03  0.52813171305E+03  0.26298932836E+03 0.  0.
         25    1    3    3    0    0  0.72546859474E+02 -0.94960935983E+02 -0.17740110831E+03  0.24778879618E+03  0.12509000000E+03 0.  0.
         25    1    4    4    0    0 -0.15660933111E+02  0.25841435398E+02 -0.25714126775E+03  0.28754509958E+03  0.12509000000E+03 0.  0.
         25    1    4    4    0    0 -0.56885926363E+02  0.69119500584E+02 -0.18498890914E+03  0.24058661347E+03  0.12509000000E+03 0.  0.
<mgrwt>
<rscale>  2 0.46715482E+03</rscale>
<asrwt>0</asrwt>
<pdfrwt beam="1">  1       21 0.11499209E-01 0.46715482E+03</pdfrwt>
<pdfrwt beam="2">  1       21 0.10260674E+00 0.46715482E+03</pdfrwt>
<totfact> 0.44546917E+04</totfact>
</mgrwt>
</event>
<event>
 7    0  0.4750554E-002  0.4886117E+03  0.7546771E-02  0.1016795E+00
         21   -1    0    0  502  501  0.00000000000E+00  0.00000000000E+00  0.31221062314E+03  0.31221062314E+03  0.00000000000E+00 0.  1.
         21   -1    0    0  501  502 -0.00000000000E+00 -0.00000000000E+00 -0.19117013375E+03  0.19117013375E+03  0.00000000000E+00 0.  1.
      99926    2    1    2    0    0  0.00000000000E+00  0.00000000000E+00  0.12104048939E+03  0.50338075688E+03  0.48861169279E+03 0.  0.
      99925    2    3    3    0    0 -0.80789250072E+02  0.11534131494E+03  0.53358594217E+02  0.30323363876E+03  0.26319760303E+03 0.  0.
         25    1    3    3    0    0  0.80789250072E+02 -0.11534131494E+03  0.67681895174E+02  0.20014711812E+03  0.12509000000E+03 0.  0.
         25    1    4    4    0    0 -0.63484572774E+02  0.58504643287E+02 -0.70428251280E+01  0.15215187725E+03  0.12509000000E+03 0.  0.
         25    1    4    4    0    0 -0.17304677298E+02  0.56836671649E+02  0.60401419345E+02  0.15108176150E+03  0.12509000000E+03 0.  0.
<mgrwt>
<rscale>  2 0.48861169E+03</rscale>
<asrwt>0</asrwt>
<pdfrwt beam="1">  1       21 0.45913327E-01 0.48861169E+03</pdfrwt>
<pdfrwt beam="2">  1       21 0.28113255E-01 0.48861169E+03</pdfrwt>
<totfact> 0.50230544E+04</totfact>
</mgrwt>
</event>
<event>
 7    0  0.4750554E-002  0.4643229E+03  0.7546771E-02  0.1023535E+00
         21   -1    0    0  502  501  0.00000000000E+00  0.00000000000E+00  0.28639622605E+03  0.28639622605E+03  0.00000000000E+00 0. -1.
         21   -1    0    0  501  502 -0.00000000000E+00 -0.00000000000E+00 -0.18819708474E+03  0.18819708474E+03  0.00000000000E+00 0. -1.
      99926    2    1    2    0    0  0.00000000000E+00  0.14210854715E-13  0.98199141310E+02  0.47459331079E+03  0.46432288259E+03 0.  0.
      99925    2    3    3    0    0  0.34289236250E+02 -0.68445072207E+02  0.15798615853E+03  0.31621883318E+03  0.26300997042E+03 0.  0.
         25    1    4    4    0    0  0.28983738112E+01 -0.67009384239E+02  0.59337602944E+02  0.15384120830E+03  0.12509000000E+03 0.  0.
         25    1    3    3    0    0 -0.34289236250E+02  0.68445072207E+02 -0.59787017215E+02  0.15837447761E+03  0.12509000000E+03 0.  0.
         25    1    4    4    0    0  0.31390862439E+02 -0.14356879674E+01  0.98648555582E+02  0.16237762488E+03  0.12509000000E+03 0.  0.
<mgrwt>
<rscale>  2 0.46432288E+03</rscale>
<asrwt>0</asrwt>
<pdfrwt beam="1">  1       21 0.42117092E-01 0.46432288E+03</pdfrwt>
<pdfrwt beam="2">  1       21 0.27676042E-01 0.46432288E+03</pdfrwt>
<totfact> 0.62353456E+04</totfact>
</mgrwt>
</event>
<event>
 7    0  0.4750554E-002  0.4541770E+03  0.7546771E-02  0.1026484E+00
         21   -1    0    0  502  501  0.00000000000E+00  0.00000000000E+00  0.37603770053E+03  0.37603770053E+03  0.00000000000E+00 0.  1.
         21   -1    0    0  501  502 -0.00000000000E+00 -0.00000000000E+00 -0.13713834629E+03  0.13713834629E+03  0.00000000000E+00 0.  1.
      99926    2    1    2    0    0  0.00000000000E+00  0.00000000000E+00  0.23889935424E+03  0.51317604681E+03  0.45417700687E+03 0.  0.
      99925    2    3    3    0    0 -0.10562289656E+03  0.19559524437E+02  0.11341102126E+03  0.30597179713E+03  0.26309296764E+03 0.  0.
         25    1    4    4    0    0 -0.76094961997E+02  0.22919535274E+02  0.95134731223E+02  0.17610756237E+03  0.12509000000E+03 0.  0.
         25    1    4    4    0    0 -0.29527934563E+02 -0.33600108375E+01  0.18276290039E+02  0.12986423476E+03  0.12509000000E+03 0.  0.
         25    1    3    3    0    0  0.10562289656E+03 -0.19559524437E+02  0.12548833298E+03  0.20720424968E+03  0.12509000000E+03 0.  0.
<mgrwt>
<rscale>  2 0.45417701E+03</rscale>
<asrwt>0</asrwt>
<pdfrwt beam="1">  1       21 0.55299662E-01 0.45417701E+03</pdfrwt>
<pdfrwt beam="2">  1       21 0.20167404E-01 0.45417701E+03</pdfrwt>
<totfact> 0.64776578E+04</totfact>
</mgrwt>
</event>
<event>
 7    0  0.4750554E-002  0.4591640E+03  0.7546771E-02  0.1025024E+00
         21   -1    0    0  502  501  0.00000000000E+00  0.00000000000E+00  0.53803610186E+03  0.53803610186E+03  0.00000000000E+00 0.  1.
         21   -1    0    0  501  502 -0.00000000000E+00 -0.00000000000E+00 -0.97963510299E+02  0.97963510299E+02  0.00000000000E+00 0.  1.
      99926    2    1    2    0    0  0.00000000000E+00  0.00000000000E+00  0.44007259156E+03  0.63599961216E+03  0.45916404566E+03 0.  0.
      99925    2    3    3    0    0 -0.15111618624E+02  0.25353144036E+02  0.11917963146E+03  0.29032499221E+03  0.26308491713E+03 0.  0.
         25    1    4    4    0    0 -0.31817763611E+01  0.50785133821E+02  0.45764203675E+02  0.14258725033E+03  0.12509000000E+03 0.  0.
         25    1    3    3    0    0  0.15111618624E+02 -0.25353144036E+02  0.32089296011E+03  0.34567461995E+03  0.12509000000E+03 0.  0.
         25    1    4    4    0    0 -0.11929842263E+02 -0.25431989784E+02  0.73415427780E+02  0.14773774188E+03  0.12509000000E+03 0.  0.
<mgrwt>
<rscale>  2 0.45916405E+03</rscale>
<asrwt>0</asrwt>
<pdfrwt beam="1">  1       21 0.79122955E-01 0.45916405E+03</pdfrwt>
<pdfrwt beam="2">  1       21 0.14406399E-01 0.45916405E+03</pdfrwt>
<totfact> 0.54695437E+04</totfact>
</mgrwt>
</event>
<event>
 7    0  0.4750554E-002  0.4365497E+03  0.7546771E-02  0.1031811E+00
         21   -1    0    0  502  501  0.00000000000E+00  0.00000000000E+00  0.34079313791E+02  0.34079313791E+02  0.00000000000E+00 0. -1.
         21   -1    0    0  501  502 -0.00000000000E+00 -0.00000000000E+00 -0.13980304862E+04  0.13980304862E+04  0.00000000000E+00 0. -1.
      99926    2    1    2    0    0  0.00000000000E+00 -0.71054273576E-14 -0.13639511725E+04  0.14321098000E+04  0.43654974347E+03 0.  0.
      99925    2    3    3    0    0  0.80094252527E+02  0.37904886349E+02 -0.98415959063E+03  0.10225478103E+04  0.26302481796E+03 0.  0.
         25    1    4    4    0    0  0.71610197463E+02 -0.33045383989E+01 -0.56481229856E+03  0.58292313478E+03  0.12509000000E+03 0.  0.
         25    1    4    4    0    0  0.84840550644E+01  0.41209424748E+02 -0.41934729207E+03  0.43962467555E+03  0.12509000000E+03 0.  0.
         25    1    3    3    0    0 -0.80094252527E+02 -0.37904886349E+02 -0.37979158182E+03  0.40956198972E+03  0.12509000000E+03 0.  0.
<mgrwt>
<rscale>  2 0.43654974E+03</rscale>
<asrwt>0</asrwt>
<pdfrwt beam="1">  1       21 0.50116634E-02 0.43654974E+03</pdfrwt>
<pdfrwt beam="2">  1       21 0.20559273E+00 0.43654974E+03</pdfrwt>
<totfact> 0.29496291E+04</totfact>
</mgrwt>
</event>
<event>
 7    0  0.4750554E-002  0.4575259E+03  0.7546771E-02  0.1025501E+00
         21   -1    0    0  502  501  0.00000000000E+00  0.00000000000E+00  0.13692229673E+04  0.13692229673E+04  0.00000000000E+00 0.  1.
         21   -1    0    0  501  502 -0.00000000000E+00 -0.00000000000E+00 -0.38220579430E+02  0.38220579430E+02  0.00000000000E+00 0.  1.
      99926    2    1    2    0    0  0.00000000000E+00  0.00000000000E+00  0.13310023878E+04  0.14074435467E+04  0.45752593446E+03 0.  0.
      99925    2    3    3    0    0  0.38999068682E+01  0.11276099136E+03  0.76050588690E+03  0.81259565343E+03  0.26308219535E+03 0.  0.
         25    1    3    3    0    0 -0.38999068682E+01 -0.11276099136E+03  0.57049650093E+03  0.59484789326E+03  0.12509000000E+03 0.  0.
         25    1    4    4    0    0 -0.17018737740E+02  0.29497337520E+02  0.27682683189E+03  0.30568011599E+03  0.12509000000E+03 0.  0.
         25    1    4    4    0    0  0.20918644608E+02  0.83263653840E+02  0.48367905501E+03  0.50691553744E+03  0.12509000000E+03 0.  0.
<mgrwt>
<rscale>  2 0.45752593E+03</rscale>
<asrwt>0</asrwt>
<pdfrwt beam="1">  1       21 0.20135629E+00 0.45752593E+03</pdfrwt>
<pdfrwt beam="2">  1       21 0.56206744E-02 0.45752593E+03</pdfrwt>
<totfact> 0.25627583E+04</totfact>
</mgrwt>
</event>
<event>
 7    0  0.4750554E-002  0.4618912E+03  0.7546771E-02  0.1024234E+00
         21   -1    0    0  502  501  0.00000000000E+00  0.00000000000E+00  0.90404205415E+03  0.90404205415E+03  0.00000000000E+00 0. -1.
         21   -1    0    0  501  502 -0.00000000000E+00 -0.00000000000E+00 -0.58997101757E+02  0.58997101757E+02  0.00000000000E+00 0. -1.
      99926    2    1    2    0    0  0.00000000000E+00  0.00000000000E+00  0.84504495239E+03  0.96303915591E+03  0.46189116061E+03 0.  0.
      99925    2    3    3    0    0 -0.96095646793E+02  0.71040251312E+02  0.51709493887E+03  0.59225645660E+03  0.26286773088E+03 0.  0.
         25    1    4    4    0    0 -0.53087685132E+02  0.42614609223E+01  0.30051219538E+03  0.32983564094E+03  0.12509000000E+03 0.  0.
         25    1    4    4    0    0 -0.43007961661E+02  0.66778790389E+02  0.21658274349E+03  0.26242081565E+03  0.12509000000E+03 0.  0.
         25    1    3    3    0    0  0.96095646793E+02 -0.71040251312E+02  0.32795001353E+03  0.37078269931E+03  0.12509000000E+03 0.  0.
<mgrwt>
<rscale>  2 0.46189116E+03</rscale>
<asrwt>0</asrwt>
<pdfrwt beam="1">  1       21 0.13294735E+00 0.46189116E+03</pdfrwt>
<pdfrwt beam="2">  1       21 0.86760449E-02 0.46189116E+03</pdfrwt>
<totfact> 0.38500645E+04</totfact>
</mgrwt>
</event>
<event>
 7    0  0.4750554E-002  0.4802720E+03  0.7546771E-02  0.1019060E+00
         21   -1    0    0  502  501  0.00000000000E+00  0.00000000000E+00  0.11281922175E+03  0.11281922175E+03  0.00000000000E+00 0. -1.
         21   -1    0    0  501  502 -0.00000000000E+00 -0.00000000000E+00 -0.51113012535E+03  0.51113012535E+03  0.00000000000E+00 0. -1.
      99926    2    1    2    0    0  0.00000000000E+00 -0.35527136788E-14 -0.39831090359E+03  0.62394934710E+03  0.48027201858E+03 0.  0.
      99925    2    3    3    0    0 -0.24302115966E+02  0.16883817908E+02 -0.41728682014E+03  0.49401378747E+03  0.26276543875E+03 0.  0.
         25    1    3    3    0    0  0.24302115966E+02 -0.16883817908E+02  0.18975916546E+02  0.12993555963E+03  0.12509000000E+03 0.  0.
         25    1    4    4    0    0 -0.26984154192E+01  0.15882734586E+02 -0.13640844815E+03  0.18578028833E+03  0.12509000000E+03 0.  0.
         25    1    4    4    0    0 -0.21603700547E+02  0.10010833223E+01 -0.28087837199E+03  0.30823349914E+03  0.12509000000E+03 0.  0.
<mgrwt>
<rscale>  2 0.48027202E+03</rscale>
<asrwt>0</asrwt>
<pdfrwt beam="1">  1       21 0.16591062E-01 0.48027202E+03</pdfrwt>
<pdfrwt beam="2">  1       21 0.75166194E-01 0.48027202E+03</pdfrwt>
<totfact> 0.47100296E+04</totfact>
</mgrwt>
</event>
<event>
 7    0  0.4750554E-002  0.4514590E+03  0.7546771E-02  0.1027288E+00
         21   -1    0    0  502  501  0.00000000000E+00  0.00000000000E+00  0.51215299592E+02  0.51215299592E+02  0.00000000000E+00 0.  1.
         21   -1    0    0  501  502 -0.00000000000E+00 -0.00000000000E+00 -0.99489414583E+03  0.99489414583E+03  0.00000000000E+00 0.  1.
      99926    2    1    2    0    0  0.00000000000E+00  0.71054273576E-14 -0.94367884624E+03  0.10461094454E+04  0.45145897595E+03 0.  0.
      99925    2    3    3    0    0 -0.91086954021E+02 -0.59842095077E+02 -0.62638497422E+03  0.68805802613E+03  0.26303574255E+03 0.  0.
         25    1    4    4    0    0 -0.67770036737E+02 -0.48861458924E+01 -0.26151563937E+03  0.29774920661E+03  0.12509000000E+03 0.  0.
         25    1    4    4    0    0 -0.23316917284E+02 -0.54955949185E+02 -0.36486933486E+03  0.39030881953E+03  0.12509000000E+03 0.  0.
         25    1    3    3    0    0  0.91086954021E+02  0.59842095077E+02 -0.31729387202E+03  0.35805141929E+03  0.12509000000E+03 0.  0.
<mgrwt>
<rscale>  2 0.45145898E+03</rscale>
<asrwt>0</asrwt>
<pdfrwt beam="1">  1       21 0.75316618E-02 0.45145898E+03</pdfrwt>
<pdfrwt beam="2">  1       21 0.14630796E+00 0.45145898E+03</pdfrwt>
<totfact> 0.38472893E+04</totfact>
</mgrwt>
</event>
<event>
 7    0  0.4750554E-002  0.4361659E+03  0.7546771E-02  0.1031930E+00
         21   -1    0    0  502  501  0.00000000000E+00  0.00000000000E+00  0.20001495751E+02  0.20001495751E+02  0.00000000000E+00 0.  1.
         21   -1    0    0  501  502 -0.00000000000E+00 -0.00000000000E+00 -0.23778310962E+04  0.23778310962E+04  0.00000000000E+00 0.  1.
      99926    2    1    2    0    0  0.00000000000E+00 -0.14210854715E-13 -0.23578296004E+04  0.23978325919E+04  0.43616592516E+03 0.  0.
      99925    2    3    3    0    0 -0.12814730673E+02  0.86654357853E+02 -0.17036718613E+04  0.17260863223E+04  0.26306460394E+03 0.  0.
         25    1    3    3    0    0  0.12814730673E+02 -0.86654357853E+02 -0.65415773913E+03  0.67174626968E+03  0.12509000000E+03 0.  0.
         25    1    4    4    0    0  0.19831622638E+02  0.72571760842E+02 -0.81881690319E+03  0.83172626673E+03  0.12509000000E+03 0.  0.
         25    1    4    4    0    0 -0.32646353311E+02  0.14082597012E+02 -0.88485495812E+03  0.89436005553E+03  0.12509000000E+03 0.  0.
<mgrwt>
<rscale>  2 0.43616593E+03</rscale>
<asrwt>0</asrwt>
<pdfrwt beam="1">  1       21 0.29413960E-02 0.43616593E+03</pdfrwt>
<pdfrwt beam="2">  1       21 0.34968109E+00 0.43616593E+03</pdfrwt>
<totfact> 0.95588997E+03</totfact>
</mgrwt>
</event>
<event>
 6    0  0.4750554E-002  0.4485386E+03  0.7546771E-02  0.1028159E+00
         21   -1    0    0  502  501  0.00000000000E+00  0.00000000000E+00  0.39913698275E+03  0.39913698275E+03  0.00000000000E+00 0.  1.
         21   -1    0    0  501  502 -0.00000000000E+00 -0.00000000000E+00 -0.12601368983E+03  0.12601368983E+03  0.00000000000E+00 0.  1.
      99926    2    1    2    0    0  0.00000000000E+00 -0.14210854715E-13  0.27312329292E+03  0.52515067259E+03  0.44853862240E+03 0.  0.
         25    1    3    3    0    0 -0.18803818585E+02 -0.33154540505E+02  0.78445844796E+02  0.15249283857E+03  0.12509000000E+03 0.  0.
         25    1    3    3    0    0  0.43857597873E+01 -0.48119034594E+02  0.17654052576E+03  0.22169515492E+03  0.12509000000E+03 0.  0.
         25    1    3    3    0    0  0.14418058797E+02  0.81273575099E+02  0.18136922368E+02  0.15096267910E+03  0.12509000000E+03 0.  0.
<mgrwt>
<rscale>  2 0.44853862E+03</rscale>
<asrwt>0</asrwt>
<pdfrwt beam="1">  1       21 0.58696615E-01 0.44853862E+03</pdfrwt>
<pdfrwt beam="2">  1       21 0.18531425E-01 0.44853862E+03</pdfrwt>
<totfact> 0.66895897E+04</totfact>
</mgrwt>
</event>
<event>
 7    0  0.4750554E-002  0.4537158E+03  0.7546771E-02  0.1026620E+00
         21   -1    0    0  502  501  0.00000000000E+00  0.00000000000E+00  0.43058170192E+03  0.43058170192E+03  0.00000000000E+00 0. -1.
         21   -1    0    0  501  502 -0.00000000000E+00 -0.00000000000E+00 -0.11952321761E+03  0.11952321761E+03  0.00000000000E+00 0. -1.
      99926    2    1    2    0    0  0.00000000000E+00  0.71054273576E-14  0.31105848431E+03  0.55010491954E+03  0.45371581616E+03 0.  0.
      99925    2    3    3    0    0 -0.65402713495E+02 -0.62649632904E+02  0.11604795410E+03  0.30134980617E+03  0.26294882884E+03 0.  0.
         25    1    4    4    0    0 -0.24815534918E+02 -0.50807085101E+02  0.21503519628E+02  0.13894991949E+03  0.12509000000E+03 0.  0.
         25    1    3    3    0    0  0.65402713495E+02  0.62649632904E+02  0.19501053021E+03  0.24875511337E+03  0.12509000000E+03 0.  0.
         25    1    4    4    0    0 -0.40587178577E+02 -0.11842547803E+02  0.94544434471E+02  0.16239988668E+03  0.12509000000E+03 0.  0.
<mgrwt>
<rscale>  2 0.45371582E+03</rscale>
<asrwt>0</asrwt>
<pdfrwt beam="1">  1       21 0.63320838E-01 0.45371582E+03</pdfrwt>
<pdfrwt beam="2">  1       21 0.17576944E-01 0.45371582E+03</pdfrwt>
<totfact> 0.62492101E+04</totfact>
</mgrwt>
</event>
<event>
 7    0  0.4750554E-002  0.4468301E+03  0.7546771E-02  0.1028672E+00
         21   -1    0    0  502  501  0.00000000000E+00  0.00000000000E+00  0.10807527492E+03  0.10807527492E+03  0.00000000000E+00 0.  1.
         21   -1    0    0  501  502 -0.00000000000E+00 -0.00000000000E+00 -0.46184746466E+03  0.46184746466E+03  0.00000000000E+00 0.  1.
      99926    2    1    2    0    0  0.00000000000E+00  0.35527136788E-14 -0.35377218975E+03  0.56992273958E+03  0.44683013199E+03 0.  0.
      99925    2    3    3    0    0 -0.37539511587E+02 -0.17983285867E+02 -0.10093503125E+03  0.28477935404E+03  0.26301860476E+03 0.  0.
         25    1    3    3    0    0  0.37539511587E+02  0.17983285867E+02 -0.25283715850E+03  0.28514338555E+03  0.12509000000E+03 0.  0.
         25    1    4    4    0    0  0.12272531435E+02 -0.16568311532E+02 -0.21925114085E+02  0.12865979443E+03  0.12509000000E+03 0.  0.
         25    1    4    4    0    0 -0.49812043021E+02 -0.14149743350E+01 -0.79009917161E+02  0.15611955961E+03  0.12509000000E+03 0.  0.
<mgrwt>
<rscale>  2 0.44683013E+03</rscale>
<asrwt>0</asrwt>
<pdfrwt beam="1">  1       21 0.15893422E-01 0.44683013E+03</pdfrwt>
<pdfrwt beam="2">  1       21 0.67918746E-01 0.44683013E+03</pdfrwt>
<totfact> 0.64645124E+04</totfact>
</mgrwt>
</event>
<event>
 7    0  0.4750554E-002  0.4397142E+03  0.7546771E-02  0.1030835E+00
         21   -1    0    0  502  501  0.00000000000E+00  0.00000000000E+00  0.46306351723E+02  0.46306351723E+02  0.00000000000E+00 0. -1.
         21   -1    0    0  501  502 -0.00000000000E+00 -0.00000000000E+00 -0.10438556092E+04  0.10438556092E+04  0.00000000000E+00 0. -1.
      99926    2    1    2    0    0  0.00000000000E+00  0.00000000000E+00 -0.99754925752E+03  0.10901619610E+04  0.43971420259E+03 0.  0.
      99925    2    3    3    0    0 -0.80054107978E+02 -0.25861383523E+01 -0.49667022004E+03  0.56772280987E+03  0.26308274944E+03 0.  0.
         25    1    4    4    0    0 -0.34442551900E+02  0.31972023683E+02 -0.19768470768E+03  0.23861108824E+03  0.12509000000E+03 0.  0.
         25    1    4    4    0    0 -0.45611556078E+02 -0.34558162035E+02 -0.29898551236E+03  0.32911172163E+03  0.12509000000E+03 0.  0.
         25    1    3    3    0    0  0.80054107978E+02  0.25861383523E+01 -0.50087903748E+03  0.52243915110E+03  0.12509000000E+03 0.  0.
<mgrwt>
<rscale>  2 0.43971420E+03</rscale>
<asrwt>0</asrwt>
<pdfrwt beam="1">  1       21 0.68097582E-02 0.43971420E+03</pdfrwt>
<pdfrwt beam="2">  1       21 0.15350816E+00 0.43971420E+03</pdfrwt>
<totfact> 0.40450148E+04</totfact>
</mgrwt>
</event>
<event>
 7    0  0.4750554E-002  0.4503916E+03  0.7546771E-02  0.1027605E+00
         21   -1    0    0  502  501  0.00000000000E+00  0.00000000000E+00  0.27927540429E+02  0.27927540429E+02  0.00000000000E+00 0.  1.
         21   -1    0    0  501  502 -0.00000000000E+00 -0.00000000000E+00 -0.18158828154E+04  0.18158828154E+04  0.00000000000E+00 0.  1.
      99926    2    1    2    0    0 -0.88817841970E-15  0.00000000000E+00 -0.17879552749E+04  0.18438103558E+04  0.45039156626E+03 0.  0.
      99925    2    3    3    0    0  0.44982545873E+01 -0.92400058980E+02 -0.13642251722E+04  0.13924205982E+04  0.26299581107E+03 0.  0.
         25    1    4    4    0    0  0.46328230246E+01 -0.59580403367E+02 -0.89610925190E+03  0.90676931298E+03  0.12509000000E+03 0.  0.
         25    1    4    4    0    0 -0.13456843731E+00 -0.32819655613E+02 -0.46811592029E+03  0.48565128522E+03  0.12509000000E+03 0.  0.
         25    1    3    3    0    0 -0.44982545873E+01  0.92400058980E+02 -0.42373010273E+03  0.45138975759E+03  0.12509000000E+03 0.  0.
<mgrwt>
<rscale>  2 0.45039157E+03</rscale>
<asrwt>0</asrwt>
<pdfrwt beam="1">  1       21 0.41069917E-02 0.45039157E+03</pdfrwt>
<pdfrwt beam="2">  1       21 0.26704156E+00 0.45039157E+03</pdfrwt>
<totfact> 0.17033164E+04</totfact>
</mgrwt>
</event>
<event>
 7    0  0.4750554E-002  0.4475560E+03  0.7546771E-02  0.1028453E+00
         21   -1    0    0  502  501  0.00000000000E+00  0.00000000000E+00  0.18898611127E+03  0.18898611127E+03  0.00000000000E+00 0.  1.
         21   -1    0    0  501  502 -0.00000000000E+00 -0.00000000000E+00 -0.26497498877E+03  0.26497498877E+03  0.00000000000E+00 0.  1.
      99926    2    1    2    0    0  0.00000000000E+00  0.00000000000E+00 -0.75988877498E+02  0.45396110004E+03  0.44755599745E+03 0.  0.
      99925    2    3    3    0    0  0.50230433387E+02  0.87083416523E+02 -0.82418784603E+02  0.29335141890E+03  0.26297448744E+03 0.  0.
         25    1    3    3    0    0 -0.50230433387E+02 -0.87083416523E+02  0.64299071051E+01  0.16060968114E+03  0.12509000000E+03 0.  0.
         25    1    4    4    0    0  0.52839033226E+02  0.53222793965E+02 -0.13296982318E+02  0.14645459047E+03  0.12509000000E+03 0.  0.
         25    1    4    4    0    0 -0.26085998392E+01  0.33860622558E+02 -0.69121802286E+02  0.14689682844E+03  0.12509000000E+03 0.  0.
<mgrwt>
<rscale>  2 0.44755600E+03</rscale>
<asrwt>0</asrwt>
<pdfrwt beam="1">  1       21 0.27792075E-01 0.44755600E+03</pdfrwt>
<pdfrwt beam="2">  1       21 0.38966910E-01 0.44755600E+03</pdfrwt>
<totfact> 0.72852341E+04</totfact>
</mgrwt>
</event>
<event>
 7    0  0.4750554E-002  0.4515159E+03  0.7546771E-02  0.1027271E+00
         21   -1    0    0  502  501  0.00000000000E+00  0.00000000000E+00  0.76946902143E+02  0.76946902143E+02  0.00000000000E+00 0.  1.
         21   -1    0    0  501  502 -0.00000000000E+00 -0.00000000000E+00 -0.66236137773E+03  0.66236137773E+03  0.00000000000E+00 0.  1.
      99926    2    1    2    0    0  0.00000000000E+00  0.00000000000E+00 -0.58541447559E+03  0.73930827988E+03  0.45151591828E+03 0.  0.
      99925    2    3    3    0    0 -0.83948948144E+02 -0.23112918911E+02 -0.26085889037E+03  0.38074800752E+03  0.26332499241E+03 0.  0.
         25    1    3    3    0    0  0.83948948144E+02  0.23112918911E+02 -0.32455558522E+03  0.35856027235E+03  0.12509000000E+03 0.  0.
         25    1    4    4    0    0 -0.45224215829E+02  0.10279212459E+02 -0.17721571814E+03  0.22181932008E+03  0.12509000000E+03 0.  0.
         25    1    4    4    0    0 -0.38724732315E+02 -0.33392131370E+02 -0.83643172237E+02  0.15892868744E+03  0.12509000000E+03 0.  0.
<mgrwt>
<rscale>  2 0.45151592E+03</rscale>
<asrwt>0</asrwt>
<pdfrwt beam="1">  1       21 0.11315721E-01 0.45151592E+03</pdfrwt>
<pdfrwt beam="2">  1       21 0.97406086E-01 0.45151592E+03</pdfrwt>
<totfact> 0.52236333E+04</totfact>
</mgrwt>
</event>
<event>
 7    0  0.4750554E-002  0.4524858E+03  0.7546771E-02  0.1026983E+00
         21   -1    0    0  502  501  0.00000000000E+00  0.00000000000E+00  0.11015216239E+03  0.11015216239E+03  0.00000000000E+00 0.  1.
         21   -1    0    0  501  502 -0.00000000000E+00 -0.00000000000E+00 -0.46468313082E+03  0.46468313082E+03  0.00000000000E+00 0.  1.
      99926    2    1    2    0    0  0.00000000000E+00  0.00000000000E+00 -0.35453096843E+03  0.57483529321E+03  0.45248580834E+03 0.  0.
      99925    2    3    3    0    0 -0.76263112742E+02 -0.35976261151E+02 -0.31491115690E+03  0.41886224651E+03  0.26299465980E+03 0.  0.
         25    1    4    4    0    0 -0.59181229300E+02  0.49349694194E+01 -0.20032776386E+03  0.24352719129E+03  0.12509000000E+03 0.  0.
         25    1    4    4    0    0 -0.17081883443E+02 -0.40911230570E+02 -0.11458339303E+03  0.17533505522E+03  0.12509000000E+03 0.  0.
         25    1    3    3    0    0  0.76263112742E+02  0.35976261151E+02 -0.39619811530E+02  0.15597304670E+03  0.12509000000E+03 0.  0.
<mgrwt>
<rscale>  2 0.45248581E+03</rscale>
<asrwt>0</asrwt>
<pdfrwt beam="1">  1       21 0.16198847E-01 0.45248581E+03</pdfrwt>
<pdfrwt beam="2">  1       21 0.68335755E-01 0.45248581E+03</pdfrwt>
<totfact> 0.61467422E+04</totfact>
</mgrwt>
</event>
<event>
 7    0  0.4750554E-002  0.4584149E+03  0.7546771E-02  0.1025242E+00
         21   -1    0    0  502  501  0.00000000000E+00  0.00000000000E+00  0.14881533838E+03  0.14881533838E+03  0.00000000000E+00 0.  1.
         21   -1    0    0  501  502 -0.00000000000E+00 -0.00000000000E+00 -0.35302847413E+03  0.35302847413E+03  0.00000000000E+00 0.  1.
      99926    2    1    2    0    0  0.71054273576E-14 -0.71054273576E-14 -0.20421313574E+03  0.50184381251E+03  0.45841488561E+03 0.  0.
      99925    2    3    3    0    0  0.33079512665E+02 -0.35215721986E+02 -0.24398192046E+03  0.36197435348E+03  0.26299021623E+03 0.  0.
         25    1    3    3    0    0 -0.33079512665E+02  0.35215721986E+02  0.39768784717E+02  0.13986945904E+03  0.12509000000E+03 0.  0.
         25    1    4    4    0    0  0.37431707765E+02 -0.54339477716E+00 -0.81329748916E+02  0.15382933460E+03  0.12509000000E+03 0.  0.
         25    1    4    4    0    0 -0.43521950993E+01 -0.34672327208E+02 -0.16265217154E+03  0.20814501888E+03  0.12509000000E+03 0.  0.
<mgrwt>
<rscale>  2 0.45841489E+03</rscale>
<asrwt>0</asrwt>
<pdfrwt beam="1">  1       21 0.21884609E-01 0.45841489E+03</pdfrwt>
<pdfrwt beam="2">  1       21 0.51915952E-01 0.45841489E+03</pdfrwt>
<totfact> 0.63405055E+04</totfact>
</mgrwt>
</event>
<event>
 7    0  0.4750554E-002  0.4570715E+03  0.7546771E-02  0.1025634E+00
         21   -1    0    0  502  501  0.00000000000E+00  0.00000000000E+00  0.10775820063E+03  0.10775820063E+03  0.00000000000E+00 0.  1.
         21   -1    0    0  501  502 -0.00000000000E+00 -0.00000000000E+00 -0.48468310328E+03  0.48468310328E+03  0.00000000000E+00 0.  1.
      99926    2    1    2    0    0  0.14210854715E-13 -0.14210854715E-13 -0.37692490265E+03  0.59244130391E+03  0.45707145650E+03 0.  0.
      99925    2    3    3    0    0 -0.65749135774E+02 -0.92528091582E+02 -0.26043905605E+03  0.38725636991E+03  0.26316268263E+03 0.  0.
         25    1    4    4    0    0 -0.19661998795E+02 -0.81402371845E+01 -0.93936646068E+02  0.15787482140E+03  0.12509000000E+03 0.  0.
         25    1    3    3    0    0  0.65749135774E+02  0.92528091582E+02 -0.11648584659E+03  0.20518493401E+03  0.12509000000E+03 0.  0.
         25    1    4    4    0    0 -0.46087136979E+02 -0.84387854398E+02 -0.16650240998E+03  0.22938154851E+03  0.12509000000E+03 0.  0.
<mgrwt>
<rscale>  2 0.45707146E+03</rscale>
<asrwt>0</asrwt>
<pdfrwt beam="1">  1       21 0.15846794E-01 0.45707146E+03</pdfrwt>
<pdfrwt beam="2">  1       21 0.71276926E-01 0.45707146E+03</pdfrwt>
<totfact> 0.58187509E+04</totfact>
</mgrwt>
</event>
<event>
 6    0  0.4750554E-002  0.4522307E+03  0.7546771E-02  0.1027059E+00
         21   -1    0    0  502  501  0.00000000000E+00  0.00000000000E+00  0.58991917531E+02  0.58991917531E+02  0.00000000000E+00 0. -1.
         21   -1    0    0  501  502 -0.00000000000E+00 -0.00000000000E+00 -0.86669742270E+03  0.86669742270E+03  0.00000000000E+00 0. -1.
      99926    2    1    2    0    0  0.00000000000E+00  0.11102230246E-14 -0.80770550517E+03  0.92568934023E+03  0.45223066187E+03 0.  0.
         25    1    3    3    0    0  0.75119556290E+02 -0.17457586033E+01 -0.44622388453E+03  0.46947764445E+03  0.12509000000E+03 0.  0.
         25    1    3    3    0    0 -0.28670185209E+02 -0.46240927086E+02 -0.17098654067E+03  0.21873296059E+03  0.12509000000E+03 0.  0.
         25    1    3    3    0    0 -0.46449371081E+02  0.47986685689E+02 -0.19049507997E+03  0.23747873519E+03  0.12509000000E+03 0.  0.
<mgrwt>
<rscale>  2 0.45223066E+03</rscale>
<asrwt>0</asrwt>
<pdfrwt beam="1">  1       21 0.86752824E-02 0.45223066E+03</pdfrwt>
<pdfrwt beam="2">  1       21 0.12745550E+00 0.45223066E+03</pdfrwt>
<totfact> 0.43066605E+04</totfact>
</mgrwt>
</event>
<event>
 7    0  0.4750554E-002  0.4587954E+03  0.7546771E-02  0.1025131E+00
         21   -1    0    0  502  501  0.00000000000E+00  0.00000000000E+00  0.51777778917E+03  0.51777778917E+03  0.00000000000E+00 0. -1.
         21   -1    0    0  501  502 -0.00000000000E+00 -0.00000000000E+00 -0.10163299287E+03  0.10163299287E+03  0.00000000000E+00 0. -1.
      99926    2    1    2    0    0  0.00000000000E+00  0.00000000000E+00  0.41614479630E+03  0.61941078203E+03  0.45879540693E+03 0.  0.
      99925    2    3    3    0    0 -0.94143925672E+02 -0.68298170067E+02  0.25971584944E+03  0.38779635612E+03  0.26345013304E+03 0.  0.
         25    1    4    4    0    0 -0.21177482809E+02 -0.13407089092E+02  0.15545287456E+03  0.20110032353E+03  0.12509000000E+03 0.  0.
         25    1    4    4    0    0 -0.72966442863E+02 -0.54891080975E+02  0.10426297488E+03  0.18669603259E+03  0.12509000000E+03 0.  0.
         25    1    3    3    0    0  0.94143925672E+02  0.68298170067E+02  0.15642894686E+03  0.23161442591E+03  0.12509000000E+03 0.  0.
<mgrwt>
<rscale>  2 0.45879541E+03</rscale>
<asrwt>0</asrwt>
<pdfrwt beam="1">  1       21 0.76143791E-01 0.45879541E+03</pdfrwt>
<pdfrwt beam="2">  1       21 0.14946029E-01 0.45879541E+03</pdfrwt>
<totfact> 0.55807558E+04</totfact>
</mgrwt>
</event>
<event>
 7    0  0.4750554E-002  0.4544835E+03  0.7546771E-02  0.1026393E+00
         21   -1    0    0  502  501  0.00000000000E+00  0.00000000000E+00  0.92179692245E+03  0.92179692245E+03  0.00000000000E+00 0.  1.
         21   -1    0    0  501  502 -0.00000000000E+00 -0.00000000000E+00 -0.56019720293E+02  0.56019720293E+02  0.00000000000E+00 0.  1.
      99926    2    1    2    0    0 -0.35527136788E-14 -0.26645352591E-14  0.86577720216E+03  0.97781664274E+03  0.45448346840E+03 0.  0.
      99925    2    3    3    0    0  0.25149926706E+02  0.78067893727E+01  0.78081512990E+03  0.82432551402E+03  0.26295783163E+03 0.  0.
         25    1    3    3    0    0 -0.25149926706E+02 -0.78067893727E+01  0.84962072260E+02  0.15349112872E+03  0.12509000000E+03 0.  0.
         25    1    4    4    0    0  0.47351810402E+02 -0.16316650199E+02  0.41500720084E+03  0.43633348699E+03  0.12509000000E+03 0.  0.
         25    1    4    4    0    0 -0.22201883696E+02  0.24123439571E+02  0.36580792906E+03  0.38799202703E+03  0.12509000000E+03 0.  0.
<mgrwt>
<rscale>  2 0.45448347E+03</rscale>
<asrwt>0</asrwt>
<pdfrwt beam="1">  1       21 0.13555836E+00 0.45448347E+03</pdfrwt>
<pdfrwt beam="2">  1       21 0.82381947E-02 0.45448347E+03</pdfrwt>
<totfact> 0.40196464E+04</totfact>
</mgrwt>
</event>
<event>
 7    0  0.4750554E-002  0.4530734E+03  0.7546771E-02  0.1026809E+00
         21   -1    0    0  502  501  0.00000000000E+00  0.00000000000E+00  0.39167933742E+03  0.39167933742E+03  0.00000000000E+00 0.  1.
         21   -1    0    0  501  502 -0.00000000000E+00 -0.00000000000E+00 -0.13102267567E+03  0.13102267567E+03  0.00000000000E+00 0.  1.
      99926    2    1    2    0    0  0.17763568394E-14  0.00000000000E+00  0.26065666175E+03  0.52270201308E+03  0.45307339269E+03 0.  0.
      99925    2    3    3    0    0  0.40653433777E+01 -0.55421873679E+02  0.27569185048E+03  0.38500061113E+03  0.26292843713E+03 0.  0.
         25    1    3    3    0    0 -0.40653433777E+01  0.55421873679E+02 -0.15035188728E+02  0.13770140195E+03  0.12509000000E+03 0.  0.
         25    1    4    4    0    0 -0.19064038107E+02 -0.54212758300E+02  0.17561808958E+03  0.22314049878E+03  0.12509000000E+03 0.  0.
         25    1    4    4    0    0  0.23129381485E+02 -0.12091153796E+01  0.10007376090E+03  0.16186011235E+03  0.12509000000E+03 0.  0.
<mgrwt>
<rscale>  2 0.45307339E+03</rscale>
<asrwt>0</asrwt>
<pdfrwt beam="1">  1       21 0.57599902E-01 0.45307339E+03</pdfrwt>
<pdfrwt beam="2">  1       21 0.19268041E-01 0.45307339E+03</pdfrwt>
<totfact> 0.64685557E+04</totfact>
</mgrwt>
</event>
<event>
 7    0  0.4750554E-002  0.4534049E+03  0.7546771E-02  0.1026712E+00
         21   -1    0    0  502  501  0.00000000000E+00  0.00000000000E+00  0.10467195716E+03  0.10467195716E+03  0.00000000000E+00 0.  1.
         21   -1    0    0  501  502 -0.00000000000E+00 -0.00000000000E+00 -0.49100056109E+03  0.49100056109E+03  0.00000000000E+00 0.  1.
      99926    2    1    2    0    0  0.00000000000E+00  0.00000000000E+00 -0.38632860393E+03  0.59567251825E+03  0.45340485086E+03 0.  0.
      99925    2    3    3    0    0  0.86501227004E+02  0.65250445507E+02 -0.27866655165E+03  0.39824225584E+03  0.26306228240E+03 0.  0.
         25    1    4    4    0    0  0.41122053219E+02 -0.73494196362E+01 -0.14667753457E+03  0.19724817991E+03  0.12509000000E+03 0.  0.
         25    1    3    3    0    0 -0.86501227004E+02 -0.65250445507E+02 -0.10766205229E+03  0.19743026241E+03  0.12509000000E+03 0.  0.
         25    1    4    4    0    0  0.45379173785E+02  0.72599865144E+02 -0.13198901707E+03  0.20099407593E+03  0.12509000000E+03 0.  0.
<mgrwt>
<rscale>  2 0.45340485E+03</rscale>
<asrwt>0</asrwt>
<pdfrwt beam="1">  1       21 0.15392935E-01 0.45340485E+03</pdfrwt>
<pdfrwt beam="2">  1       21 0.72205966E-01 0.45340485E+03</pdfrwt>
<totfact> 0.59694333E+04</totfact>
</mgrwt>
</event>
<event>
 7    0  0.4750554E-002  0.4550578E+03  0.7546771E-02  0.1026224E+00
         21   -1    0    0  502  501  0.00000000000E+00  0.00000000000E+00  0.64160048970E+03  0.64160048970E+03  0.00000000000E+00 0. -1.
         21   -1    0    0  501  502 -0.00000000000E+00 -0.00000000000E+00 -0.80687892090E+02  0.80687892090E+02  0.00000000000E+00 0. -1.
      99926    2    1    2    0    0  0.00000000000E+00 -0.14210854715E-13  0.56091259761E+03  0.72228838179E+03  0.45505775931E+03 0.  0.
      99925    2    3    3    0    0  0.63605129722E+02 -0.87039504620E+02  0.29794269719E+03  0.41176919637E+03  0.26298770384E+03 0.  0.
         25    1    4    4    0    0  0.70797094935E+02 -0.45401692885E+02  0.17949361445E+03  0.23439071674E+03  0.12509000000E+03 0.  0.
         25    1    3    3    0    0 -0.63605129722E+02  0.87039504620E+02  0.26296990042E+03  0.31051918543E+03  0.12509000000E+03 0.  0.
         25    1    4    4    0    0 -0.71919652134E+01 -0.41637811735E+02  0.11844908275E+03  0.17737847962E+03  0.12509000000E+03 0.  0.
<mgrwt>
<rscale>  2 0.45505776E+03</rscale>
<asrwt>0</asrwt>
<pdfrwt beam="1">  1       21 0.94353011E-01 0.45505776E+03</pdfrwt>
<pdfrwt beam="2">  1       21 0.11865867E-01 0.45505776E+03</pdfrwt>
<totfact> 0.51686053E+04</totfact>
</mgrwt>
</event>
<event>
 7    0  0.4750554E-002  0.4522814E+03  0.7546771E-02  0.1027044E+00
         21   -1    0    0  502  501  0.00000000000E+00  0.00000000000E+00  0.14296090725E+03  0.14296090725E+03  0.00000000000E+00 0.  1.
         21   -1    0    0  501  502 -0.00000000000E+00 -0.00000000000E+00 -0.35771751902E+03  0.35771751902E+03  0.00000000000E+00 0.  1.
      99926    2    1    2    0    0  0.00000000000E+00  0.00000000000E+00 -0.21475661178E+03  0.50067842627E+03  0.45228142150E+03 0.  0.
      99925    2    3    3    0    0  0.10714908434E+03  0.27409927612E+02 -0.13941130548E+03  0.31749367339E+03  0.26293438372E+03 0.  0.
         25    1    4    4    0    0  0.22250847834E+02  0.38200437384E+02 -0.78439050427E+02  0.15412516465E+03  0.12509000000E+03 0.  0.
         25    1    4    4    0    0  0.84898236507E+02 -0.10790509772E+02 -0.60972255056E+02  0.16336850875E+03  0.12509000000E+03 0.  0.
         25    1    3    3    0    0 -0.10714908434E+03 -0.27409927612E+02 -0.75345306292E+02  0.18318475288E+03  0.12509000000E+03 0.  0.
<mgrwt>
<rscale>  2 0.45228142E+03</rscale>
<asrwt>0</asrwt>
<pdfrwt beam="1">  1       21 0.21023663E-01 0.45228142E+03</pdfrwt>
<pdfrwt beam="2">  1       21 0.52605518E-01 0.45228142E+03</pdfrwt>
<totfact> 0.66649715E+04</totfact>
</mgrwt>
</event>
<event>
 7    0  0.4750554E-002  0.4610864E+03  0.7546771E-02  0.1024467E+00
         21   -1    0    0  502  501  0.00000000000E+00  0.00000000000E+00  0.11235168345E+03  0.11235168345E+03  0.00000000000E+00 0. -1.
         21   -1    0    0  501  502 -0.00000000000E+00 -0.00000000000E+00 -0.47306952547E+03  0.47306952547E+03  0.00000000000E+00 0. -1.
      99926    2    1    2    0    0 -0.14210854715E-13  0.00000000000E+00 -0.36071784201E+03  0.58542120892E+03  0.46108635884E+03 0.  0.
      99925    2    3    3    0    0 -0.86851191600E+02 -0.76566694866E+02 -0.25116662969E+03  0.38280194906E+03  0.26466406648E+03 0.  0.
         25    1    4    4    0    0 -0.83478838142E+01 -0.57622913003E+02 -0.98337137008E+02  0.16943372711E+03  0.12509000000E+03 0.  0.
         25    1    3    3    0    0  0.86851191600E+02  0.76566694866E+02 -0.10955121233E+03  0.20261925986E+03  0.12509000000E+03 0.  0.
         25    1    4    4    0    0 -0.78503307786E+02 -0.18943781863E+02 -0.15282949268E+03  0.21336822195E+03  0.12509000000E+03 0.  0.
<mgrwt>
<rscale>  2 0.46108636E+03</rscale>
<asrwt>0</asrwt>
<pdfrwt beam="1">  1       21 0.16522306E-01 0.46108636E+03</pdfrwt>
<pdfrwt beam="2">  1       21 0.69569050E-01 0.46108636E+03</pdfrwt>
<totfact> 0.56802190E+04</totfact>
</mgrwt>
</event>
<event>
 7    0  0.4750554E-002  0.4569769E+03  0.7546771E-02  0.1025662E+00
         21   -1    0    0  502  501  0.00000000000E+00  0.00000000000E+00  0.11034158509E+04  0.11034158509E+04  0.00000000000E+00 0.  1.
         21   -1    0    0  501  502 -0.00000000000E+00 -0.00000000000E+00 -0.47313961616E+02  0.47313961616E+02  0.00000000000E+00 0.  1.
      99926    2    1    2    0    0  0.14210854715E-13  0.71054273576E-14  0.10561018892E+04  0.11507298125E+04  0.45697691502E+03 0.  0.
      99925    2    3    3    0    0 -0.92524836156E+02  0.40581104265E+02  0.52596117305E+03  0.59674031944E+03  0.26316569297E+03 0.  0.
         25    1    4    4    0    0 -0.49625899300E+01  0.28347094499E+02  0.25476264706E+03  0.28527127353E+03  0.12509000000E+03 0.  0.
         25    1    3    3    0    0  0.92524836156E+02 -0.40581104265E+02  0.53014071620E+03  0.55398949304E+03  0.12509000000E+03 0.  0.
         25    1    4    4    0    0 -0.87562246226E+02  0.12234009766E+02  0.27119852599E+03  0.31146904591E+03  0.12509000000E+03 0.  0.
<mgrwt>
<rscale>  2 0.45697692E+03</rscale>
<asrwt>0</asrwt>
<pdfrwt beam="1">  1       21 0.16226702E+00 0.45697692E+03</pdfrwt>
<pdfrwt beam="2">  1       21 0.69579362E-02 0.45697692E+03</pdfrwt>
<totfact> 0.33242866E+04</totfact>
</mgrwt>
</event>
<event>
 7    0  0.4750554E-002  0.4455773E+03  0.7546771E-02  0.1029049E+00
         21   -1    0    0  502  501  0.00000000000E+00  0.00000000000E+00  0.64154180103E+03  0.64154180103E+03  0.00000000000E+00 0.  1.
         21   -1    0    0  501  502 -0.00000000000E+00 -0.00000000000E+00 -0.77367978285E+02  0.77367978285E+02  0.00000000000E+00 0.  1.
      99926    2    1    2    0    0  0.00000000000E+00  0.00000000000E+00  0.56417382275E+03  0.71890977932E+03  0.44557734292E+03 0.  0.
      99925    2    3    3    0    0  0.54610540470E+02 -0.73451689335E+02  0.27797580819E+03  0.39343432182E+03  0.26294971734E+03 0.  0.
         25    1    4    4    0    0  0.63917208157E+02 -0.20562646834E+02  0.15137491661E+03  0.20753338387E+03  0.12509000000E+03 0.  0.
         25    1    4    4    0    0 -0.93066676870E+01 -0.52889042501E+02  0.12660089158E+03  0.18590093794E+03  0.12509000000E+03 0.  0.
         25    1    3    3    0    0 -0.54610540470E+02  0.73451689335E+02  0.28619801456E+03  0.32547545750E+03  0.12509000000E+03 0.  0.
<mgrwt>
<rscale>  2 0.44557734E+03</rscale>
<asrwt>0</asrwt>
<pdfrwt beam="1">  1       21 0.94344380E-01 0.44557734E+03</pdfrwt>
<pdfrwt beam="2">  1       21 0.11377644E-01 0.44557734E+03</pdfrwt>
<totfact> 0.55918971E+04</totfact>
</mgrwt>
</event>
<event>
 7    0  0.4750554E-002  0.4577047E+03  0.7546771E-02  0.1025449E+00
         21   -1    0    0  502  501  0.00000000000E+00  0.00000000000E+00  0.36997669541E+03  0.36997669541E+03  0.00000000000E+00 0. -1.
         21   -1    0    0  501  502 -0.00000000000E+00 -0.00000000000E+00 -0.14155865218E+03  0.14155865218E+03  0.00000000000E+00 0. -1.
      99926    2    1    2    0    0  0.00000000000E+00  0.00000000000E+00  0.22841804323E+03  0.51153534758E+03  0.45770471852E+03 0.  0.
      99925    2    3    3    0    0  0.46447982462E+02 -0.46877989803E+02  0.37072628107E+02  0.27359515133E+03  0.26291627199E+03 0.  0.
         25    1    4    4    0    0  0.15156853474E+02 -0.63323681867E+02  0.16385647831E+02  0.14197047738E+03  0.12509000000E+03 0.  0.
         25    1    3    3    0    0 -0.46447982462E+02  0.46877989803E+02  0.19134541512E+03  0.23794019625E+03  0.12509000000E+03 0.  0.
         25    1    4    4    0    0  0.31291128988E+02  0.16445692064E+02  0.20686980275E+02  0.13162467395E+03  0.12509000000E+03 0.  0.
<mgrwt>
<rscale>  2 0.45770472E+03</rscale>
<asrwt>0</asrwt>
<pdfrwt beam="1">  1       21 0.54408338E-01 0.45770472E+03</pdfrwt>
<pdfrwt beam="2">  1       21 0.20817449E-01 0.45770472E+03</pdfrwt>
<totfact> 0.63102196E+04</totfact>
</mgrwt>
</event>
<event>
 7    0  0.4750554E-002  0.4574720E+03  0.7546771E-02  0.1025517E+00
         21   -1    0    0  502  501  0.00000000000E+00  0.00000000000E+00  0.41502010788E+03  0.41502010788E+03  0.00000000000E+00 0.  1.
         21   -1    0    0  501  502 -0.00000000000E+00 -0.00000000000E+00 -0.12606658280E+03  0.12606658280E+03  0.00000000000E+00 0.  1.
      99926    2    1    2    0    0  0.14210854715E-13 -0.35527136788E-14  0.28895352509E+03  0.54108669068E+03  0.45747203977E+03 0.  0.
      99925    2    3    3    0    0 -0.74785737055E+02  0.17121185960E+02  0.79408778680E+02  0.28526927469E+03  0.26303376870E+03 0.  0.
         25    1    4    4    0    0 -0.71866740773E+02 -0.90521466164E+01  0.57539966920E+02  0.15557996555E+03  0.12509000000E+03 0.  0.
         25    1    3    3    0    0  0.74785737055E+02 -0.17121185960E+02  0.20954474641E+03  0.25581741599E+03  0.12509000000E+03 0.  0.
         25    1    4    4    0    0 -0.29189962824E+01  0.26173332577E+02  0.21868811759E+02  0.12968930914E+03  0.12509000000E+03 0.  0.
<mgrwt>
<rscale>  2 0.45747204E+03</rscale>
<asrwt>0</asrwt>
<pdfrwt beam="1">  1       21 0.61032368E-01 0.45747204E+03</pdfrwt>
<pdfrwt beam="2">  1       21 0.18539204E-01 0.45747204E+03</pdfrwt>
<totfact> 0.61252272E+04</totfact>
</mgrwt>
</event>
<event>
 7    0  0.4750554E-002  0.5103382E+03  0.7546771E-02  0.1011115E+00
         21   -1    0    0  502  501  0.00000000000E+00  0.00000000000E+00  0.56229200690E+02  0.56229200690E+02  0.00000000000E+00 0. -1.
         21   -1    0    0  501  502 -0.00000000000E+00 -0.00000000000E+00 -0.11579617403E+04  0.11579617403E+04  0.00000000000E+00 0. -1.
      99926    2    1    2    0    0  0.00000000000E+00  0.00000000000E+00 -0.11017325396E+04  0.12141909410E+04  0.51033817449E+03 0.  0.
      99925    2    3    3    0    0 -0.10506267418E+03  0.77756980377E+02 -0.44327265074E+03  0.53132840222E+03  0.26217344375E+03 0.  0.
         25    1    4    4    0    0 -0.87575698097E+02  0.58716069416E+02 -0.27628409280E+03  0.32108797507E+03  0.12509000000E+03 0.  0.
         25    1    4    4    0    0 -0.17486976081E+02  0.19040910961E+02 -0.16698855794E+03  0.21024042715E+03  0.12509000000E+03 0.  0.
         25    1    3    3    0    0  0.10506267418E+03 -0.77756980377E+02 -0.65845988884E+03  0.68286253874E+03  0.12509000000E+03 0.  0.
<mgrwt>
<rscale>  2 0.51033817E+03</rscale>
<asrwt>0</asrwt>
<pdfrwt beam="1">  1       21 0.82690001E-02 0.51033817E+03</pdfrwt>
<pdfrwt beam="2">  1       21 0.17028849E+00 0.51033817E+03</pdfrwt>
<totfact> 0.21061726E+04</totfact>
</mgrwt>
</event>
<event>
 7    0  0.4750554E-002  0.4593409E+03  0.7546771E-02  0.1024973E+00
         21   -1    0    0  502  501  0.00000000000E+00  0.00000000000E+00  0.26395092541E+02  0.26395092541E+02  0.00000000000E+00 0. -1.
         21   -1    0    0  501  502 -0.00000000000E+00 -0.00000000000E+00 -0.19984214886E+04  0.19984214886E+04  0.00000000000E+00 0. -1.
      99926    2    1    2    0    0  0.88817841970E-15 -0.66613381478E-15 -0.19720263961E+04  0.20248165812E+04  0.45934091970E+03 0.  0.
      99925    2    3    3    0    0 -0.51895339015E+01 -0.37222281085E+00 -0.72054701888E+03  0.76709037508E+03  0.26308281454E+03 0.  0.
         25    1    4    4    0    0 -0.21110332486E+02  0.14694478209E+02 -0.45752767799E+03  0.47501648188E+03  0.12509000000E+03 0.  0.
         25    1    3    3    0    0  0.51895339015E+01  0.37222281085E+00 -0.12514793772E+04  0.12577262061E+04  0.12509000000E+03 0.  0.
         25    1    4    4    0    0  0.15920798585E+02 -0.15066701020E+02 -0.26301934088E+03  0.29207389320E+03  0.12509000000E+03 0.  0.
<mgrwt>
<rscale>  2 0.45934092E+03</rscale>
<asrwt>0</asrwt>
<pdfrwt beam="1">  1       21 0.38816313E-02 0.45934092E+03</pdfrwt>
<pdfrwt beam="2">  1       21 0.29388551E+00 0.45934092E+03</pdfrwt>
<totfact> 0.12869558E+04</totfact>
</mgrwt>
</event>
<event>
 7    0  0.4750554E-002  0.4238237E+03  0.7546771E-02  0.1035829E+00
         21   -1    0    0  502  501  0.00000000000E+00  0.00000000000E+00  0.12755795381E+03  0.12755795381E+03  0.00000000000E+00 0.  1.
         21   -1    0    0  501  502 -0.00000000000E+00 -0.00000000000E+00 -0.35204884738E+03  0.35204884738E+03  0.00000000000E+00 0.  1.
      99926    2    1    2    0    0  0.53290705182E-14  0.00000000000E+00 -0.22449089357E+03  0.47960680118E+03  0.42382369264E+03 0.  0.
      99925    2    3    3    0    0 -0.92029543541E+01 -0.70170671576E+02 -0.10210330365E+03  0.29083485469E+03  0.26296617761E+03 0.  0.
         25    1    3    3    0    0  0.92029543541E+01  0.70170671576E+02 -0.12238758992E+03  0.18877194650E+03  0.12509000000E+03 0.  0.
         25    1    4    4    0    0  0.23823457366E+02 -0.39056131689E+02 -0.20557213002E+02  0.13477034410E+03  0.12509000000E+03 0.  0.
         25    1    4    4    0    0 -0.33026411720E+02 -0.31114539887E+02 -0.81546090649E+02  0.15606451058E+03  0.12509000000E+03 0.  0.
<mgrwt>
<rscale>  2 0.42382369E+03</rscale>
<asrwt>0</asrwt>
<pdfrwt beam="1">  1       21 0.18758523E-01 0.42382369E+03</pdfrwt>
<pdfrwt beam="2">  1       21 0.51771889E-01 0.42382369E+03</pdfrwt>
<totfact> 0.86156075E+04</totfact>
</mgrwt>
</event>
<event>
 7    0  0.4750554E-002  0.4546859E+03  0.7546771E-02  0.1026334E+00
         21   -1    0    0  502  501  0.00000000000E+00  0.00000000000E+00  0.39715376143E+03  0.39715376143E+03  0.00000000000E+00 0.  1.
         21   -1    0    0  501  502 -0.00000000000E+00 -0.00000000000E+00 -0.13013805710E+03  0.13013805710E+03  0.00000000000E+00 0.  1.
      99926    2    1    2    0    0  0.00000000000E+00 -0.71054273576E-14  0.26701570432E+03  0.52729181853E+03  0.45468590866E+03 0.  0.
      99925    2    3    3    0    0 -0.29330874875E+02  0.32498112309E+02  0.28866070840E+03  0.39300689076E+03  0.26308360665E+03 0.  0.
         25    1    4    4    0    0 -0.79781313720E+01 -0.23753826976E+02  0.14783777947E+03  0.19527266069E+03  0.12509000000E+03 0.  0.
         25    1    3    3    0    0  0.29330874875E+02 -0.32498112309E+02 -0.21645004076E+02  0.13428492777E+03  0.12509000000E+03 0.  0.
         25    1    4    4    0    0 -0.21352743503E+02  0.56251939285E+02  0.14082292893E+03  0.19773423007E+03  0.12509000000E+03 0.  0.
<mgrwt>
<rscale>  2 0.45468591E+03</rscale>
<asrwt>0</asrwt>
<pdfrwt beam="1">  1       21 0.58404965E-01 0.45468591E+03</pdfrwt>
<pdfrwt beam="2">  1       21 0.19137950E-01 0.45468591E+03</pdfrwt>
<totfact> 0.63548307E+04</totfact>
</mgrwt>
</event>
<event>
 7    0  0.4750554E-002  0.4350391E+03  0.7546771E-02  0.1032280E+00
         21   -1    0    0  502  501  0.00000000000E+00  0.00000000000E+00  0.92502147768E+03  0.92502147768E+03  0.00000000000E+00 0.  1.
         21   -1    0    0  501  502 -0.00000000000E+00 -0.00000000000E+00 -0.51149905896E+02  0.51149905896E+02  0.00000000000E+00 0.  1.
      99926    2    1    2    0    0  0.00000000000E+00  0.00000000000E+00  0.87387157179E+03  0.97617138358E+03  0.43503913174E+03 0.  0.
      99925    2    3    3    0    0  0.50771575581E+02 -0.59989375578E+02  0.44819356906E+03  0.52558759761E+03  0.26303682128E+03 0.  0.
         25    1    4    4    0    0  0.21021487596E+02 -0.51180649437E+01  0.27596153485E+03  0.30376038969E+03  0.12509000000E+03 0.  0.
         25    1    3    3    0    0 -0.50771575581E+02  0.59989375578E+02  0.42567800273E+03  0.45058378597E+03  0.12509000000E+03 0.  0.
         25    1    4    4    0    0  0.29750087985E+02 -0.54871310634E+02  0.17223203421E+03  0.22182720792E+03  0.12509000000E+03 0.  0.
<mgrwt>
<rscale>  2 0.43503913E+03</rscale>
<asrwt>0</asrwt>
<pdfrwt beam="1">  1       21 0.13603256E+00 0.43503913E+03</pdfrwt>
<pdfrwt beam="2">  1       21 0.75220455E-02 0.43503913E+03</pdfrwt>
<totfact> 0.47017664E+04</totfact>
</mgrwt>
</event>
<event>
 7    0  0.4750554E-002  0.4665221E+03  0.7546771E-02  0.1022906E+00
         21   -1    0    0  502  501  0.00000000000E+00  0.00000000000E+00  0.68790591404E+02  0.68790591404E+02  0.00000000000E+00 0.  1.
         21   -1    0    0  501  502 -0.00000000000E+00 -0.00000000000E+00 -0.79096169005E+03  0.79096169005E+03  0.00000000000E+00 0.  1.
      99926    2    1    2    0    0  0.00000000000E+00  0.00000000000E+00 -0.72217109864E+03  0.85975228145E+03  0.46652212139E+03 0.  0.
      99925    2    3    3    0    0 -0.80320801395E+02 -0.84351760851E+02 -0.37403643885E+03  0.47192255058E+03  0.26313681891E+03 0.  0.
         25    1    3    3    0    0  0.80320801395E+02  0.84351760851E+02 -0.34813465979E+03  0.38782973087E+03  0.12509000000E+03 0.  0.
         25    1    4    4    0    0 -0.44647079431E+02 -0.71024870010E+01 -0.13883316734E+03  0.19226534653E+03  0.12509000000E+03 0.  0.
         25    1    4    4    0    0 -0.35673721964E+02 -0.77249273850E+02 -0.23520327151E+03  0.27965720405E+03  0.12509000000E+03 0.  0.
<mgrwt>
<rscale>  2 0.46652212E+03</rscale>
<asrwt>0</asrwt>
<pdfrwt beam="1">  1       21 0.10116264E-01 0.46652212E+03</pdfrwt>
<pdfrwt beam="2">  1       21 0.11631789E+00 0.46652212E+03</pdfrwt>
<totfact> 0.41158360E+04</totfact>
</mgrwt>
</event>
<event>
 7    0  0.4750554E-002  0.4563597E+03  0.7546771E-02  0.1025842E+00
         21   -1    0    0  502  501  0.00000000000E+00  0.00000000000E+00  0.22545068180E+03  0.22545068180E+03  0.00000000000E+00 0.  1.
         21   -1    0    0  501  502 -0.00000000000E+00 -0.00000000000E+00 -0.23094204266E+03  0.23094204266E+03  0.00000000000E+00 0.  1.
      99926    2    1    2    0    0  0.88817841970E-15  0.00000000000E+00 -0.54913608569E+01  0.45639272447E+03  0.45635968698E+03 0.  0.
      99925    2    3    3    0    0  0.59316059210E+01  0.10998491801E+03 -0.34066067209E+02  0.28728953679E+03  0.26314048505E+03 0.  0.
         25    1    3    3    0    0 -0.59316059210E+01 -0.10998491801E+03  0.28574706353E+02  0.16910318768E+03  0.12509000000E+03 0.  0.
         25    1    4    4    0    0  0.15977178264E+02  0.35495782690E+02  0.18226377778E+02  0.13226840046E+03  0.12509000000E+03 0.  0.
         25    1    4    4    0    0 -0.10045572343E+02  0.74489135325E+02 -0.52292444987E+02  0.15502113633E+03  0.12509000000E+03 0.  0.
<mgrwt>
<rscale>  2 0.45635969E+03</rscale>
<asrwt>0</asrwt>
<pdfrwt beam="1">  1       21 0.33154512E-01 0.45635969E+03</pdfrwt>
<pdfrwt beam="2">  1       21 0.33962065E-01 0.45635969E+03</pdfrwt>
<totfact> 0.67706357E+04</totfact>
</mgrwt>
</event>
<event>
 7    0  0.4750554E-002  0.4551405E+03  0.7546771E-02  0.1026200E+00
         21   -1    0    0  502  501  0.00000000000E+00  0.00000000000E+00  0.90128625688E+03  0.90128625688E+03  0.00000000000E+00 0.  1.
         21   -1    0    0  501  502 -0.00000000000E+00 -0.00000000000E+00 -0.57460349171E+02  0.57460349171E+02  0.00000000000E+00 0.  1.
      99926    2    1    2    0    0 -0.35527136788E-14 -0.14210854715E-13  0.84382590771E+03  0.95874660605E+03  0.45514051906E+03 0.  0.
      99925    2    3    3    0    0 -0.22297686097E+02 -0.98231416059E+02  0.42142256934E+03  0.50684098950E+03  0.26295286418E+03 0.  0.
         25    1    4    4    0    0  0.37118521398E+01 -0.60403636922E+02  0.14999755190E+03  0.20447286098E+03  0.12509000000E+03 0.  0.
         25    1    4    4    0    0 -0.26009538237E+02 -0.37827779136E+02  0.27142501744E+03  0.30236812852E+03  0.12509000000E+03 0.  0.
         25    1    3    3    0    0  0.22297686097E+02  0.98231416059E+02  0.42240333837E+03  0.45190561655E+03  0.12509000000E+03 0.  0.
<mgrwt>
<rscale>  2 0.45514052E+03</rscale>
<asrwt>0</asrwt>
<pdfrwt beam="1">  1       21 0.13254209E+00 0.45514052E+03</pdfrwt>
<pdfrwt beam="2">  1       21 0.84500519E-02 0.45514052E+03</pdfrwt>
<totfact> 0.40743887E+04</totfact>
</mgrwt>
</event>
<event>
 7    0  0.4750554E-002  0.4490001E+03  0.7546771E-02  0.1028021E+00
         21   -1    0    0  502  501  0.00000000000E+00  0.00000000000E+00  0.37472254705E+03  0.37472254705E+03  0.00000000000E+00 0. -1.
         21   -1    0    0  501  502 -0.00000000000E+00 -0.00000000000E+00 -0.13450024316E+03  0.13450024316E+03  0.00000000000E+00 0. -1.
      99926    2    1    2    0    0 -0.71054273576E-14  0.00000000000E+00  0.24022230388E+03  0.50922279021E+03  0.44900010555E+03 0.  0.
      99925    2    3    3    0    0 -0.33322399918E+02  0.67289698125E+02  0.64624733986E+02  0.28092408136E+03  0.26287582132E+03 0.  0.
         25    1    4    4    0    0  0.21146598324E+01 -0.67679510629E+00  0.44777329916E+02  0.13288132755E+03  0.12509000000E+03 0.  0.
         25    1    4    4    0    0 -0.35437059750E+02  0.67966493231E+02  0.19847404070E+02  0.14804275381E+03  0.12509000000E+03 0.  0.
         25    1    3    3    0    0  0.33322399918E+02 -0.67289698125E+02  0.17559756990E+03  0.22829870885E+03  0.12509000000E+03 0.  0.
<mgrwt>
<rscale>  2 0.44900011E+03</rscale>
<asrwt>0</asrwt>
<pdfrwt beam="1">  1       21 0.55106257E-01 0.44900011E+03</pdfrwt>
<pdfrwt beam="2">  1       21 0.19779448E-01 0.44900011E+03</pdfrwt>
<totfact> 0.67798511E+04</totfact>
</mgrwt>
</event>
<event>
 7    0  0.4750554E-002  0.4580323E+03  0.7546771E-02  0.1025353E+00
         21   -1    0    0  502  501  0.00000000000E+00  0.00000000000E+00  0.35536390114E+03  0.35536390114E+03  0.00000000000E+00 0. -1.
         21   -1    0    0  501  502 -0.00000000000E+00 -0.00000000000E+00 -0.14759065038E+03  0.14759065038E+03  0.00000000000E+00 0. -1.
      99926    2    1    2    0    0  0.00000000000E+00  0.00000000000E+00  0.20777325076E+03  0.50295455151E+03  0.45803226650E+03 0.  0.
      99925    2    3    3    0    0  0.42374843200E+02 -0.10710280118E+03  0.14596238636E+03  0.32202713951E+03  0.26292550845E+03 0.  0.
         25    1    3    3    0    0 -0.42374843200E+02  0.10710280118E+03  0.61810864397E+02  0.18092741200E+03  0.12509000000E+03 0.  0.
         25    1    4    4    0    0  0.45799009868E+02 -0.37602465007E+02  0.10313893432E+03  0.17261704016E+03  0.12509000000E+03 0.  0.
         25    1    4    4    0    0 -0.34241666681E+01 -0.69500336169E+02  0.42823452044E+02  0.14941009936E+03  0.12509000000E+03 0.  0.
<mgrwt>
<rscale>  2 0.45803227E+03</rscale>
<asrwt>0</asrwt>
<pdfrwt beam="1">  1       21 0.52259397E-01 0.45803227E+03</pdfrwt>
<pdfrwt beam="2">  1       21 0.21704507E-01 0.45803227E+03</pdfrwt>
<totfact> 0.63520834E+04</totfact>
</mgrwt>
</event>
<event>
 6    0  0.4750554E-002  0.4539574E+03  0.7546771E-02  0.1026548E+00
         21   -1    0    0  502  501  0.00000000000E+00  0.00000000000E+00  0.20108226529E+03  0.20108226529E+03  0.00000000000E+00 0. -1.
         21   -1    0    0  501  502 -0.00000000000E+00 -0.00000000000E+00 -0.25621021287E+03  0.25621021287E+03  0.00000000000E+00 0. -1.
      99926    2    1    2    0    0  0.00000000000E+00  0.00000000000E+00 -0.55127947577E+02  0.45729247817E+03  0.45395739887E+03 0.  0.
         25    1    3    3    0    0  0.30520408620E+02  0.60270629109E+02  0.72437304551E+02  0.15955787435E+03  0.12509000000E+03 0.  0.
         25    1    3    3    0    0 -0.47364728017E+02 -0.21202930442E+02 -0.49029629305E+02  0.14402914417E+03  0.12509000000E+03 0.  0.
         25    1    3    3    0    0  0.16844319397E+02 -0.39067698667E+02 -0.78535622823E+02  0.15370545965E+03  0.12509000000E+03 0.  0.
<mgrwt>
<rscale>  2 0.45395740E+03</rscale>
<asrwt>0</asrwt>
<pdfrwt beam="1">  1       21 0.29570922E-01 0.45395740E+03</pdfrwt>
<pdfrwt beam="2">  1       21 0.37677972E-01 0.45395740E+03</pdfrwt>
<totfact> 0.68949803E+04</totfact>
</mgrwt>
</event>
<event>
 7    0  0.4750554E-002  0.4604082E+03  0.7546771E-02  0.1024663E+00
         21   -1    0    0  502  501  0.00000000000E+00  0.00000000000E+00  0.51821842481E+03  0.51821842481E+03  0.00000000000E+00 0. -1.
         21   -1    0    0  501  502 -0.00000000000E+00 -0.00000000000E+00 -0.10226177404E+03  0.10226177404E+03  0.00000000000E+00 0. -1.
      99926    2    1    2    0    0  0.00000000000E+00  0.00000000000E+00  0.41595665078E+03  0.62048019885E+03  0.46040823390E+03 0.  0.
      99925    2    3    3    0    0 -0.52999736086E+02 -0.50684752244E+02  0.38531011949E+03  0.47227549543E+03  0.26306337501E+03 0.  0.
         25    1    4    4    0    0 -0.40050248333E+02  0.11537175756E+02  0.16720959308E+03  0.21294056667E+03  0.12509000000E+03 0.  0.
         25    1    4    4    0    0 -0.12949487752E+02 -0.62221927999E+02  0.21810052641E+03  0.25933492876E+03  0.12509000000E+03 0.  0.
         25    1    3    3    0    0  0.52999736086E+02  0.50684752244E+02  0.30646531291E+02  0.14820470342E+03  0.12509000000E+03 0.  0.
<mgrwt>
<rscale>  2 0.46040823E+03</rscale>
<asrwt>0</asrwt>
<pdfrwt beam="1">  1       21 0.76208591E-01 0.46040823E+03</pdfrwt>
<pdfrwt beam="2">  1       21 0.15038496E-01 0.46040823E+03</pdfrwt>
<totfact> 0.55046237E+04</totfact>
</mgrwt>
</event>
<event>
 7    0  0.4750554E-002  0.4544592E+03  0.7546771E-02  0.1026401E+00
         21   -1    0    0  502  501  0.00000000000E+00  0.00000000000E+00  0.82546777106E+02  0.82546777106E+02  0.00000000000E+00 0.  1.
         21   -1    0    0  501  502 -0.00000000000E+00 -0.00000000000E+00 -0.62550351250E+03  0.62550351250E+03  0.00000000000E+00 0.  1.
      99926    2    1    2    0    0  0.71054273576E-14  0.00000000000E+00 -0.54295673539E+03  0.70805028961E+03  0.45445923481E+03 0.  0.
      99925    2    3    3    0    0 -0.35305945918E+02  0.89258320940E+02 -0.43380621520E+03  0.51628245645E+03  0.26295662155E+03 0.  0.
         25    1    4    4    0    0  0.97758226836E+01  0.11776383431E+02 -0.19299189399E+03  0.23049431482E+03  0.12509000000E+03 0.  0.
         25    1    3    3    0    0  0.35305945918E+02 -0.89258320940E+02 -0.10915052019E+03  0.19176783316E+03  0.12509000000E+03 0.  0.
         25    1    4    4    0    0 -0.45081768602E+02  0.77481937509E+02 -0.24081432121E+03  0.28578814164E+03  0.12509000000E+03 0.  0.
<mgrwt>
<rscale>  2 0.45445923E+03</rscale>
<asrwt>0</asrwt>
<pdfrwt beam="1">  1       21 0.12139232E-01 0.45445923E+03</pdfrwt>
<pdfrwt beam="2">  1       21 0.91985811E-01 0.45445923E+03</pdfrwt>
<totfact> 0.52691896E+04</totfact>
</mgrwt>
</event>
<event>
 7    0  0.4750554E-002  0.4550087E+03  0.7546771E-02  0.1026239E+00
         21   -1    0    0  502  501  0.00000000000E+00  0.00000000000E+00  0.12846469116E+03  0.12846469116E+03  0.00000000000E+00 0. -1.
         21   -1    0    0  501  502 -0.00000000000E+00 -0.00000000000E+00 -0.40289854509E+03  0.40289854509E+03  0.00000000000E+00 0. -1.
      99926    2    1    2    0    0  0.00000000000E+00  0.00000000000E+00 -0.27443385393E+03  0.53136323624E+03  0.45500873470E+03 0.  0.
      99925    2    3    3    0    0  0.12548388194E+02  0.67285393792E+02 -0.66688168814E+02  0.27938989629E+03  0.26253878957E+03 0.  0.
         25    1    4    4    0    0  0.39053284667E+02  0.29791068090E+02 -0.56396390176E+02  0.14574199020E+03  0.12509000000E+03 0.  0.
         25    1    4    4    0    0 -0.26504896472E+02  0.37494325702E+02 -0.10291778638E+02  0.13364790610E+03  0.12509000000E+03 0.  0.
         25    1    3    3    0    0 -0.12548388194E+02 -0.67285393792E+02 -0.20774568511E+03  0.25197333995E+03  0.12509000000E+03 0.  0.
<mgrwt>
<rscale>  2 0.45500873E+03</rscale>
<asrwt>0</asrwt>
<pdfrwt beam="1">  1       21 0.18891866E-01 0.45500873E+03</pdfrwt>
<pdfrwt beam="2">  1       21 0.59249787E-01 0.45500873E+03</pdfrwt>
<totfact> 0.63109953E+04</totfact>
</mgrwt>
</event>
<event>
 7    0  0.4750554E-002  0.4632023E+03  0.7546771E-02  0.1023857E+00
         21   -1    0    0  502  501  0.00000000000E+00  0.00000000000E+00  0.87588758784E+02  0.87588758784E+02  0.00000000000E+00 0.  1.
         21   -1    0    0  501  502 -0.00000000000E+00 -0.00000000000E+00 -0.61239690944E+03  0.61239690944E+03  0.00000000000E+00 0.  1.
      99926    2    1    2    0    0  0.00000000000E+00  0.00000000000E+00 -0.52480815066E+03  0.69998566823E+03  0.46320226762E+03 0.  0.
      99925    2    3    3    0    0 -0.20236680179E+02 -0.27905564570E+02 -0.15305149853E+03  0.30623605202E+03  0.26299717603E+03 0.  0.
         25    1    4    4    0    0 -0.34540527833E+01  0.26261656504E+02 -0.76428223558E+02  0.14896438010E+03  0.12509000000E+03 0.  0.
         25    1    3    3    0    0  0.20236680179E+02  0.27905564570E+02 -0.37175665213E+03  0.39374961620E+03  0.12509000000E+03 0.  0.
         25    1    4    4    0    0 -0.16782627396E+02 -0.54167221074E+02 -0.76623274973E+02  0.15727167192E+03  0.12509000000E+03 0.  0.
<mgrwt>
<rscale>  2 0.46320227E+03</rscale>
<asrwt>0</asrwt>
<pdfrwt beam="1">  1       21 0.12880699E-01 0.46320227E+03</pdfrwt>
<pdfrwt beam="2">  1       21 0.90058371E-01 0.46320227E+03</pdfrwt>
<totfact> 0.49622096E+04</totfact>
</mgrwt>
</event>
<event>
 7    0  0.4750554E-002  0.4570906E+03  0.7546771E-02  0.1025628E+00
         21   -1    0    0  502  501  0.00000000000E+00  0.00000000000E+00  0.80231555985E+03  0.80231555985E+03  0.00000000000E+00 0. -1.
         21   -1    0    0  501  502 -0.00000000000E+00 -0.00000000000E+00 -0.65102756564E+02  0.65102756564E+02  0.00000000000E+00 0. -1.
      99926    2    1    2    0    0  0.00000000000E+00  0.00000000000E+00  0.73721280328E+03  0.86741831641E+03  0.45709060187E+03 0.  0.
      99925    2    3    3    0    0  0.64339823010E+02 -0.95461934961E+02  0.45833232914E+03  0.54080781320E+03  0.26296762734E+03 0.  0.
         25    1    3    3    0    0 -0.64339823010E+02  0.95461934961E+02  0.27888047414E+03  0.32661050321E+03  0.12509000000E+03 0.  0.
         25    1    4    4    0    0 -0.19970680638E+01 -0.45076025996E+02  0.17179136528E+03  0.21724552397E+03  0.12509000000E+03 0.  0.
         25    1    4    4    0    0  0.66336891074E+02 -0.50385908964E+02  0.28654096386E+03  0.32356228923E+03  0.12509000000E+03 0.  0.
<mgrwt>
<rscale>  2 0.45709060E+03</rscale>
<asrwt>0</asrwt>
<pdfrwt beam="1">  1       21 0.11798758E+00 0.45709060E+03</pdfrwt>
<pdfrwt beam="2">  1       21 0.95739352E-02 0.45709060E+03</pdfrwt>
<totfact> 0.43944880E+04</totfact>
</mgrwt>
</event>
<event>
 7    0  0.4750554E-002  0.4486723E+03  0.7546771E-02  0.1028119E+00
         21   -1    0    0  502  501  0.00000000000E+00  0.00000000000E+00  0.12373167938E+04  0.12373167938E+04  0.00000000000E+00 0.  1.
         21   -1    0    0  501  502 -0.00000000000E+00 -0.00000000000E+00 -0.40674067409E+02  0.40674067409E+02  0.00000000000E+00 0.  1.
      99926    2    1    2    0    0  0.00000000000E+00 -0.17763568394E-14  0.11966427263E+04  0.12779908612E+04  0.44867229322E+03 0.  0.
      99925    2    3    3    0    0  0.10674032757E+03  0.76594060204E+01  0.75154321688E+03  0.80342448492E+03  0.26309985197E+03 0.  0.
         25    1    4    4    0    0  0.79157599175E+02 -0.16485938847E+02  0.47284020240E+03  0.49574497153E+03  0.12509000000E+03 0.  0.
         25    1    3    3    0    0 -0.10674032757E+03 -0.76594060204E+01  0.44509950946E+03  0.47456637624E+03  0.12509000000E+03 0.  0.
         25    1    4    4    0    0  0.27582728398E+02  0.24145344867E+02  0.27870301448E+03  0.30767951340E+03  0.12509000000E+03 0.  0.
<mgrwt>
<rscale>  2 0.44867229E+03</rscale>
<asrwt>0</asrwt>
<pdfrwt beam="1">  1       21 0.18195833E+00 0.44867229E+03</pdfrwt>
<pdfrwt beam="2">  1       21 0.59814813E-02 0.44867229E+03</pdfrwt>
<totfact> 0.31271886E+04</totfact>
</mgrwt>
</event>
<event>
 7    0  0.4750554E-002  0.4517060E+03  0.7546771E-02  0.1027215E+00
         21   -1    0    0  502  501  0.00000000000E+00  0.00000000000E+00  0.96221856579E+02  0.96221856579E+02  0.00000000000E+00 0. -1.
         21   -1    0    0  501  502 -0.00000000000E+00 -0.00000000000E+00 -0.53012458007E+03  0.53012458007E+03  0.00000000000E+00 0. -1.
      99926    2    1    2    0    0 -0.17763568394E-14 -0.14210854715E-13 -0.43390272350E+03  0.62634643665E+03  0.45170597212E+03 0.  0.
      99925    2    3    3    0    0  0.80321529259E+01  0.10866791051E+03 -0.29530245527E+03  0.41017342097E+03  0.26299327924E+03 0.  0.
         25    1    3    3    0    0 -0.80321529259E+01 -0.10866791051E+03 -0.13860026823E+03  0.21617301568E+03  0.12509000000E+03 0.  0.
         25    1    4    4    0    0  0.10280133662E+02  0.86115743958E+02 -0.19977491271E+03  0.25115558197E+03  0.12509000000E+03 0.  0.
         25    1    4    4    0    0 -0.22479807360E+01  0.22552166557E+02 -0.95527542556E+02  0.15901783900E+03  0.12509000000E+03 0.  0.
<mgrwt>
<rscale>  2 0.45170597E+03</rscale>
<asrwt>0</asrwt>
<pdfrwt beam="1">  1       21 0.14150273E-01 0.45170597E+03</pdfrwt>
<pdfrwt beam="2">  1       21 0.77959495E-01 0.45170597E+03</pdfrwt>
<totfact> 0.58594165E+04</totfact>
</mgrwt>
</event>
<event>
 7    0  0.4750554E-002  0.4620803E+03  0.7546771E-02  0.1024180E+00
         21   -1    0    0  502  501  0.00000000000E+00  0.00000000000E+00  0.91914113087E+02  0.91914113087E+02  0.00000000000E+00 0.  1.
         21   -1    0    0  501  502 -0.00000000000E+00 -0.00000000000E+00 -0.58075458445E+03  0.58075458445E+03  0.00000000000E+00 0.  1.
      99926    2    1    2    0    0  0.00000000000E+00  0.71054273576E-14 -0.48884047137E+03  0.67266869754E+03  0.46208026381E+03 0.  0.
      99925    2    3    3    0    0  0.34688919607E+02 -0.42976761020E+02 -0.15077435727E+03  0.30799551683E+03  0.26282695532E+03 0.  0.
         25    1    4    4    0    0  0.19640877306E+02  0.10959342979E+01 -0.35185058189E+02  0.13142473722E+03  0.12509000000E+03 0.  0.
         25    1    3    3    0    0 -0.34688919607E+02  0.42976761020E+02 -0.33806611410E+03  0.36467318071E+03  0.12509000000E+03 0.  0.
         25    1    4    4    0    0  0.15048042301E+02 -0.44072695318E+02 -0.11558929908E+03  0.17657077961E+03  0.12509000000E+03 0.  0.
<mgrwt>
<rscale>  2 0.46208026E+03</rscale>
<asrwt>0</asrwt>
<pdfrwt beam="1">  1       21 0.13516781E-01 0.46208026E+03</pdfrwt>
<pdfrwt beam="2">  1       21 0.85405088E-01 0.46208026E+03</pdfrwt>
<totfact> 0.51478500E+04</totfact>
</mgrwt>
</event>
<event>
 7    0  0.4750554E-002  0.4492962E+03  0.7546771E-02  0.1027932E+00
         21   -1    0    0  502  501  0.00000000000E+00  0.00000000000E+00  0.13982683868E+04  0.13982683868E+04  0.00000000000E+00 0.  1.
         21   -1    0    0  501  502 -0.00000000000E+00 -0.00000000000E+00 -0.36092336687E+02  0.36092336687E+02  0.00000000000E+00 0.  1.
      99926    2    1    2    0    0  0.00000000000E+00  0.17763568394E-14  0.13621760501E+04  0.14343607235E+04  0.44929622030E+03 0.  0.
      99925    2    3    3    0    0  0.10725081717E+03  0.86195211983E+01  0.86886282405E+03  0.91418529054E+03  0.26312564394E+03 0.  0.
         25    1    3    3    0    0 -0.10725081717E+03 -0.86195211983E+01  0.49331322607E+03  0.52017543295E+03  0.12509000000E+03 0.  0.
         25    1    4    4    0    0  0.10871644452E+02  0.13065066191E+02  0.37661414106E+03  0.39720851949E+03  0.12509000000E+03 0.  0.
         25    1    4    4    0    0  0.96379172721E+02 -0.44455449922E+01  0.49224868299E+03  0.51697677105E+03  0.12509000000E+03 0.  0.
<mgrwt>
<rscale>  2 0.44929622E+03</rscale>
<asrwt>0</asrwt>
<pdfrwt beam="1">  1       21 0.20562767E+00 0.44929622E+03</pdfrwt>
<pdfrwt beam="2">  1       21 0.53076975E-02 0.44929622E+03</pdfrwt>
<totfact> 0.26589639E+04</totfact>
</mgrwt>
</event>
<event>
 7    0  0.4750554E-002  0.4509259E+03  0.7546771E-02  0.1027446E+00
         21   -1    0    0  502  501  0.00000000000E+00  0.00000000000E+00  0.43467029000E+03  0.43467029000E+03  0.00000000000E+00 0.  1.
         21   -1    0    0  501  502 -0.00000000000E+00 -0.00000000000E+00 -0.11694736775E+03  0.11694736775E+03  0.00000000000E+00 0.  1.
      99926    2    1    2    0    0  0.00000000000E+00 -0.14210854715E-13  0.31772292225E+03  0.55161765775E+03  0.45092591965E+03 0.  0.
      99925    2    3    3    0    0  0.73533487109E+02 -0.80506303239E+02  0.21195571336E+03  0.35483694435E+03  0.26286040794E+03 0.  0.
         25    1    4    4    0    0  0.63238735635E+02 -0.38811547645E+02  0.72036318000E+02  0.16230284386E+03  0.12509000000E+03 0.  0.
         25    1    3    3    0    0 -0.73533487109E+02  0.80506303239E+02  0.10576720890E+03  0.19678071340E+03  0.12509000000E+03 0.  0.
         25    1    4    4    0    0  0.10294751474E+02 -0.41694755594E+02  0.13991939536E+03  0.19253410048E+03  0.12509000000E+03 0.  0.
<mgrwt>
<rscale>  2 0.45092592E+03</rscale>
<asrwt>0</asrwt>
<pdfrwt beam="1">  1       21 0.63922101E-01 0.45092592E+03</pdfrwt>
<pdfrwt beam="2">  1       21 0.17198142E-01 0.45092592E+03</pdfrwt>
<totfact> 0.63791138E+04</totfact>
</mgrwt>
</event>
<event>
 7    0  0.4750554E-002  0.4500749E+03  0.7546771E-02  0.1027700E+00
         21   -1    0    0  502  501  0.00000000000E+00  0.00000000000E+00  0.99519933344E+02  0.99519933344E+02  0.00000000000E+00 0. -1.
         21   -1    0    0  501  502 -0.00000000000E+00 -0.00000000000E+00 -0.50886146177E+03  0.50886146177E+03  0.00000000000E+00 0. -1.
      99926    2    1    2    0    0 -0.71054273576E-14 -0.71054273576E-14 -0.40934152843E+03  0.60838139512E+03  0.45007492157E+03 0.  0.
      99925    2    3    3    0    0  0.42835083953E+02 -0.43710750373E+02 -0.37979725540E+03  0.46602323313E+03  0.26303274415E+03 0.  0.
         25    1    4    4    0    0 -0.12798957751E+02 -0.15802481181E+02 -0.14297565047E+03  0.19105778303E+03  0.12509000000E+03 0.  0.
         25    1    4    4    0    0  0.55634041704E+02 -0.27908269192E+02 -0.23682160493E+03  0.27496545010E+03  0.12509000000E+03 0.  0.
         25    1    3    3    0    0 -0.42835083953E+02  0.43710750373E+02 -0.29544273033E+02  0.14235816199E+03  0.12509000000E+03 0.  0.
<mgrwt>
<rscale>  2 0.45007492E+03</rscale>
<asrwt>0</asrwt>
<pdfrwt beam="1">  1       21 0.14635284E-01 0.45007492E+03</pdfrwt>
<pdfrwt beam="2">  1       21 0.74832570E-01 0.45007492E+03</pdfrwt>
<totfact> 0.60484253E+04</totfact>
</mgrwt>
</event>
<event>
 7    0  0.4750554E-002  0.4372529E+03  0.7546771E-02  0.1031593E+00
         21   -1    0    0  502  501  0.00000000000E+00  0.00000000000E+00  0.78517842381E+02  0.78517842381E+02  0.00000000000E+00 0. -1.
         21   -1    0    0  501  502 -0.00000000000E+00 -0.00000000000E+00 -0.60874722353E+03  0.60874722353E+03  0.00000000000E+00 0. -1.
      99926    2    1    2    0    0  0.00000000000E+00  0.33306690739E-15 -0.53022938114E+03  0.68726506591E+03  0.43725287213E+03 0.  0.
      99925    2    3    3    0    0  0.64158228253E+02  0.80152046796E+00 -0.22796180477E+03  0.35390322569E+03  0.26299047137E+03 0.  0.
         25    1    4    4    0    0  0.13835580736E+02  0.36633611879E+02 -0.11559735651E+03  0.17476756492E+03  0.12509000000E+03 0.  0.
         25    1    3    3    0    0 -0.64158228253E+02 -0.80152046796E+00 -0.30226757637E+03  0.33336184022E+03  0.12509000000E+03 0.  0.
         25    1    4    4    0    0  0.50322647517E+02 -0.35832091411E+02 -0.11236444826E+03  0.17913566077E+03  0.12509000000E+03 0.  0.
<mgrwt>
<rscale>  2 0.43725287E+03</rscale>
<asrwt>0</asrwt>
<pdfrwt beam="1">  1       21 0.11546741E-01 0.43725287E+03</pdfrwt>
<pdfrwt beam="2">  1       21 0.89521652E-01 0.43725287E+03</pdfrwt>
<totfact> 0.61790839E+04</totfact>
</mgrwt>
</event>
<event>
 7    0  0.4750554E-002  0.4570667E+03  0.7546771E-02  0.1025635E+00
         21   -1    0    0  502  501  0.00000000000E+00  0.00000000000E+00  0.17444305966E+03  0.17444305966E+03  0.00000000000E+00 0.  1.
         21   -1    0    0  501  502 -0.00000000000E+00 -0.00000000000E+00 -0.29939566144E+03  0.29939566144E+03  0.00000000000E+00 0.  1.
      99926    2    1    2    0    0  0.00000000000E+00  0.71054273576E-14 -0.12495260178E+03  0.47383872110E+03  0.45706671386E+03 0.  0.
      99925    2    3    3    0    0 -0.60130706378E+02  0.48371157942E+02  0.10086257353E+02  0.27424294873E+03  0.26296766260E+03 0.  0.
         25    1    4    4    0    0 -0.59783288351E+02  0.47136743394E+02 -0.13082498384E+02  0.14701895799E+03  0.12509000000E+03 0.  0.
         25    1    3    3    0    0  0.60130706378E+02 -0.48371157942E+02 -0.13503885913E+03  0.19959577236E+03  0.12509000000E+03 0.  0.
         25    1    4    4    0    0 -0.34741802665E+00  0.12344145477E+01  0.23168755737E+02  0.12722399074E+03  0.12509000000E+03 0.  0.
<mgrwt>
<rscale>  2 0.45706671E+03</rscale>
<asrwt>0</asrwt>
<pdfrwt beam="1">  1       21 0.25653391E-01 0.45706671E+03</pdfrwt>
<pdfrwt beam="2">  1       21 0.44028773E-01 0.45706671E+03</pdfrwt>
<totfact> 0.66061456E+04</totfact>
</mgrwt>
</event>
<event>
 7    0  0.4750554E-002  0.4595324E+03  0.7546771E-02  0.1024917E+00
         21   -1    0    0  502  501  0.00000000000E+00  0.00000000000E+00  0.16780532800E+03  0.16780532800E+03  0.00000000000E+00 0.  1.
         21   -1    0    0  501  502 -0.00000000000E+00 -0.00000000000E+00 -0.31460566429E+03  0.31460566429E+03  0.00000000000E+00 0.  1.
      99926    2    1    2    0    0  0.71054273576E-14 -0.14210854715E-13 -0.14680033629E+03  0.48241099229E+03  0.45953240011E+03 0.  0.
      99925    2    3    3    0    0  0.33933798897E+02  0.11233641287E+03 -0.94575776268E+02  0.30311825643E+03  0.26299263785E+03 0.  0.
         25    1    4    4    0    0 -0.23650505869E+02  0.53396883024E+02 -0.40567497820E+02  0.14388816325E+03  0.12509000000E+03 0.  0.
         25    1    4    4    0    0  0.57584304766E+02  0.58939529844E+02 -0.54008278448E+02  0.15923009318E+03  0.12509000000E+03 0.  0.
         25    1    3    3    0    0 -0.33933798897E+02 -0.11233641287E+03 -0.52224560017E+02  0.17929273586E+03  0.12509000000E+03 0.  0.
<mgrwt>
<rscale>  2 0.45953240E+03</rscale>
<asrwt>0</asrwt>
<pdfrwt beam="1">  1       21 0.24677254E-01 0.45953240E+03</pdfrwt>
<pdfrwt beam="2">  1       21 0.46265538E-01 0.45953240E+03</pdfrwt>
<totfact> 0.64184678E+04</totfact>
</mgrwt>
</event>
<event>
 7    0  0.4750554E-002  0.4527775E+03  0.7546771E-02  0.1026897E+00
         21   -1    0    0  502  501  0.00000000000E+00  0.00000000000E+00  0.22532460636E+03  0.22532460636E+03  0.00000000000E+00 0.  1.
         21   -1    0    0  501  502 -0.00000000000E+00 -0.00000000000E+00 -0.22745787825E+03  0.22745787825E+03  0.00000000000E+00 0.  1.
      99926    2    1    2    0    0 -0.71054273576E-14  0.00000000000E+00 -0.21332718874E+01  0.45278248461E+03  0.45277745916E+03 0.  0.
      99925    2    3    3    0    0  0.63957130231E+02 -0.89522449203E+02  0.72606432070E+01  0.28592764603E+03  0.26381265778E+03 0.  0.
         25    1    4    4    0    0  0.25848143153E+01 -0.71474952669E+02 -0.96461127083E+01  0.14441573915E+03  0.12509000000E+03 0.  0.
         25    1    3    3    0    0 -0.63957130231E+02  0.89522449203E+02 -0.93939150944E+01  0.16685483859E+03  0.12509000000E+03 0.  0.
         25    1    4    4    0    0  0.61372315915E+02 -0.18047496534E+02  0.16906755915E+02  0.14151190688E+03  0.12509000000E+03 0.  0.
<mgrwt>
<rscale>  2 0.45277746E+03</rscale>
<asrwt>0</asrwt>
<pdfrwt beam="1">  1       21 0.33135972E-01 0.45277746E+03</pdfrwt>
<pdfrwt beam="2">  1       21 0.33449688E-01 0.45277746E+03</pdfrwt>
<totfact> 0.69940641E+04</totfact>
</mgrwt>
</event>
<event>
 7    0  0.4750554E-002  0.4559981E+03  0.7546771E-02  0.1025948E+00
         21   -1    0    0  502  501  0.00000000000E+00  0.00000000000E+00  0.10008612420E+03  0.10008612420E+03  0.00000000000E+00 0.  1.
         21   -1    0    0  501  502 -0.00000000000E+00 -0.00000000000E+00 -0.51938842865E+03  0.51938842865E+03  0.00000000000E+00 0.  1.
      99926    2    1    2    0    0  0.00000000000E+00 -0.88817841970E-15 -0.41930230445E+03  0.61947455285E+03  0.45599813499E+03 0.  0.
      99925    2    3    3    0    0  0.11293173603E+03  0.70698481785E+01 -0.28347012500E+03  0.40290712956E+03  0.26301194560E+03 0.  0.
         25    1    4    4    0    0  0.10045996420E+03  0.24433689983E+01 -0.16329596977E+03  0.22893504822E+03  0.12509000000E+03 0.  0.
         25    1    4    4    0    0  0.12471771828E+02  0.46264791802E+01 -0.12017415522E+03  0.17397208134E+03  0.12509000000E+03 0.  0.
         25    1    3    3    0    0 -0.11293173603E+03 -0.70698481785E+01 -0.13583217945E+03  0.21656742329E+03  0.12509000000E+03 0.  0.
<mgrwt>
<rscale>  2 0.45599813E+03</rscale>
<asrwt>0</asrwt>
<pdfrwt beam="1">  1       21 0.14718547E-01 0.45599813E+03</pdfrwt>
<pdfrwt beam="2">  1       21 0.76380654E-01 0.45599813E+03</pdfrwt>
<totfact> 0.57044337E+04</totfact>
</mgrwt>
</event>
<event>
 7    0  0.4750554E-002  0.4527007E+03  0.7546771E-02  0.1026920E+00
         21   -1    0    0  502  501  0.00000000000E+00  0.00000000000E+00  0.34579695207E+03  0.34579695207E+03  0.00000000000E+00 0. -1.
         21   -1    0    0  501  502 -0.00000000000E+00 -0.00000000000E+00 -0.14816346907E+03  0.14816346907E+03  0.00000000000E+00 0. -1.
      99926    2    1    2    0    0  0.00000000000E+00  0.00000000000E+00  0.19763348300E+03  0.49396042114E+03  0.45270067821E+03 0.  0.
      99925    2    3    3    0    0  0.19733317070E+02 -0.14865257889E+02  0.24272280041E+03  0.35871644035E+03  0.26296909903E+03 0.  0.
         25    1    4    4    0    0  0.18631694851E+01  0.29968474552E+02  0.13735425631E+03  0.18818948082E+03  0.12509000000E+03 0.  0.
         25    1    4    4    0    0  0.17870147585E+02 -0.44833732440E+02  0.10536854411E+03  0.17052695953E+03  0.12509000000E+03 0.  0.
         25    1    3    3    0    0 -0.19733317070E+02  0.14865257889E+02 -0.45089317415E+02  0.13524398079E+03  0.12509000000E+03 0.  0.
<mgrwt>
<rscale>  2 0.45270068E+03</rscale>
<asrwt>0</asrwt>
<pdfrwt beam="1">  1       21 0.50852493E-01 0.45270068E+03</pdfrwt>
<pdfrwt beam="2">  1       21 0.21788746E-01 0.45270068E+03</pdfrwt>
<totfact> 0.66910080E+04</totfact>
</mgrwt>
</event>
<event>
 7    0  0.4750554E-002  0.4531553E+03  0.7546771E-02  0.1026785E+00
         21   -1    0    0  502  501  0.00000000000E+00  0.00000000000E+00  0.10249451987E+04  0.10249451987E+04  0.00000000000E+00 0. -1.
         21   -1    0    0  501  502 -0.00000000000E+00 -0.00000000000E+00 -0.50087970720E+02  0.50087970720E+02  0.00000000000E+00 0. -1.
      99926    2    1    2    0    0  0.00000000000E+00  0.00000000000E+00  0.97485722800E+03  0.10750331694E+04  0.45315527186E+03 0.  0.
      99925    2    3    3    0    0 -0.56403009687E+02  0.77894308426E+02  0.74780206214E+03  0.79853655241E+03  0.26306630077E+03 0.  0.
         25    1    4    4    0    0 -0.53378767290E+02  0.68806206729E+01  0.37067507592E+03  0.39489765224E+03  0.12509000000E+03 0.  0.
         25    1    3    3    0    0  0.56403009687E+02 -0.77894308426E+02  0.22705516586E+03  0.27649661703E+03  0.12509000000E+03 0.  0.
         25    1    4    4    0    0 -0.30242423963E+01  0.71013687753E+02  0.37712698622E+03  0.40363890016E+03  0.12509000000E+03 0.  0.
<mgrwt>
<rscale>  2 0.45315527E+03</rscale>
<asrwt>0</asrwt>
<pdfrwt beam="1">  1       21 0.15072722E+00 0.45315527E+03</pdfrwt>
<pdfrwt beam="2">  1       21 0.73658787E-02 0.45315527E+03</pdfrwt>
<totfact> 0.36900365E+04</totfact>
</mgrwt>
</event>
<event>
 7    0  0.4750554E-002  0.4643809E+03  0.7546771E-02  0.1023518E+00
         21   -1    0    0  502  501  0.00000000000E+00  0.00000000000E+00  0.63167035134E+02  0.63167035134E+02  0.00000000000E+00 0.  1.
         21   -1    0    0  501  502 -0.00000000000E+00 -0.00000000000E+00 -0.85348939900E+03  0.85348939900E+03  0.00000000000E+00 0.  1.
      99926    2    1    2    0    0  0.71054273576E-14  0.14210854715E-13 -0.79032236387E+03  0.91665643414E+03  0.46438085599E+03 0.  0.
      99925    2    3    3    0    0 -0.50720625673E+02 -0.97435733137E+02 -0.39089245386E+03  0.48392318481E+03  0.26328394246E+03 0.  0.
         25    1    4    4    0    0 -0.59551880939E+02 -0.63449854600E+02 -0.24541135346E+03  0.28887116692E+03  0.12509000000E+03 0.  0.
         25    1    3    3    0    0  0.50720625673E+02  0.97435733137E+02 -0.39942991001E+03  0.43273324933E+03  0.12509000000E+03 0.  0.
         25    1    4    4    0    0  0.88312552665E+01 -0.33985878537E+02 -0.14548110039E+03  0.19505201789E+03  0.12509000000E+03 0.  0.
<mgrwt>
<rscale>  2 0.46438086E+03</rscale>
<asrwt>0</asrwt>
<pdfrwt beam="1">  1       21 0.92892700E-02 0.46438086E+03</pdfrwt>
<pdfrwt beam="2">  1       21 0.12551315E+00 0.46438086E+03</pdfrwt>
<totfact> 0.39537235E+04</totfact>
</mgrwt>
</event>
<event>
 7    0  0.4750554E-002  0.4756652E+03  0.7546771E-02  0.1020333E+00
         21   -1    0    0  502  501  0.00000000000E+00  0.00000000000E+00  0.66534351196E+03  0.66534351196E+03  0.00000000000E+00 0.  1.
         21   -1    0    0  501  502 -0.00000000000E+00 -0.00000000000E+00 -0.85015236392E+02  0.85015236392E+02  0.00000000000E+00 0.  1.
      99926    2    1    2    0    0  0.00000000000E+00  0.71054273576E-14  0.58032827557E+03  0.75035874835E+03  0.47566515934E+03 0.  0.
      99925    2    3    3    0    0  0.11394623281E+03 -0.51736272900E+02  0.42249847920E+03  0.51325510303E+03  0.26318330106E+03 0.  0.
         25    1    4    4    0    0  0.26300845865E+02 -0.52080598639E+02  0.18345684881E+03  0.22958233104E+03  0.12509000000E+03 0.  0.
         25    1    3    3    0    0 -0.11394623281E+03  0.51736272900E+02  0.15782979637E+03  0.23710364533E+03  0.12509000000E+03 0.  0.
         25    1    4    4    0    0  0.87645386941E+02  0.34432573900E+00  0.23904163038E+03  0.28367277199E+03  0.12509000000E+03 0.  0.
<mgrwt>
<rscale>  2 0.47566516E+03</rscale>
<asrwt>0</asrwt>
<pdfrwt beam="1">  1       21 0.97844631E-01 0.47566516E+03</pdfrwt>
<pdfrwt beam="2">  1       21 0.12502241E-01 0.47566516E+03</pdfrwt>
<totfact> 0.42855881E+04</totfact>
</mgrwt>
</event>
<event>
 7    0  0.4750554E-002  0.4577617E+03  0.7546771E-02  0.1025432E+00
         21   -1    0    0  502  501  0.00000000000E+00  0.00000000000E+00  0.61910629796E+03  0.61910629796E+03  0.00000000000E+00 0.  1.
         21   -1    0    0  501  502 -0.00000000000E+00 -0.00000000000E+00 -0.84616240430E+02  0.84616240430E+02  0.00000000000E+00 0.  1.
      99926    2    1    2    0    0  0.00000000000E+00  0.71054273576E-14  0.53449005753E+03  0.70372253839E+03  0.45776171688E+03 0.  0.
      99925    2    3    3    0    0 -0.51613997512E+02 -0.54185258941E+02  0.19967153619E+03  0.33854998006E+03  0.26295877929E+03 0.  0.
         25    1    4    4    0    0 -0.25142975868E+02 -0.67645832101E+02  0.11495618205E+03  0.18458212191E+03  0.12509000000E+03 0.  0.
         25    1    4    4    0    0 -0.26471021644E+02  0.13460573160E+02  0.84715354132E+02  0.15396785815E+03  0.12509000000E+03 0.  0.
         25    1    3    3    0    0  0.51613997512E+02  0.54185258941E+02  0.33481852134E+03  0.36517255833E+03  0.12509000000E+03 0.  0.
<mgrwt>
<rscale>  2 0.45776172E+03</rscale>
<asrwt>0</asrwt>
<pdfrwt beam="1">  1       21 0.91045041E-01 0.45776172E+03</pdfrwt>
<pdfrwt beam="2">  1       21 0.12443565E-01 0.45776172E+03</pdfrwt>
<totfact> 0.51571383E+04</totfact>
</mgrwt>
</event>
<event>
 7    0  0.4750554E-002  0.4609952E+03  0.7546771E-02  0.1024493E+00
         21   -1    0    0  502  501  0.00000000000E+00  0.00000000000E+00  0.52371901641E+03  0.52371901641E+03  0.00000000000E+00 0.  1.
         21   -1    0    0  501  502 -0.00000000000E+00 -0.00000000000E+00 -0.10144589975E+03  0.10144589975E+03  0.00000000000E+00 0.  1.
      99926    2    1    2    0    0 -0.14210854715E-13  0.00000000000E+00  0.42227311665E+03  0.62516491616E+03  0.46099521402E+03 0.  0.
      99925    2    3    3    0    0 -0.66517029049E+02  0.81085063898E+02  0.18850565117E+03  0.34004382126E+03  0.26286140286E+03 0.  0.
         25    1    4    4    0    0 -0.49757508442E+02  0.20034862864E+02  0.56128720914E+02  0.14722481716E+03  0.12509000000E+03 0.  0.
         25    1    3    3    0    0  0.66517029049E+02 -0.81085063898E+02  0.23376746548E+03  0.28512109490E+03  0.12509000000E+03 0.  0.
         25    1    4    4    0    0 -0.16759520606E+02  0.61050201035E+02  0.13237693025E+03  0.19281900410E+03  0.12509000000E+03 0.  0.
<mgrwt>
<rscale>  2 0.46099521E+03</rscale>
<asrwt>0</asrwt>
<pdfrwt beam="1">  1       21 0.77017501E-01 0.46099521E+03</pdfrwt>
<pdfrwt beam="2">  1       21 0.14918515E-01 0.46099521E+03</pdfrwt>
<totfact> 0.54528102E+04</totfact>
</mgrwt>
</event>
<event>
 7    0  0.4750554E-002  0.4449551E+03  0.7546771E-02  0.1029237E+00
         21   -1    0    0  502  501  0.00000000000E+00  0.00000000000E+00  0.18192264922E+03  0.18192264922E+03  0.00000000000E+00 0. -1.
         21   -1    0    0  501  502 -0.00000000000E+00 -0.00000000000E+00 -0.27207310058E+03  0.27207310058E+03  0.00000000000E+00 0. -1.
      99926    2    1    2    0    0 -0.35527136788E-14  0.00000000000E+00 -0.90150451353E+02  0.45399574980E+03  0.44495509544E+03 0.  0.
      99925    2    3    3    0    0 -0.22188802019E+02 -0.94424960138E+02 -0.20538702355E+02  0.28107461248E+03  0.26300700267E+03 0.  0.
         25    1    3    3    0    0  0.22188802019E+02  0.94424960138E+02 -0.69611748999E+02  0.17292113732E+03  0.12509000000E+03 0.  0.
         25    1    4    4    0    0 -0.29846767430E+02 -0.85850786001E+02 -0.79574228866E+01  0.15482898844E+03  0.12509000000E+03 0.  0.
         25    1    4    4    0    0  0.76579654106E+01 -0.85741741369E+01 -0.12581279468E+02  0.12624562404E+03  0.12509000000E+03 0.  0.
<mgrwt>
<rscale>  2 0.44495510E+03</rscale>
<asrwt>0</asrwt>
<pdfrwt beam="1">  1       21 0.26753331E-01 0.44495510E+03</pdfrwt>
<pdfrwt beam="2">  1       21 0.40010750E-01 0.44495510E+03</pdfrwt>
<totfact> 0.74398709E+04</totfact>
</mgrwt>
</event>
<event>
 7    0  0.4750554E-002  0.4549660E+03  0.7546771E-02  0.1026251E+00
         21   -1    0    0  502  501  0.00000000000E+00  0.00000000000E+00  0.57408564742E+03  0.57408564742E+03  0.00000000000E+00 0.  1.
         21   -1    0    0  501  502 -0.00000000000E+00 -0.00000000000E+00 -0.90140760647E+02  0.90140760647E+02  0.00000000000E+00 0.  1.
      99926    2    1    2    0    0  0.00000000000E+00  0.00000000000E+00  0.48394488678E+03  0.66422640807E+03  0.45496600724E+03 0.  0.
      99925    2    3    3    0    0 -0.23228160219E+02 -0.67454633260E+02  0.43230305201E+03  0.51124254561E+03  0.26342615035E+03 0.  0.
         25    1    3    3    0    0  0.23228160219E+02  0.67454633260E+02  0.51641834764E+02  0.15298386246E+03  0.12509000000E+03 0.  0.
         25    1    4    4    0    0  0.19301554726E+02 -0.78915301957E+01  0.17825759139E+03  0.21876494978E+03  0.12509000000E+03 0.  0.
         25    1    4    4    0    0 -0.42529714945E+02 -0.59563103064E+02  0.25404546062E+03  0.29247759583E+03  0.12509000000E+03 0.  0.
<mgrwt>
<rscale>  2 0.45496601E+03</rscale>
<asrwt>0</asrwt>
<pdfrwt beam="1">  1       21 0.84424358E-01 0.45496601E+03</pdfrwt>
<pdfrwt beam="2">  1       21 0.13255994E-01 0.45496601E+03</pdfrwt>
<totfact> 0.54903098E+04</totfact>
</mgrwt>
</event>
<event>
 7    0  0.4750554E-002  0.4538127E+03  0.7546771E-02  0.1026591E+00
         21   -1    0    0  502  501  0.00000000000E+00  0.00000000000E+00  0.13331382085E+03  0.13331382085E+03  0.00000000000E+00 0.  1.
         21   -1    0    0  501  502 -0.00000000000E+00 -0.00000000000E+00 -0.38620522946E+03  0.38620522946E+03  0.00000000000E+00 0.  1.
      99926    2    1    2    0    0  0.00000000000E+00 -0.14210854715E-13 -0.25289140861E+03  0.51951905031E+03  0.45381271367E+03 0.  0.
      99925    2    3    3    0    0  0.44286115152E+02 -0.10217018370E+03 -0.14478370906E+03  0.32018317989E+03  0.26297326831E+03 0.  0.
         25    1    4    4    0    0  0.25381916798E+02 -0.81570198734E+01 -0.61569115692E+02  0.14194732396E+03  0.12509000000E+03 0.  0.
         25    1    3    3    0    0 -0.44286115152E+02  0.10217018370E+03 -0.10810769955E+03  0.19933587042E+03  0.12509000000E+03 0.  0.
         25    1    4    4    0    0  0.18904198354E+02 -0.94013163831E+02 -0.83214593367E+02  0.17823585593E+03  0.12509000000E+03 0.  0.
<mgrwt>
<rscale>  2 0.45381271E+03</rscale>
<asrwt>0</asrwt>
<pdfrwt beam="1">  1       21 0.19604974E-01 0.45381271E+03</pdfrwt>
<pdfrwt beam="2">  1       21 0.56794886E-01 0.45381271E+03</pdfrwt>
<totfact> 0.64525713E+04</totfact>
</mgrwt>
</event>
<event>
 7    0  0.4750554E-002  0.4417450E+03  0.7546771E-02  0.1030213E+00
         21   -1    0    0  502  501  0.00000000000E+00  0.00000000000E+00  0.38859877907E+03  0.38859877907E+03  0.00000000000E+00 0. -1.
         21   -1    0    0  501  502 -0.00000000000E+00 -0.00000000000E+00 -0.12553992229E+03  0.12553992229E+03  0.00000000000E+00 0. -1.
      99926    2    1    2    0    0  0.35527136788E-14  0.14210854715E-13  0.26305885678E+03  0.51413870136E+03  0.44174499670E+03 0.  0.
      99925    2    3    3    0    0  0.22592703819E+02  0.88591066394E+02  0.21577829780E+03  0.35214559451E+03  0.26284489460E+03 0.  0.
         25    1    4    4    0    0 -0.17138583162E+02  0.71661870066E+02  0.99710395188E+02  0.17612162179E+03  0.12509000000E+03 0.  0.
         25    1    3    3    0    0 -0.22592703819E+02 -0.88591066394E+02  0.47280558982E+02  0.16199310685E+03  0.12509000000E+03 0.  0.
         25    1    4    4    0    0  0.39731286982E+02  0.16929196328E+02  0.11606790261E+03  0.17602397271E+03  0.12509000000E+03 0.  0.
<mgrwt>
<rscale>  2 0.44174500E+03</rscale>
<asrwt>0</asrwt>
<pdfrwt beam="1">  1       21 0.57146879E-01 0.44174500E+03</pdfrwt>
<pdfrwt beam="2">  1       21 0.18461753E-01 0.44174500E+03</pdfrwt>
<totfact> 0.71516442E+04</totfact>
</mgrwt>
</event>
<event>
 7    0  0.4750554E-002  0.4483862E+03  0.7546771E-02  0.1028204E+00
         21   -1    0    0  502  501  0.00000000000E+00  0.00000000000E+00  0.15924118896E+03  0.15924118896E+03  0.00000000000E+00 0.  1.
         21   -1    0    0  501  502 -0.00000000000E+00 -0.00000000000E+00 -0.31563784314E+03  0.31563784314E+03  0.00000000000E+00 0.  1.
      99926    2    1    2    0    0  0.35527136788E-14 -0.14210854715E-13 -0.15639665418E+03  0.47487903210E+03  0.44838619703E+03 0.  0.
      99925    2    3    3    0    0  0.16460963460E+02  0.89262229109E+02 -0.39323419255E+02  0.28099154075E+03  0.26300419352E+03 0.  0.
         25    1    4    4    0    0 -0.31854906259E+02  0.38443121847E+02 -0.14626807273E+02  0.13547715771E+03  0.12509000000E+03 0.  0.
         25    1    4    4    0    0  0.48315869719E+02  0.50819107262E+02 -0.24696611982E+02  0.14551438305E+03  0.12509000000E+03 0.  0.
         25    1    3    3    0    0 -0.16460963460E+02 -0.89262229109E+02 -0.11707323492E+03  0.19388749134E+03  0.12509000000E+03 0.  0.
<mgrwt>
<rscale>  2 0.44838620E+03</rscale>
<asrwt>0</asrwt>
<pdfrwt beam="1">  1       21 0.23417822E-01 0.44838620E+03</pdfrwt>
<pdfrwt beam="2">  1       21 0.46417330E-01 0.44838620E+03</pdfrwt>
<totfact> 0.70714631E+04</totfact>
</mgrwt>
</event>
<event>
 7    0  0.4750554E-002  0.4451534E+03  0.7546771E-02  0.1029177E+00
         21   -1    0    0  502  501  0.00000000000E+00  0.00000000000E+00  0.50652260631E+03  0.50652260631E+03  0.00000000000E+00 0. -1.
         21   -1    0    0  501  502 -0.00000000000E+00 -0.00000000000E+00 -0.97804903259E+02  0.97804903259E+02  0.00000000000E+00 0. -1.
      99926    2    1    2    0    0  0.00000000000E+00 -0.35527136788E-14  0.40871770305E+03  0.60432750957E+03  0.44515343201E+03 0.  0.
      99925    2    3    3    0    0  0.68770881115E+02  0.21993542215E+02  0.15858581058E+03  0.31549083994E+03  0.26300543869E+03 0.  0.
         25    1    4    4    0    0  0.38239469505E+02  0.39859680762E+02  0.11410126402E+03  0.17809451909E+03  0.12509000000E+03 0.  0.
         25    1    3    3    0    0 -0.68770881115E+02 -0.21993542215E+02  0.25013189247E+03  0.28883666962E+03  0.12509000000E+03 0.  0.
         25    1    4    4    0    0  0.30531411611E+02 -0.17866138547E+02  0.44484546555E+02  0.13739632085E+03  0.12509000000E+03 0.  0.
<mgrwt>
<rscale>  2 0.44515343E+03</rscale>
<asrwt>0</asrwt>
<pdfrwt beam="1">  1       21 0.74488617E-01 0.44515343E+03</pdfrwt>
<pdfrwt beam="2">  1       21 0.14383074E-01 0.44515343E+03</pdfrwt>
<totfact> 0.63186134E+04</totfact>
</mgrwt>
</event>
<event>
 7    0  0.4750554E-002  0.4450476E+03  0.7546771E-02  0.1029209E+00
         21   -1    0    0  502  501  0.00000000000E+00  0.00000000000E+00  0.14474470715E+04  0.14474470715E+04  0.00000000000E+00 0.  1.
         21   -1    0    0  501  502 -0.00000000000E+00 -0.00000000000E+00 -0.34209779004E+02  0.34209779004E+02  0.00000000000E+00 0.  1.
      99926    2    1    2    0    0  0.71054273576E-14  0.00000000000E+00  0.14132372925E+04  0.14816568505E+04  0.44504761289E+03 0.  0.
      99925    2    3    3    0    0 -0.24905402095E+02  0.30018661769E+02  0.57874831375E+03  0.63694342995E+03  0.26310819673E+03 0.  0.
         25    1    3    3    0    0  0.24905402095E+02 -0.30018661769E+02  0.83448897871E+03  0.84471342051E+03  0.12509000000E+03 0.  0.
         25    1    4    4    0    0  0.25658800959E+02  0.43793770542E+01  0.25318243808E+03  0.28359550078E+03  0.12509000000E+03 0.  0.
         25    1    4    4    0    0 -0.50564203053E+02  0.25639284715E+02  0.32556587567E+03  0.35334792917E+03  0.12509000000E+03 0.  0.
<mgrwt>
<rscale>  2 0.44504761E+03</rscale>
<asrwt>0</asrwt>
<pdfrwt beam="1">  1       21 0.21285982E+00 0.44504761E+03</pdfrwt>
<pdfrwt beam="2">  1       21 0.50308508E-02 0.44504761E+03</pdfrwt>
<totfact> 0.26200029E+04</totfact>
</mgrwt>
</event>
<event>
 7    0  0.4750554E-002  0.4490430E+03  0.7546771E-02  0.1028008E+00
         21   -1    0    0  502  501  0.00000000000E+00  0.00000000000E+00  0.28081189976E+03  0.28081189976E+03  0.00000000000E+00 0. -1.
         21   -1    0    0  501  502 -0.00000000000E+00 -0.00000000000E+00 -0.17951483940E+03  0.17951483940E+03  0.00000000000E+00 0. -1.
      99926    2    1    2    0    0  0.00000000000E+00  0.35527136788E-14  0.10129706037E+03  0.46032673916E+03  0.44904299610E+03 0.  0.
      99925    2    3    3    0    0 -0.33757161949E+02  0.16208212159E+02  0.16775031409E+03  0.31381464015E+03  0.26255896170E+03 0.  0.
         25    1    3    3    0    0  0.33757161949E+02 -0.16208212159E+02 -0.66453253728E+02  0.14651209901E+03  0.12509000000E+03 0.  0.
         25    1    4    4    0    0 -0.19236274073E+02  0.39674997297E+02  0.11401362421E+03  0.17490212765E+03  0.12509000000E+03 0.  0.
         25    1    4    4    0    0 -0.14520887875E+02 -0.23466785138E+02  0.53736689882E+02  0.13891251250E+03  0.12509000000E+03 0.  0.
<mgrwt>
<rscale>  2 0.44904300E+03</rscale>
<asrwt>0</asrwt>
<pdfrwt beam="1">  1       21 0.41295868E-01 0.44904300E+03</pdfrwt>
<pdfrwt beam="2">  1       21 0.26399241E-01 0.44904300E+03</pdfrwt>
<totfact> 0.71480621E+04</totfact>
</mgrwt>
</event>
<event>
 7    0  0.4750554E-002  0.4571897E+03  0.7546771E-02  0.1025599E+00
         21   -1    0    0  502  501  0.00000000000E+00  0.00000000000E+00  0.87668913123E+02  0.87668913123E+02  0.00000000000E+00 0. -1.
         21   -1    0    0  501  502 -0.00000000000E+00 -0.00000000000E+00 -0.59605618613E+03  0.59605618613E+03  0.00000000000E+00 0. -1.
      99926    2    1    2    0    0 -0.35527136788E-14  0.35527136788E-14 -0.50838727301E+03  0.68372509925E+03  0.45718966742E+03 0.  0.
      99925    2    3    3    0    0 -0.27394325494E+02  0.59223220674E+01 -0.15197797000E+03  0.30496313926E+03  0.26290623799E+03 0.  0.
         25    1    4    4    0    0 -0.35630093431E+02  0.36617474848E+02 -0.83807125616E+02  0.15900152649E+03  0.12509000000E+03 0.  0.
         25    1    4    4    0    0  0.82357679373E+01 -0.30695152781E+02 -0.68170844380E+02  0.14596161277E+03  0.12509000000E+03 0.  0.
         25    1    3    3    0    0  0.27394325494E+02 -0.59223220674E+01 -0.35640930301E+03  0.37876196000E+03  0.12509000000E+03 0.  0.
<mgrwt>
<rscale>  2 0.45718967E+03</rscale>
<asrwt>0</asrwt>
<pdfrwt beam="1">  1       21 0.12892487E-01 0.45718967E+03</pdfrwt>
<pdfrwt beam="2">  1       21 0.87655323E-01 0.45718967E+03</pdfrwt>
<totfact> 0.52878246E+04</totfact>
</mgrwt>
</event>
<event>
 7    0  0.4750554E-002  0.4527875E+03  0.7546771E-02  0.1026894E+00
         21   -1    0    0  502  501  0.00000000000E+00  0.00000000000E+00  0.12123442472E+03  0.12123442472E+03  0.00000000000E+00 0. -1.
         21   -1    0    0  501  502 -0.00000000000E+00 -0.00000000000E+00 -0.42276883618E+03  0.42276883618E+03  0.00000000000E+00 0. -1.
      99926    2    1    2    0    0  0.71054273576E-14 -0.14210854715E-13 -0.30153441146E+03  0.54400326089E+03  0.45278752916E+03 0.  0.
      99925    2    3    3    0    0  0.61958736840E+02 -0.92159500961E+02 -0.19044653526E+03  0.34320414977E+03  0.26303411744E+03 0.  0.
         25    1    3    3    0    0 -0.61958736840E+02  0.92159500961E+02 -0.11108787620E+03  0.20079911112E+03  0.12509000000E+03 0.  0.
         25    1    4    4    0    0  0.19107243473E+02 -0.52472158980E+02 -0.48830166201E+02  0.14543145276E+03  0.12509000000E+03 0.  0.
         25    1    4    4    0    0  0.42851493367E+02 -0.39687341981E+02 -0.14161636906E+03  0.19777269701E+03  0.12509000000E+03 0.  0.
<mgrwt>
<rscale>  2 0.45278753E+03</rscale>
<asrwt>0</asrwt>
<pdfrwt beam="1">  1       21 0.17828592E-01 0.45278753E+03</pdfrwt>
<pdfrwt beam="2">  1       21 0.62171887E-01 0.45278753E+03</pdfrwt>
<totfact> 0.63366652E+04</totfact>
</mgrwt>
</event>
<event>
 7    0  0.4750554E-002  0.4636146E+03  0.7546771E-02  0.1023738E+00
         21   -1    0    0  502  501  0.00000000000E+00  0.00000000000E+00  0.23664062001E+03  0.23664062001E+03  0.00000000000E+00 0. -1.
         21   -1    0    0  501  502 -0.00000000000E+00 -0.00000000000E+00 -0.22707266098E+03  0.22707266098E+03  0.00000000000E+00 0. -1.
      99926    2    1    2    0    0  0.00000000000E+00  0.26645352591E-14  0.95679590220E+01  0.46371328099E+03  0.46361456095E+03 0.  0.
      99925    2    3    3    0    0  0.11355365270E+03  0.73885610083E+01 -0.35321648513E+02  0.28875154849E+03  0.26302246107E+03 0.  0.
         25    1    4    4    0    0  0.64674572881E+02 -0.28803865833E+02  0.53496921416E+01  0.14383528903E+03  0.12509000000E+03 0.  0.
         25    1    4    4    0    0  0.48879079820E+02  0.36192426841E+02 -0.40671340654E+02  0.14491625946E+03  0.12509000000E+03 0.  0.
         25    1    3    3    0    0 -0.11355365270E+03 -0.73885610083E+01  0.44889607535E+02  0.17496173250E+03  0.12509000000E+03 0.  0.
<mgrwt>
<rscale>  2 0.46361456E+03</rscale>
<asrwt>0</asrwt>
<pdfrwt beam="1">  1       21 0.34800091E-01 0.46361456E+03</pdfrwt>
<pdfrwt beam="2">  1       21 0.33393038E-01 0.46361456E+03</pdfrwt>
<totfact> 0.63438267E+04</totfact>
</mgrwt>
</event>
<event>
 7    0  0.4750554E-002  0.4527250E+03  0.7546771E-02  0.1026913E+00
         21   -1    0    0  502  501  0.00000000000E+00  0.00000000000E+00  0.21389661634E+03  0.21389661634E+03  0.00000000000E+00 0.  1.
         21   -1    0    0  501  502 -0.00000000000E+00 -0.00000000000E+00 -0.23955485575E+03  0.23955485575E+03  0.00000000000E+00 0.  1.
      99926    2    1    2    0    0  0.35527136788E-14  0.00000000000E+00 -0.25658239410E+02  0.45345147209E+03  0.45272496318E+03 0.  0.
      99925    2    3    3    0    0  0.18442684430E+02 -0.10573492381E+03  0.12426311403E+02  0.28428307128E+03  0.26294950975E+03 0.  0.
         25    1    4    4    0    0  0.37685723495E+02 -0.38938693278E+02  0.31488454493E+02  0.13991235276E+03  0.12509000000E+03 0.  0.
         25    1    4    4    0    0 -0.19243039065E+02 -0.66796230530E+02 -0.19062143089E+02  0.14437071852E+03  0.12509000000E+03 0.  0.
         25    1    3    3    0    0 -0.18442684430E+02  0.10573492381E+03 -0.38084550813E+02  0.16916840081E+03  0.12509000000E+03 0.  0.
<mgrwt>
<rscale>  2 0.45272496E+03</rscale>
<asrwt>0</asrwt>
<pdfrwt beam="1">  1       21 0.31455385E-01 0.45272496E+03</pdfrwt>
<pdfrwt beam="2">  1       21 0.35228655E-01 0.45272496E+03</pdfrwt>
<totfact> 0.69920021E+04</totfact>
</mgrwt>
</event>
<event>
 7    0  0.4750554E-002  0.4438906E+03  0.7546771E-02  0.1029560E+00
         21   -1    0    0  502  501  0.00000000000E+00  0.00000000000E+00  0.96223346467E+02  0.96223346467E+02  0.00000000000E+00 0.  1.
         21   -1    0    0  501  502 -0.00000000000E+00 -0.00000000000E+00 -0.51193103986E+03  0.51193103986E+03  0.00000000000E+00 0.  1.
      99926    2    1    2    0    0  0.00000000000E+00 -0.17763568394E-14 -0.41570769339E+03  0.60815438632E+03  0.44389060731E+03 0.  0.
      99925    2    3    3    0    0  0.73014244403E+02 -0.10761420925E+02 -0.36158573939E+03  0.45315896036E+03  0.26298651744E+03 0.  0.
         25    1    4    4    0    0  0.36424199784E+02 -0.45733461978E+02 -0.18972356825E+03  0.23465040448E+03  0.12509000000E+03 0.  0.
         25    1    3    3    0    0 -0.73014244403E+02  0.10761420925E+02 -0.54121953996E+02  0.15499542597E+03  0.12509000000E+03 0.  0.
         25    1    4    4    0    0  0.36590044619E+02  0.34972041053E+02 -0.17186217114E+03  0.21850855588E+03  0.12509000000E+03 0.  0.
<mgrwt>
<rscale>  2 0.44389061E+03</rscale>
<asrwt>0</asrwt>
<pdfrwt beam="1">  1       21 0.14150492E-01 0.44389061E+03</pdfrwt>
<pdfrwt beam="2">  1       21 0.75283976E-01 0.44389061E+03</pdfrwt>
<totfact> 0.63577148E+04</totfact>
</mgrwt>
</event>
<event>
 7    0  0.4750554E-002  0.4529663E+03  0.7546771E-02  0.1026841E+00
         21   -1    0    0  502  501  0.00000000000E+00  0.00000000000E+00  0.42788245711E+03  0.42788245711E+03  0.00000000000E+00 0. -1.
         21   -1    0    0  501  502 -0.00000000000E+00 -0.00000000000E+00 -0.11988016149E+03  0.11988016149E+03  0.00000000000E+00 0. -1.
      99926    2    1    2    0    0  0.00000000000E+00  0.00000000000E+00  0.30800229562E+03  0.54776261860E+03  0.45296630363E+03 0.  0.
      99925    2    3    3    0    0  0.37134685422E+02 -0.36917360544E+02  0.31275784145E+03  0.41207179471E+03  0.26314220535E+03 0.  0.
         25    1    4    4    0    0 -0.21287088473E+02 -0.82332440641E+01  0.14171327728E+03  0.19039718354E+03  0.12509000000E+03 0.  0.
         25    1    3    3    0    0 -0.37134685422E+02  0.36917360544E+02 -0.47555458349E+01  0.13569082389E+03  0.12509000000E+03 0.  0.
         25    1    4    4    0    0  0.58421773896E+02 -0.28684116480E+02  0.17104456418E+03  0.22167461117E+03  0.12509000000E+03 0.  0.
<mgrwt>
<rscale>  2 0.45296630E+03</rscale>
<asrwt>0</asrwt>
<pdfrwt beam="1">  1       21 0.62923890E-01 0.45296630E+03</pdfrwt>
<pdfrwt beam="2">  1       21 0.17629436E-01 0.45296630E+03</pdfrwt>
<totfact> 0.63022610E+04</totfact>
</mgrwt>
</event>
<event>
 7    0  0.4750554E-002  0.4550413E+03  0.7546771E-02  0.1026229E+00
         21   -1    0    0  502  501  0.00000000000E+00  0.00000000000E+00  0.11440101963E+03  0.11440101963E+03  0.00000000000E+00 0. -1.
         21   -1    0    0  501  502 -0.00000000000E+00 -0.00000000000E+00 -0.45249279817E+03  0.45249279817E+03  0.00000000000E+00 0. -1.
      99926    2    1    2    0    0  0.35527136788E-14  0.00000000000E+00 -0.33809177854E+03  0.56689381780E+03  0.45504126181E+03 0.  0.
      99925    2    3    3    0    0  0.19603298866E+02 -0.34723636140E+02 -0.34480613572E+03  0.43543047338E+03  0.26290379549E+03 0.  0.
         25    1    4    4    0    0  0.38477164269E+02 -0.45243693554E+02 -0.19312102534E+03  0.23763569283E+03  0.12509000000E+03 0.  0.
         25    1    4    4    0    0 -0.18873865404E+02  0.10520057414E+02 -0.15168511038E+03  0.19779478056E+03  0.12509000000E+03 0.  0.
         25    1    3    3    0    0 -0.19603298866E+02  0.34723636140E+02  0.67143571882E+01  0.13146334442E+03  0.12509000000E+03 0.  0.
<mgrwt>
<rscale>  2 0.45504126E+03</rscale>
<asrwt>0</asrwt>
<pdfrwt beam="1">  1       21 0.16823679E-01 0.45504126E+03</pdfrwt>
<pdfrwt beam="2">  1       21 0.66543058E-01 0.45504126E+03</pdfrwt>
<totfact> 0.60743942E+04</totfact>
</mgrwt>
</event>
<event>
 7    0  0.4750554E-002  0.4652459E+03  0.7546771E-02  0.1023271E+00
         21   -1    0    0  502  501  0.00000000000E+00  0.00000000000E+00  0.54310051481E+02  0.54310051481E+02  0.00000000000E+00 0.  1.
         21   -1    0    0  501  502 -0.00000000000E+00 -0.00000000000E+00 -0.99637975070E+03  0.99637975070E+03  0.00000000000E+00 0.  1.
      99926    2    1    2    0    0  0.00000000000E+00  0.00000000000E+00 -0.94206969921E+03  0.10506898022E+04  0.46524589436E+03 0.  0.
      99925    2    3    3    0    0  0.91303072517E+02  0.36446023824E+02 -0.75277536512E+03  0.80341583120E+03  0.26294806290E+03 0.  0.
         25    1    4    4    0    0  0.86642101137E+02  0.13905823374E+02 -0.43956058871E+03  0.46536141317E+03  0.12509000000E+03 0.  0.
         25    1    3    3    0    0 -0.91303072517E+02 -0.36446023824E+02 -0.18929433409E+03  0.24727397098E+03  0.12509000000E+03 0.  0.
         25    1    4    4    0    0  0.46609713804E+01  0.22540200450E+02 -0.31321477641E+03  0.33805441803E+03  0.12509000000E+03 0.  0.
<mgrwt>
<rscale>  2 0.46524589E+03</rscale>
<asrwt>0</asrwt>
<pdfrwt beam="1">  1       21 0.79867729E-02 0.46524589E+03</pdfrwt>
<pdfrwt beam="2">  1       21 0.14652642E+00 0.46524589E+03</pdfrwt>
<totfact> 0.34416251E+04</totfact>
</mgrwt>
</event>
<event>
 7    0  0.4750554E-002  0.4558580E+03  0.7546771E-02  0.1025989E+00
         21   -1    0    0  502  501  0.00000000000E+00  0.00000000000E+00  0.18742954970E+03  0.18742954970E+03  0.00000000000E+00 0.  1.
         21   -1    0    0  501  502 -0.00000000000E+00 -0.00000000000E+00 -0.27717944895E+03  0.27717944895E+03  0.00000000000E+00 0.  1.
      99926    2    1    2    0    0  0.00000000000E+00  0.00000000000E+00 -0.89749899249E+02  0.46460899865E+03  0.45585795728E+03 0.  0.
      99925    2    3    3    0    0  0.89410072331E+02  0.66045689509E+02 -0.29257421735E+02  0.28666787897E+03  0.26261432172E+03 0.  0.
         25    1    4    4    0    0  0.84588488626E+02  0.47988384728E+02 -0.10365327224E+02  0.15878616308E+03  0.12509000000E+03 0.  0.
         25    1    3    3    0    0 -0.89410072331E+02 -0.66045689509E+02 -0.60492477514E+02  0.17794111968E+03  0.12509000000E+03 0.  0.
         25    1    4    4    0    0  0.48215837047E+01  0.18057304781E+02 -0.18892094512E+02  0.12788171590E+03  0.12509000000E+03 0.  0.
<mgrwt>
<rscale>  2 0.45585796E+03</rscale>
<asrwt>0</asrwt>
<pdfrwt beam="1">  1       21 0.27563169E-01 0.45585796E+03</pdfrwt>
<pdfrwt beam="2">  1       21 0.40761683E-01 0.45585796E+03</pdfrwt>
<totfact> 0.67378548E+04</totfact>
</mgrwt>
</event>
<event>
 7    0  0.4750554E-002  0.4413864E+03  0.7546771E-02  0.1030322E+00
         21   -1    0    0  502  501  0.00000000000E+00  0.00000000000E+00  0.33142523183E+03  0.33142523183E+03  0.00000000000E+00 0.  1.
         21   -1    0    0  501  502 -0.00000000000E+00 -0.00000000000E+00 -0.14695769234E+03  0.14695769234E+03  0.00000000000E+00 0.  1.
      99926    2    1    2    0    0  0.00000000000E+00  0.00000000000E+00  0.18446753948E+03  0.47838292417E+03  0.44138639423E+03 0.  0.
      99925    2    3    3    0    0 -0.44188661917E+02  0.67601696342E+02  0.54048915272E+02  0.28044567949E+03  0.26307007947E+03 0.  0.
         25    1    3    3    0    0  0.44188661917E+02 -0.67601696342E+02  0.13041862421E+03  0.19793724468E+03  0.12509000000E+03 0.  0.
         25    1    4    4    0    0 -0.46912223294E+02  0.64266190543E+02  0.45112142048E+02  0.15496294203E+03  0.12509000000E+03 0.  0.
         25    1    4    4    0    0  0.27235613772E+01  0.33355057995E+01  0.89367732236E+01  0.12548273746E+03  0.12509000000E+03 0.  0.
<mgrwt>
<rscale>  2 0.44138639E+03</rscale>
<asrwt>0</asrwt>
<pdfrwt beam="1">  1       21 0.48739005E-01 0.44138639E+03</pdfrwt>
<pdfrwt beam="2">  1       21 0.21611425E-01 0.44138639E+03</pdfrwt>
<totfact> 0.74555218E+04</totfact>
</mgrwt>
</event>
<event>
 7    0  0.4750554E-002  0.5096231E+03  0.7546771E-02  0.1011297E+00
         21   -1    0    0  502  501  0.00000000000E+00  0.00000000000E+00  0.18497990933E+03  0.18497990933E+03  0.00000000000E+00 0.  1.
         21   -1    0    0  501  502 -0.00000000000E+00 -0.00000000000E+00 -0.35100528197E+03  0.35100528197E+03  0.00000000000E+00 0.  1.
      99926    2    1    2    0    0 -0.35527136788E-14  0.28421709430E-13 -0.16602537264E+03  0.53598519130E+03  0.50962309694E+03 0.  0.
      99925    2    3    3    0    0  0.21217405248E+02 -0.14910997214E+03 -0.15381049349E+03  0.33982027738E+03  0.26293761795E+03 0.  0.
         25    1    4    4    0    0  0.43375227760E+02 -0.10238235815E+03 -0.77570021862E+02  0.18446727090E+03  0.12509000000E+03 0.  0.
         25    1    4    4    0    0 -0.22157822512E+02 -0.46727613996E+02 -0.76240471629E+02  0.15535300648E+03  0.12509000000E+03 0.  0.
         25    1    3    3    0    0 -0.21217405248E+02  0.14910997214E+03 -0.12214879146E+02  0.19616491391E+03  0.12509000000E+03 0.  0.
<mgrwt>
<rscale>  2 0.50962310E+03</rscale>
<asrwt>0</asrwt>
<pdfrwt beam="1">  1       21 0.27202928E-01 0.50962310E+03</pdfrwt>
<pdfrwt beam="2">  1       21 0.51618424E-01 0.50962310E+03</pdfrwt>
<totfact> 0.41623797E+04</totfact>
</mgrwt>
</event>
<event>
 7    0  0.4750554E-002  0.4558684E+03  0.7546771E-02  0.1025986E+00
         21   -1    0    0  502  501  0.00000000000E+00  0.00000000000E+00  0.39958005121E+03  0.39958005121E+03  0.00000000000E+00 0. -1.
         21   -1    0    0  501  502 -0.00000000000E+00 -0.00000000000E+00 -0.13002150877E+03  0.13002150877E+03  0.00000000000E+00 0. -1.
      99926    2    1    2    0    0  0.00000000000E+00  0.00000000000E+00  0.26955854244E+03  0.52960155998E+03  0.45586840703E+03 0.  0.
      99925    2    3    3    0    0  0.19037306604E+02 -0.78749397008E+02  0.26284554858E+03  0.38041557217E+03  0.26280094857E+03 0.  0.
         25    1    4    4    0    0  0.23325740205E+02 -0.49955696895E+01  0.97988105665E+02  0.16068049920E+03  0.12509000000E+03 0.  0.
         25    1    4    4    0    0 -0.42884336014E+01 -0.73753827318E+02  0.16485744291E+03  0.21973507296E+03  0.12509000000E+03 0.  0.
         25    1    3    3    0    0 -0.19037306604E+02  0.78749397008E+02  0.67129938671E+01  0.14918598781E+03  0.12509000000E+03 0.  0.
<mgrwt>
<rscale>  2 0.45586841E+03</rscale>
<asrwt>0</asrwt>
<pdfrwt beam="1">  1       21 0.58761772E-01 0.45586841E+03</pdfrwt>
<pdfrwt beam="2">  1       21 0.19120810E-01 0.45586841E+03</pdfrwt>
<totfact> 0.62800137E+04</totfact>
</mgrwt>
</event>
<event>
 7    0  0.4750554E-002  0.4530092E+03  0.7546771E-02  0.1026828E+00
         21   -1    0    0  502  501  0.00000000000E+00  0.00000000000E+00  0.30394993651E+03  0.30394993651E+03  0.00000000000E+00 0. -1.
         21   -1    0    0  501  502 -0.00000000000E+00 -0.00000000000E+00 -0.16879204284E+03  0.16879204284E+03  0.00000000000E+00 0. -1.
      99926    2    1    2    0    0  0.00000000000E+00  0.53290705182E-14  0.13515789366E+03  0.47274197935E+03  0.45300918624E+03 0.  0.
      99925    2    3    3    0    0  0.15371199319E+02  0.60816933329E+01 -0.29657910509E+02  0.26517267004E+03  0.26298990954E+03 0.  0.
         25    1    3    3    0    0 -0.15371199319E+02 -0.60816933329E+01  0.16481580417E+03  0.20756930931E+03  0.12509000000E+03 0.  0.
         25    1    4    4    0    0  0.22048455444E+02  0.39773204256E+02 -0.24602376938E+02  0.13535445030E+03  0.12509000000E+03 0.  0.
         25    1    4    4    0    0 -0.66772561247E+01 -0.33691510923E+02 -0.50555335707E+01  0.12981821974E+03  0.12509000000E+03 0.  0.
<mgrwt>
<rscale>  2 0.45300919E+03</rscale>
<asrwt>0</asrwt>
<pdfrwt beam="1">  1       21 0.44698520E-01 0.45300919E+03</pdfrwt>
<pdfrwt beam="2">  1       21 0.24822359E-01 0.45300919E+03</pdfrwt>
<totfact> 0.68305079E+04</totfact>
</mgrwt>
</event>
<event>
 7    0  0.4750554E-002  0.4546654E+03  0.7546771E-02  0.1026340E+00
         21   -1    0    0  502  501  0.00000000000E+00  0.00000000000E+00  0.16557593014E+04  0.16557593014E+04  0.00000000000E+00 0. -1.
         21   -1    0    0  501  502 -0.00000000000E+00 -0.00000000000E+00 -0.31212358061E+02  0.31212358061E+02  0.00000000000E+00 0. -1.
      99926    2    1    2    0    0  0.00000000000E+00  0.00000000000E+00  0.16245469433E+04  0.16869716594E+04  0.45466538103E+03 0.  0.
      99925    2    3    3    0    0 -0.68940374134E+02 -0.66635059673E+02  0.80169808007E+03  0.84916454189E+03  0.26299734078E+03 0.  0.
         25    1    4    4    0    0 -0.25729291103E+02  0.80230121809E+01  0.36143179465E+03  0.38341467816E+03  0.12509000000E+03 0.  0.
         25    1    4    4    0    0 -0.43211083031E+02 -0.74658071854E+02  0.44026628542E+03  0.46574986373E+03  0.12509000000E+03 0.  0.
         25    1    3    3    0    0  0.68940374134E+02  0.66635059673E+02  0.82284886322E+03  0.83780711752E+03  0.12509000000E+03 0.  0.
<mgrwt>
<rscale>  2 0.45466538E+03</rscale>
<asrwt>0</asrwt>
<pdfrwt beam="1">  1       21 0.24349396E+00 0.45466538E+03</pdfrwt>
<pdfrwt beam="2">  1       21 0.45900538E-02 0.45466538E+03</pdfrwt>
<totfact> 0.19584848E+04</totfact>
</mgrwt>
</event>
<event>
 7    0  0.4750554E-002  0.4575014E+03  0.7546771E-02  0.1025508E+00
         21   -1    0    0  502  501  0.00000000000E+00  0.00000000000E+00  0.67473467473E+03  0.67473467473E+03  0.00000000000E+00 0. -1.
         21   -1    0    0  501  502 -0.00000000000E+00 -0.00000000000E+00 -0.77551806078E+02  0.77551806078E+02  0.00000000000E+00 0. -1.
      99926    2    1    2    0    0  0.00000000000E+00  0.14210854715E-13  0.59718286865E+03  0.75228648081E+03  0.45750144327E+03 0.  0.
      99925    2    3    3    0    0 -0.22032494444E+02  0.10310315744E+03  0.45243772050E+03  0.53385031645E+03  0.26302200965E+03 0.  0.
         25    1    3    3    0    0  0.22032494444E+02 -0.10310315744E+03  0.14474514815E+03  0.21843616436E+03  0.12509000000E+03 0.  0.
         25    1    4    4    0    0 -0.19309015634E+02  0.93133849163E+02  0.23269643713E+03  0.28078798389E+03  0.12509000000E+03 0.  0.
         25    1    4    4    0    0 -0.27234788106E+01  0.99693082749E+01  0.21974128337E+03  0.25306233256E+03  0.12509000000E+03 0.  0.
<mgrwt>
<rscale>  2 0.45750144E+03</rscale>
<asrwt>0</asrwt>
<pdfrwt beam="1">  1       21 0.99225684E-01 0.45750144E+03</pdfrwt>
<pdfrwt beam="2">  1       21 0.11404678E-01 0.45750144E+03</pdfrwt>
<totfact> 0.49180399E+04</totfact>
</mgrwt>
</event>
<event>
 7    0  0.4750554E-002  0.4565589E+03  0.7546771E-02  0.1025784E+00
         21   -1    0    0  502  501  0.00000000000E+00  0.00000000000E+00  0.23316345255E+04  0.23316345255E+04  0.00000000000E+00 0. -1.
         21   -1    0    0  501  502 -0.00000000000E+00 -0.00000000000E+00 -0.22349778346E+02  0.22349778346E+02  0.00000000000E+00 0. -1.
      99926    2    1    2    0    0  0.35527136788E-14  0.00000000000E+00  0.23092847472E+04  0.23539843039E+04  0.45655893302E+03 0.  0.
      99925    2    3    3    0    0 -0.28617535128E+02 -0.31041802079E+02  0.20004615872E+04  0.20181244982E+04  0.26305393322E+03 0.  0.
         25    1    4    4    0    0  0.22153487110E+02  0.34400389863E+01  0.94977125714E+03  0.95823564944E+03  0.12509000000E+03 0.  0.
         25    1    4    4    0    0 -0.50771022237E+02 -0.34481841065E+02  0.10506903300E+04  0.10598888488E+04  0.12509000000E+03 0.  0.
         25    1    3    3    0    0  0.28617535128E+02  0.31041802079E+02  0.30882316001E+03  0.33585980565E+03  0.12509000000E+03 0.  0.
<mgrwt>
<rscale>  2 0.45655893E+03</rscale>
<asrwt>0</asrwt>
<pdfrwt beam="1">  1       21 0.34288726E+00 0.45655893E+03</pdfrwt>
<pdfrwt beam="2">  1       21 0.32867337E-02 0.45655893E+03</pdfrwt>
<totfact> 0.86384618E+03</totfact>
</mgrwt>
</event>
<event>
 7    0  0.4750554E-002  0.4389355E+03  0.7546771E-02  0.1031074E+00
         21   -1    0    0  502  501  0.00000000000E+00  0.00000000000E+00  0.15179718845E+04  0.15179718845E+04  0.00000000000E+00 0. -1.
         21   -1    0    0  501  502 -0.00000000000E+00 -0.00000000000E+00 -0.31730560648E+02  0.31730560648E+02  0.00000000000E+00 0. -1.
      99926    2    1    2    0    0  0.00000000000E+00  0.71054273576E-14  0.14862413238E+04  0.15497024451E+04  0.43893552576E+03 0.  0.
      99925    2    3    3    0    0 -0.62976064587E+02 -0.32395219549E+02  0.71524695264E+03  0.76542235264E+03  0.26320664829E+03 0.  0.
         25    1    3    3    0    0  0.62976064587E+02  0.32395219549E+02  0.77099437121E+03  0.78428009250E+03  0.12509000000E+03 0.  0.
         25    1    4    4    0    0 -0.15776915246E+02 -0.53936473048E+02  0.35631870974E+03  0.38179652328E+03  0.12509000000E+03 0.  0.
         25    1    4    4    0    0 -0.47199149342E+02  0.21541253500E+02  0.35892824290E+03  0.38362582936E+03  0.12509000000E+03 0.  0.
<mgrwt>
<rscale>  2 0.43893553E+03</rscale>
<asrwt>0</asrwt>
<pdfrwt beam="1">  1       21 0.22323111E+00 0.43893553E+03</pdfrwt>
<pdfrwt beam="2">  1       21 0.46662600E-02 0.43893553E+03</pdfrwt>
<totfact> 0.25639796E+04</totfact>
</mgrwt>
</event>
<event>
 7    0  0.4750554E-002  0.4625859E+03  0.7546771E-02  0.1024034E+00
         21   -1    0    0  502  501  0.00000000000E+00  0.00000000000E+00  0.17691233022E+03  0.17691233022E+03  0.00000000000E+00 0.  1.
         21   -1    0    0  501  502 -0.00000000000E+00 -0.00000000000E+00 -0.30238948144E+03  0.30238948144E+03  0.00000000000E+00 0.  1.
      99926    2    1    2    0    0  0.00000000000E+00  0.00000000000E+00 -0.12547715122E+03  0.47930181165E+03  0.46258589600E+03 0.  0.
      99925    2    3    3    0    0 -0.93808380225E+02  0.33867590698E+02 -0.89755556851E+01  0.28139487453E+03  0.26297431227E+03 0.  0.
         25    1    4    4    0    0 -0.36392665388E+02  0.70903117570E+01  0.33838750964E+02  0.13478600737E+03  0.12509000000E+03 0.  0.
         25    1    4    4    0    0 -0.57415714837E+02  0.26777278940E+02 -0.42814306649E+02  0.14660886717E+03  0.12509000000E+03 0.  0.
         25    1    3    3    0    0  0.93808380225E+02 -0.33867590698E+02 -0.11650159553E+03  0.19790693712E+03  0.12509000000E+03 0.  0.
<mgrwt>
<rscale>  2 0.46258590E+03</rscale>
<asrwt>0</asrwt>
<pdfrwt beam="1">  1       21 0.26016519E-01 0.46258590E+03</pdfrwt>
<pdfrwt beam="2">  1       21 0.44469041E-01 0.46258590E+03</pdfrwt>
<totfact> 0.62879546E+04</totfact>
</mgrwt>
</event>
<event>
 7    0  0.4750554E-002  0.4523219E+03  0.7546771E-02  0.1027032E+00
         21   -1    0    0  502  501  0.00000000000E+00  0.00000000000E+00  0.18557050799E+03  0.18557050799E+03  0.00000000000E+00 0. -1.
         21   -1    0    0  501  502 -0.00000000000E+00 -0.00000000000E+00 -0.27562984754E+03  0.27562984754E+03  0.00000000000E+00 0. -1.
      99926    2    1    2    0    0  0.00000000000E+00  0.00000000000E+00 -0.90059339551E+02  0.46120035553E+03  0.45232188019E+03 0.  0.
      99925    2    3    3    0    0  0.65910138039E+02  0.88585421821E+02 -0.64598768420E+02  0.29241862655E+03  0.26295271251E+03 0.  0.
         25    1    4    4    0    0  0.52296278853E+02  0.61357951202E+02 -0.68031354311E+02  0.16363212468E+03  0.12509000000E+03 0.  0.
         25    1    4    4    0    0  0.13613859186E+02  0.27227470619E+02  0.34325858915E+01  0.12878650187E+03  0.12509000000E+03 0.  0.
         25    1    3    3    0    0 -0.65910138039E+02 -0.88585421821E+02 -0.25460571132E+02  0.16878172898E+03  0.12509000000E+03 0.  0.
<mgrwt>
<rscale>  2 0.45232188E+03</rscale>
<asrwt>0</asrwt>
<pdfrwt beam="1">  1       21 0.27289781E-01 0.45232188E+03</pdfrwt>
<pdfrwt beam="2">  1       21 0.40533801E-01 0.45232188E+03</pdfrwt>
<totfact> 0.69562376E+04</totfact>
</mgrwt>
</event>
<event>
 7    0  0.4750554E-002  0.4586808E+03  0.7546771E-02  0.1025165E+00
         21   -1    0    0  502  501  0.00000000000E+00  0.00000000000E+00  0.18202112694E+03  0.18202112694E+03  0.00000000000E+00 0.  1.
         21   -1    0    0  501  502 -0.00000000000E+00 -0.00000000000E+00 -0.28896102992E+03  0.28896102992E+03  0.00000000000E+00 0.  1.
      99926    2    1    2    0    0  0.00000000000E+00 -0.14210854715E-13 -0.10693990298E+03  0.47098215685E+03  0.45868077050E+03 0.  0.
      99925    2    3    3    0    0  0.64572334194E+02  0.64656281561E+02 -0.14137360650E+03  0.31228997328E+03  0.26303708809E+03 0.  0.
         25    1    4    4    0    0  0.13739495216E+02  0.64204790266E+02 -0.91657951846E+02  0.16840343541E+03  0.12509000000E+03 0.  0.
         25    1    4    4    0    0  0.50832838978E+02  0.45149129535E+00 -0.49715654652E+02  0.14388653787E+03  0.12509000000E+03 0.  0.
         25    1    3    3    0    0 -0.64572334194E+02 -0.64656281561E+02  0.34433703522E+02  0.15869218357E+03  0.12509000000E+03 0.  0.
<mgrwt>
<rscale>  2 0.45868077E+03</rscale>
<asrwt>0</asrwt>
<pdfrwt beam="1">  1       21 0.26767813E-01 0.45868077E+03</pdfrwt>
<pdfrwt beam="2">  1       21 0.42494269E-01 0.45868077E+03</pdfrwt>
<totfact> 0.65431461E+04</totfact>
</mgrwt>
</event>
<event>
 7    0  0.4750554E-002  0.4524163E+03  0.7546771E-02  0.1027004E+00
         21   -1    0    0  502  501  0.00000000000E+00  0.00000000000E+00  0.27522844353E+02  0.27522844353E+02  0.00000000000E+00 0.  1.
         21   -1    0    0  501  502 -0.00000000000E+00 -0.00000000000E+00 -0.18591871398E+04  0.18591871398E+04  0.00000000000E+00 0.  1.
      99926    2    1    2    0    0  0.00000000000E+00  0.00000000000E+00 -0.18316642954E+04  0.18867099841E+04  0.45241626085E+03 0.  0.
      99925    2    3    3    0    0 -0.15999655827E+02 -0.10815486348E+02 -0.69870323588E+03  0.74670067089E+03  0.26268368116E+03 0.  0.
         25    1    4    4    0    0 -0.10543221802E+02  0.15067270062E+02 -0.44482960904E+03  0.46244899323E+03  0.12509000000E+03 0.  0.
         25    1    3    3    0    0  0.15999655827E+02  0.10815486348E+02 -0.11329610595E+04  0.11400093132E+04  0.12509000000E+03 0.  0.
         25    1    4    4    0    0 -0.54564340247E+01 -0.25882756410E+02 -0.25387362684E+03  0.28425167767E+03  0.12509000000E+03 0.  0.
<mgrwt>
<rscale>  2 0.45241626E+03</rscale>
<asrwt>0</asrwt>
<pdfrwt beam="1">  1       21 0.40474771E-02 0.45241626E+03</pdfrwt>
<pdfrwt beam="2">  1       21 0.27340988E+00 0.45241626E+03</pdfrwt>
<totfact> 0.15966635E+04</totfact>
</mgrwt>
</event>
<event>
 7    0  0.4750554E-002  0.4509837E+03  0.7546771E-02  0.1027429E+00
         21   -1    0    0  502  501  0.00000000000E+00  0.00000000000E+00  0.47340561882E+03  0.47340561882E+03  0.00000000000E+00 0. -1.
         21   -1    0    0  501  502 -0.00000000000E+00 -0.00000000000E+00 -0.10740593027E+03  0.10740593027E+03  0.00000000000E+00 0. -1.
      99926    2    1    2    0    0  0.35527136788E-14  0.14210854715E-13  0.36599968855E+03  0.58081154909E+03  0.45098368434E+03 0.  0.
      99925    2    3    3    0    0  0.21644718620E+02  0.10596939838E+03  0.24274572033E+03  0.37456641334E+03  0.26396307702E+03 0.  0.
         25    1    3    3    0    0 -0.21644718620E+02 -0.10596939838E+03  0.12325396822E+03  0.20624513575E+03  0.12509000000E+03 0.  0.
         25    1    4    4    0    0  0.44628888231E+02  0.67501071053E+02  0.15695222775E+03  0.21640157614E+03  0.12509000000E+03 0.  0.
         25    1    4    4    0    0 -0.22984169611E+02  0.38468327325E+02  0.85793492573E+02  0.15816483720E+03  0.12509000000E+03 0.  0.
<mgrwt>
<rscale>  2 0.45098368E+03</rscale>
<asrwt>0</asrwt>
<pdfrwt beam="1">  1       21 0.69618472E-01 0.45098368E+03</pdfrwt>
<pdfrwt beam="2">  1       21 0.15794990E-01 0.45098368E+03</pdfrwt>
<totfact> 0.61814589E+04</totfact>
</mgrwt>
</event>
<event>
 7    0  0.4750554E-002  0.4548283E+03  0.7546771E-02  0.1026292E+00
         21   -1    0    0  502  501  0.00000000000E+00  0.00000000000E+00  0.10188916981E+03  0.10188916981E+03  0.00000000000E+00 0. -1.
         21   -1    0    0  501  502 -0.00000000000E+00 -0.00000000000E+00 -0.50758289292E+03  0.50758289292E+03  0.00000000000E+00 0. -1.
      99926    2    1    2    0    0  0.00000000000E+00  0.00000000000E+00 -0.40569372311E+03  0.60947206274E+03  0.45482831737E+03 0.  0.
      99925    2    3    3    0    0 -0.90612901681E+02 -0.66850674509E+02 -0.26813583061E+03  0.39210280888E+03  0.26299824798E+03 0.  0.
         25    1    3    3    0    0  0.90612901681E+02  0.66850674509E+02 -0.13755789250E+03  0.21736925386E+03  0.12509000000E+03 0.  0.
         25    1    4    4    0    0 -0.32348987357E+02 -0.22872809647E+02 -0.76474939387E+02  0.15187345673E+03  0.12509000000E+03 0.  0.
         25    1    4    4    0    0 -0.58263914324E+02 -0.43977864862E+02 -0.19166089122E+03  0.24022935215E+03  0.12509000000E+03 0.  0.
<mgrwt>
<rscale>  2 0.45482832E+03</rscale>
<asrwt>0</asrwt>
<pdfrwt beam="1">  1       21 0.14983701E-01 0.45482832E+03</pdfrwt>
<pdfrwt beam="2">  1       21 0.74644543E-01 0.45482832E+03</pdfrwt>
<totfact> 0.58177851E+04</totfact>
</mgrwt>
</event>
<event>
 7    0  0.4750554E-002  0.4577744E+03  0.7546771E-02  0.1025429E+00
         21   -1    0    0  502  501  0.00000000000E+00  0.00000000000E+00  0.69163620396E+03  0.69163620396E+03  0.00000000000E+00 0. -1.
         21   -1    0    0  501  502 -0.00000000000E+00 -0.00000000000E+00 -0.75746967614E+02  0.75746967614E+02  0.00000000000E+00 0. -1.
      99926    2    1    2    0    0  0.00000000000E+00  0.00000000000E+00  0.61588923634E+03  0.76738317157E+03  0.45777437736E+03 0.  0.
      99925    2    3    3    0    0 -0.63753909955E+02 -0.10038428182E+02  0.22556216410E+03  0.35245177664E+03  0.26301831478E+03 0.  0.
         25    1    3    3    0    0  0.63753909955E+02  0.10038428182E+02  0.39032707224E+03  0.41493139493E+03  0.12509000000E+03 0.  0.
         25    1    4    4    0    0 -0.22835263085E+01  0.23696066915E+02  0.11046863483E+03  0.16857504400E+03  0.12509000000E+03 0.  0.
         25    1    4    4    0    0 -0.61470383646E+02 -0.33734495097E+02  0.11509352927E+03  0.18387673264E+03  0.12509000000E+03 0.  0.
<mgrwt>
<rscale>  2 0.45777438E+03</rscale>
<asrwt>0</asrwt>
<pdfrwt beam="1">  1       21 0.10171120E+00 0.45777438E+03</pdfrwt>
<pdfrwt beam="2">  1       21 0.11139260E-01 0.45777438E+03</pdfrwt>
<totfact> 0.48321719E+04</totfact>
</mgrwt>
</event>
<event>
 7    0  0.4750554E-002  0.4540188E+03  0.7546771E-02  0.1026530E+00
         21   -1    0    0  502  501  0.00000000000E+00  0.00000000000E+00  0.49414432473E+03  0.49414432473E+03  0.00000000000E+00 0. -1.
         21   -1    0    0  501  502 -0.00000000000E+00 -0.00000000000E+00 -0.10428787229E+03  0.10428787229E+03  0.00000000000E+00 0. -1.
      99926    2    1    2    0    0  0.35527136788E-14 -0.71054273576E-14  0.38985645244E+03  0.59843219703E+03  0.45401876716E+03 0.  0.
      99925    2    3    3    0    0 -0.28518499350E+02  0.62731949668E+02  0.12902326447E+03  0.30106027104E+03  0.26313814188E+03 0.  0.
         25    1    4    4    0    0  0.34808705881E+01 -0.45459489053E+01  0.45640141285E+02  0.13327907828E+03  0.12509000000E+03 0.  0.
         25    1    3    3    0    0  0.28518499350E+02 -0.62731949668E+02  0.26083318797E+03  0.29737192598E+03  0.12509000000E+03 0.  0.
         25    1    4    4    0    0 -0.31999369938E+02  0.67277898574E+02  0.83383123180E+02  0.16778119276E+03  0.12509000000E+03 0.  0.
<mgrwt>
<rscale>  2 0.45401877E+03</rscale>
<asrwt>0</asrwt>
<pdfrwt beam="1">  1       21 0.72668282E-01 0.45401877E+03</pdfrwt>
<pdfrwt beam="2">  1       21 0.15336452E-01 0.45401877E+03</pdfrwt>
<totfact> 0.59232788E+04</totfact>
</mgrwt>
</event>
<event>
 7    0  0.4750554E-002  0.4463757E+03  0.7546771E-02  0.1028808E+00
         21   -1    0    0  502  501  0.00000000000E+00  0.00000000000E+00  0.97972013023E+02  0.97972013023E+02  0.00000000000E+00 0. -1.
         21   -1    0    0  501  502 -0.00000000000E+00 -0.00000000000E+00 -0.50843932149E+03  0.50843932149E+03  0.00000000000E+00 0. -1.
      99926    2    1    2    0    0 -0.71054273576E-14  0.71054273576E-14 -0.41046730847E+03  0.60641133452E+03  0.44637573333E+03 0.  0.
      99925    2    3    3    0    0 -0.43167859570E+02  0.60123527062E+02 -0.36132223604E+03  0.45298040918E+03  0.26298134960E+03 0.  0.
         25    1    4    4    0    0  0.10296599436E+02  0.16199699665E+02 -0.13291909428E+03  0.18353049870E+03  0.12509000000E+03 0.  0.
         25    1    4    4    0    0 -0.53464459006E+02  0.43923827397E+02 -0.22840314176E+03  0.26944991048E+03  0.12509000000E+03 0.  0.
         25    1    3    3    0    0  0.43167859570E+02 -0.60123527062E+02 -0.49145072430E+02  0.15343092534E+03  0.12509000000E+03 0.  0.
<mgrwt>
<rscale>  2 0.44637573E+03</rscale>
<asrwt>0</asrwt>
<pdfrwt beam="1">  1       21 0.14407649E-01 0.44637573E+03</pdfrwt>
<pdfrwt beam="2">  1       21 0.74770488E-01 0.44637573E+03</pdfrwt>
<totfact> 0.62431103E+04</totfact>
</mgrwt>
</event>
<event>
 7    0  0.4750554E-002  0.4529829E+03  0.7546771E-02  0.1026836E+00
         21   -1    0    0  502  501  0.00000000000E+00  0.00000000000E+00  0.65195829049E+02  0.65195829049E+02  0.00000000000E+00 0. -1.
         21   -1    0    0  501  502 -0.00000000000E+00 -0.00000000000E+00 -0.78683513302E+03  0.78683513302E+03  0.00000000000E+00 0. -1.
      99926    2    1    2    0    0  0.00000000000E+00  0.00000000000E+00 -0.72163930397E+03  0.85203096207E+03  0.45298286423E+03 0.  0.
      99925    2    3    3    0    0 -0.61369024397E+02  0.92786155261E+02 -0.45548361799E+03  0.53760802232E+03  0.26302401342E+03 0.  0.
         25    1    4    4    0    0 -0.43865043350E+02  0.35737184088E+02 -0.29618665693E+03  0.32645877565E+03  0.12509000000E+03 0.  0.
         25    1    4    4    0    0 -0.17503981047E+02  0.57048971172E+02 -0.15929696106E+03  0.21114924666E+03  0.12509000000E+03 0.  0.
         25    1    3    3    0    0  0.61369024397E+02 -0.92786155261E+02 -0.26615568598E+03  0.31442293975E+03  0.12509000000E+03 0.  0.
<mgrwt>
<rscale>  2 0.45298286E+03</rscale>
<asrwt>0</asrwt>
<pdfrwt beam="1">  1       21 0.95876226E-02 0.45298286E+03</pdfrwt>
<pdfrwt beam="2">  1       21 0.11571104E+00 0.45298286E+03</pdfrwt>
<totfact> 0.46073367E+04</totfact>
</mgrwt>
</event>
<event>
 7    0  0.4750554E-002  0.4566772E+03  0.7546771E-02  0.1025749E+00
         21   -1    0    0  502  501  0.00000000000E+00  0.00000000000E+00  0.48249468235E+02  0.48249468235E+02  0.00000000000E+00 0.  1.
         21   -1    0    0  501  502 -0.00000000000E+00 -0.00000000000E+00 -0.10806028941E+04  0.10806028941E+04  0.00000000000E+00 0.  1.
      99926    2    1    2    0    0  0.71054273576E-14  0.00000000000E+00 -0.10323534259E+04  0.11288523623E+04  0.45667719459E+03 0.  0.
      99925    2    3    3    0    0  0.43307107836E+02 -0.10538006620E+03 -0.68405385960E+03  0.74163077216E+03  0.26288030628E+03 0.  0.
         25    1    4    4    0    0 -0.12623117268E+02 -0.73682143373E+02 -0.33654452316E+03  0.36673986082E+03  0.12509000000E+03 0.  0.
         25    1    4    4    0    0  0.55930225104E+02 -0.31697922829E+02 -0.34750933644E+03  0.37489091134E+03  0.12509000000E+03 0.  0.
         25    1    3    3    0    0 -0.43307107836E+02  0.10538006620E+03 -0.34829956627E+03  0.38722159019E+03  0.12509000000E+03 0.  0.
<mgrwt>
<rscale>  2 0.45667719E+03</rscale>
<asrwt>0</asrwt>
<pdfrwt beam="1">  1       21 0.70955102E-02 0.45667719E+03</pdfrwt>
<pdfrwt beam="2">  1       21 0.15891219E+00 0.45667719E+03</pdfrwt>
<totfact> 0.34048986E+04</totfact>
</mgrwt>
</event>
<event>
 7    0  0.4750554E-002  0.4597302E+03  0.7546771E-02  0.1024860E+00
         21   -1    0    0  502  501  0.00000000000E+00  0.00000000000E+00  0.56064248927E+03  0.56064248927E+03  0.00000000000E+00 0.  1.
         21   -1    0    0  501  502 -0.00000000000E+00 -0.00000000000E+00 -0.94245364273E+02  0.94245364273E+02  0.00000000000E+00 0.  1.
      99926    2    1    2    0    0  0.00000000000E+00  0.00000000000E+00  0.46639712500E+03  0.65488785354E+03  0.45973016272E+03 0.  0.
      99925    2    3    3    0    0  0.91693251585E+02  0.70514483977E+02  0.32229469243E+03  0.43174448257E+03  0.26296289591E+03 0.  0.
         25    1    3    3    0    0 -0.91693251585E+02 -0.70514483977E+02  0.14410243257E+03  0.22314337097E+03  0.12509000000E+03 0.  0.
         25    1    4    4    0    0  0.87677409730E+02  0.45268734658E+02  0.16940921384E+03  0.23255875892E+03  0.12509000000E+03 0.  0.
         25    1    4    4    0    0  0.40158418548E+01  0.25245749319E+02  0.15288547858E+03  0.19918572365E+03  0.12509000000E+03 0.  0.
<mgrwt>
<rscale>  2 0.45973016E+03</rscale>
<asrwt>0</asrwt>
<pdfrwt beam="1">  1       21 0.82447423E-01 0.45973016E+03</pdfrwt>
<pdfrwt beam="2">  1       21 0.13859613E-01 0.45973016E+03</pdfrwt>
<totfact> 0.53400266E+04</totfact>
</mgrwt>
</event>
<event>
 7    0  0.4750554E-002  0.4550956E+03  0.7546771E-02  0.1026213E+00
         21   -1    0    0  502  501  0.00000000000E+00  0.00000000000E+00  0.11813878718E+03  0.11813878718E+03  0.00000000000E+00 0. -1.
         21   -1    0    0  501  502 -0.00000000000E+00 -0.00000000000E+00 -0.43828119453E+03  0.43828119453E+03  0.00000000000E+00 0. -1.
      99926    2    1    2    0    0 -0.71054273576E-14  0.71054273576E-14 -0.32014240735E+03  0.55641998171E+03  0.45509563287E+03 0.  0.
      99925    2    3    3    0    0  0.58932658932E+02 -0.39419645111E+02 -0.30948445407E+03  0.41223930763E+03  0.26293279129E+03 0.  0.
         25    1    3    3    0    0 -0.58932658932E+02  0.39419645111E+02 -0.10657953283E+02  0.14418067408E+03  0.12509000000E+03 0.  0.
         25    1    4    4    0    0  0.46249162492E+02 -0.41024894561E+02 -0.20891181537E+03  0.25122436527E+03  0.12509000000E+03 0.  0.
         25    1    4    4    0    0  0.12683496440E+02  0.16052494496E+01 -0.10057263870E+03  0.16101494236E+03  0.12509000000E+03 0.  0.
<mgrwt>
<rscale>  2 0.45509563E+03</rscale>
<asrwt>0</asrwt>
<pdfrwt beam="1">  1       21 0.17373351E-01 0.45509563E+03</pdfrwt>
<pdfrwt beam="2">  1       21 0.64453116E-01 0.45509563E+03</pdfrwt>
<totfact> 0.61397796E+04</totfact>
</mgrwt>
</event>
<event>
 7    0  0.4750554E-002  0.4354219E+03  0.7546771E-02  0.1032161E+00
         21   -1    0    0  502  501  0.00000000000E+00  0.00000000000E+00  0.73610411915E+02  0.73610411915E+02  0.00000000000E+00 0.  1.
         21   -1    0    0  501  502 -0.00000000000E+00 -0.00000000000E+00 -0.64390435948E+03  0.64390435948E+03  0.00000000000E+00 0.  1.
      99926    2    1    2    0    0  0.71054273576E-14 -0.14210854715E-13 -0.57029394756E+03  0.71751477139E+03  0.43542193392E+03 0.  0.
      99925    2    3    3    0    0  0.55926653956E+02 -0.70719376667E+02 -0.32387163872E+03  0.42682510310E+03  0.26297872425E+03 0.  0.
         25    1    4    4    0    0  0.47301052140E+02 -0.99480412714E+01 -0.19743859833E+03  0.23867522131E+03  0.12509000000E+03 0.  0.
         25    1    4    4    0    0  0.86256018159E+01 -0.60771335396E+02 -0.12643304039E+03  0.18814988178E+03  0.12509000000E+03 0.  0.
         25    1    3    3    0    0 -0.55926653956E+02  0.70719376667E+02 -0.24642230884E+03  0.29068966830E+03  0.12509000000E+03 0.  0.
<mgrwt>
<rscale>  2 0.43542193E+03</rscale>
<asrwt>0</asrwt>
<pdfrwt beam="1">  1       21 0.10825061E-01 0.43542193E+03</pdfrwt>
<pdfrwt beam="2">  1       21 0.94691818E-01 0.43542193E+03</pdfrwt>
<totfact> 0.60798152E+04</totfact>
</mgrwt>
</event>
<event>
 7    0  0.4750554E-002  0.4570473E+03  0.7546771E-02  0.1025641E+00
         21   -1    0    0  502  501  0.00000000000E+00  0.00000000000E+00  0.34860541221E+02  0.34860541221E+02  0.00000000000E+00 0. -1.
         21   -1    0    0  501  502 -0.00000000000E+00 -0.00000000000E+00 -0.14980567497E+04  0.14980567497E+04  0.00000000000E+00 0. -1.
      99926    2    1    2    0    0  0.00000000000E+00  0.71054273576E-14 -0.14631962085E+04  0.15329172909E+04  0.45704734579E+03 0.  0.
      99925    2    3    3    0    0 -0.18038666128E+02  0.47285714961E+02 -0.12654932532E+04  0.12935529265E+04  0.26314381525E+03 0.  0.
         25    1    3    3    0    0  0.18038666128E+02 -0.47285714961E+02 -0.19770295524E+03  0.23936436436E+03  0.12509000000E+03 0.  0.
         25    1    4    4    0    0  0.63969131254E+01  0.56913716127E+02 -0.74489764522E+03  0.75749594159E+03  0.12509000000E+03 0.  0.
         25    1    4    4    0    0 -0.24435579253E+02 -0.96280011666E+01 -0.52059560801E+03  0.53605698495E+03  0.12509000000E+03 0.  0.
<mgrwt>
<rscale>  2 0.45704735E+03</rscale>
<asrwt>0</asrwt>
<pdfrwt beam="1">  1       21 0.51265507E-02 0.45704735E+03</pdfrwt>
<pdfrwt beam="2">  1       21 0.22030244E+00 0.45704735E+03</pdfrwt>
<totfact> 0.22621936E+04</totfact>
</mgrwt>
</event>
<event>
 7    0  0.4750554E-002  0.4725959E+03  0.7546771E-02  0.1021190E+00
         21   -1    0    0  502  501  0.00000000000E+00  0.00000000000E+00  0.10537914682E+03  0.10537914682E+03  0.00000000000E+00 0. -1.
         21   -1    0    0  501  502 -0.00000000000E+00 -0.00000000000E+00 -0.52986491935E+03  0.52986491935E+03  0.00000000000E+00 0. -1.
      99926    2    1    2    0    0  0.00000000000E+00  0.00000000000E+00 -0.42448577253E+03  0.63524406617E+03  0.47259586597E+03 0.  0.
      99925    2    3    3    0    0 -0.88764424628E+02  0.93147829264E+02 -0.25177378263E+03  0.38618065912E+03  0.26303958388E+03 0.  0.
         25    1    3    3    0    0  0.88764424628E+02 -0.93147829264E+02 -0.17271198990E+03  0.24906340705E+03  0.12509000000E+03 0.  0.
         25    1    4    4    0    0 -0.52839899870E+02  0.28097944086E+02 -0.16962849574E+03  0.21909560504E+03  0.12509000000E+03 0.  0.
         25    1    4    4    0    0 -0.35924524758E+02  0.65049885178E+02 -0.82145286893E+02  0.16708505409E+03  0.12509000000E+03 0.  0.
<mgrwt>
<rscale>  2 0.47259587E+03</rscale>
<asrwt>0</asrwt>
<pdfrwt beam="1">  1       21 0.15496934E-01 0.47259587E+03</pdfrwt>
<pdfrwt beam="2">  1       21 0.77921310E-01 0.47259587E+03</pdfrwt>
<totfact> 0.49340810E+04</totfact>
</mgrwt>
</event>
<event>
 7    0  0.4750554E-002  0.4578791E+03  0.7546771E-02  0.1025398E+00
         21   -1    0    0  502  501  0.00000000000E+00  0.00000000000E+00  0.79759896844E+03  0.79759896844E+03  0.00000000000E+00 0. -1.
         21   -1    0    0  501  502 -0.00000000000E+00 -0.00000000000E+00 -0.65713872896E+02  0.65713872896E+02  0.00000000000E+00 0. -1.
      99926    2    1    2    0    0  0.00000000000E+00  0.00000000000E+00  0.73188509554E+03  0.86331284133E+03  0.45787909860E+03 0.  0.
      99925    2    3    3    0    0 -0.99223976965E+01  0.18944613120E+02  0.24471081856E+03  0.35988098239E+03  0.26300871549E+03 0.  0.
         25    1    4    4    0    0  0.72053898963E+01  0.16353338390E+02  0.17433130077E+03  0.21530968359E+03  0.12509000000E+03 0.  0.
         25    1    4    4    0    0 -0.17127787593E+02  0.25912747300E+01  0.70379517787E+02  0.14457129880E+03  0.12509000000E+03 0.  0.
         25    1    3    3    0    0  0.99223976965E+01 -0.18944613120E+02  0.48717427698E+03  0.50343185894E+03  0.12509000000E+03 0.  0.
<mgrwt>
<rscale>  2 0.45787910E+03</rscale>
<asrwt>0</asrwt>
<pdfrwt beam="1">  1       21 0.11729396E+00 0.45787910E+03</pdfrwt>
<pdfrwt beam="2">  1       21 0.96638053E-02 0.45787910E+03</pdfrwt>
<totfact> 0.43850899E+04</totfact>
</mgrwt>
</event>
<event>
 7    0  0.4750554E-002  0.4501367E+03  0.7546771E-02  0.1027681E+00
         21   -1    0    0  502  501  0.00000000000E+00  0.00000000000E+00  0.63142916258E+02  0.63142916258E+02  0.00000000000E+00 0. -1.
         21   -1    0    0  501  502 -0.00000000000E+00 -0.00000000000E+00 -0.80223991224E+03  0.80223991224E+03  0.00000000000E+00 0. -1.
      99926    2    1    2    0    0  0.00000000000E+00  0.00000000000E+00 -0.73909699598E+03  0.86538282850E+03  0.45013672411E+03 0.  0.
      99925    2    3    3    0    0  0.93408899015E+01 -0.95356441514E+02 -0.56554332295E+03  0.63097188872E+03  0.26288052622E+03 0.  0.
         25    1    3    3    0    0 -0.93408899015E+01  0.95356441514E+02 -0.17355367303E+03  0.23441093977E+03  0.12509000000E+03 0.  0.
         25    1    4    4    0    0  0.78288536656E+01 -0.15412938161E+02 -0.20123828169E+03  0.23757778458E+03  0.12509000000E+03 0.  0.
         25    1    4    4    0    0  0.15120362359E+01 -0.79943503353E+02 -0.36430504126E+03  0.39339410414E+03  0.12509000000E+03 0.  0.
<mgrwt>
<rscale>  2 0.45013672E+03</rscale>
<asrwt>0</asrwt>
<pdfrwt beam="1">  1       21 0.92857232E-02 0.45013672E+03</pdfrwt>
<pdfrwt beam="2">  1       21 0.11797645E+00 0.45013672E+03</pdfrwt>
<totfact> 0.46507458E+04</totfact>
</mgrwt>
</event>
<event>
 7    0  0.4750554E-002  0.4557104E+03  0.7546771E-02  0.1026033E+00
         21   -1    0    0  502  501  0.00000000000E+00  0.00000000000E+00  0.19852954443E+03  0.19852954443E+03  0.00000000000E+00 0. -1.
         21   -1    0    0  501  502 -0.00000000000E+00 -0.00000000000E+00 -0.26151263475E+03  0.26151263475E+03  0.00000000000E+00 0. -1.
      99926    2    1    2    0    0 -0.14210854715E-13  0.00000000000E+00 -0.62983090315E+02  0.46004217918E+03  0.45571036521E+03 0.  0.
      99925    2    3    3    0    0  0.11152959824E+03 -0.11167521910E+02 -0.59458929505E+02  0.29204368919E+03  0.26304103724E+03 0.  0.
         25    1    4    4    0    0  0.92902472438E+02 -0.25465139913E+02 -0.43547825156E+02  0.16377809350E+03  0.12509000000E+03 0.  0.
         25    1    3    3    0    0 -0.11152959824E+03  0.11167521910E+02 -0.35241608102E+01  0.16799848999E+03  0.12509000000E+03 0.  0.
         25    1    4    4    0    0  0.18627125799E+02  0.14297618004E+02 -0.15911104349E+02  0.12826559569E+03  0.12509000000E+03 0.  0.
<mgrwt>
<rscale>  2 0.45571037E+03</rscale>
<asrwt>0</asrwt>
<pdfrwt beam="1">  1       21 0.29195521E-01 0.45571037E+03</pdfrwt>
<pdfrwt beam="2">  1       21 0.38457740E-01 0.45571037E+03</pdfrwt>
<totfact> 0.67792639E+04</totfact>
</mgrwt>
</event>
<event>
 7    0  0.4750554E-002  0.4555960E+03  0.7546771E-02  0.1026066E+00
         21   -1    0    0  502  501  0.00000000000E+00  0.00000000000E+00  0.44765569412E+03  0.44765569412E+03  0.00000000000E+00 0.  1.
         21   -1    0    0  501  502 -0.00000000000E+00 -0.00000000000E+00 -0.11591930746E+03  0.11591930746E+03  0.00000000000E+00 0.  1.
      99926    2    1    2    0    0  0.00000000000E+00  0.00000000000E+00  0.33173638666E+03  0.56357500157E+03  0.45559604055E+03 0.  0.
      99925    2    3    3    0    0 -0.46558329630E+02 -0.71210500284E+02  0.30226593117E+03  0.40944963294E+03  0.26276547597E+03 0.  0.
         25    1    4    4    0    0 -0.21605715814E+02 -0.12691867310E+02  0.19406903077E+03  0.23224596284E+03  0.12509000000E+03 0.  0.
         25    1    4    4    0    0 -0.24952613815E+02 -0.58518632974E+02  0.10819690040E+03  0.17720367010E+03  0.12509000000E+03 0.  0.
         25    1    3    3    0    0  0.46558329630E+02  0.71210500284E+02  0.29470455489E+02  0.15412536863E+03  0.12509000000E+03 0.  0.
<mgrwt>
<rscale>  2 0.45559604E+03</rscale>
<asrwt>0</asrwt>
<pdfrwt beam="1">  1       21 0.65831719E-01 0.45559604E+03</pdfrwt>
<pdfrwt beam="2">  1       21 0.17046957E-01 0.45559604E+03</pdfrwt>
<totfact> 0.60691661E+04</totfact>
</mgrwt>
</event>
<event>
 7    0  0.4750554E-002  0.4507495E+03  0.7546771E-02  0.1027499E+00
         21   -1    0    0  502  501  0.00000000000E+00  0.00000000000E+00  0.47925160455E+02  0.47925160455E+02  0.00000000000E+00 0.  1.
         21   -1    0    0  501  502 -0.00000000000E+00 -0.00000000000E+00 -0.10598563308E+04  0.10598563308E+04  0.00000000000E+00 0.  1.
      99926    2    1    2    0    0  0.00000000000E+00  0.00000000000E+00 -0.10119311704E+04  0.11077814913E+04  0.45074953007E+03 0.  0.
      99925    2    3    3    0    0 -0.87833954704E+02  0.50683514943E+02 -0.73832895379E+03  0.79030818011E+03  0.26300903647E+03 0.  0.
         25    1    4    4    0    0 -0.72431051207E+02  0.45781665026E+02 -0.46916692256E+03  0.49305915199E+03  0.12509000000E+03 0.  0.
         25    1    4    4    0    0 -0.15402903497E+02  0.49018499168E+01 -0.26916203123E+03  0.29724902813E+03  0.12509000000E+03 0.  0.
         25    1    3    3    0    0  0.87833954704E+02 -0.50683514943E+02 -0.27360221660E+03  0.31747331118E+03  0.12509000000E+03 0.  0.
<mgrwt>
<rscale>  2 0.45074953E+03</rscale>
<asrwt>0</asrwt>
<pdfrwt beam="1">  1       21 0.70478180E-02 0.45074953E+03</pdfrwt>
<pdfrwt beam="2">  1       21 0.15586122E+00 0.45074953E+03</pdfrwt>
<totfact> 0.36415509E+04</totfact>
</mgrwt>
</event>
<event>
 7    0  0.4750554E-002  0.4451573E+03  0.7546771E-02  0.1029176E+00
         21   -1    0    0  502  501  0.00000000000E+00  0.00000000000E+00  0.29498350551E+03  0.29498350551E+03  0.00000000000E+00 0. -1.
         21   -1    0    0  501  502 -0.00000000000E+00 -0.00000000000E+00 -0.16794587355E+03  0.16794587355E+03  0.00000000000E+00 0. -1.
      99926    2    1    2    0    0 -0.35527136788E-14  0.00000000000E+00  0.12703763196E+03  0.46292937906E+03  0.44515733181E+03 0.  0.
      99925    2    3    3    0    0  0.23530450075E+02  0.65029343779E+02  0.95489079299E+00  0.27233330525E+03  0.26340466909E+03 0.  0.
         25    1    3    3    0    0 -0.23530450075E+02 -0.65029343779E+02  0.12608274117E+03  0.19059607381E+03  0.12509000000E+03 0.  0.
         25    1    4    4    0    0  0.33604967997E+02 -0.30172949745E+01  0.18789071903E+01  0.12957405734E+03  0.12509000000E+03 0.  0.
         25    1    4    4    0    0 -0.10074517921E+02  0.68046638754E+02 -0.92401639734E+00  0.14275924791E+03  0.12509000000E+03 0.  0.
<mgrwt>
<rscale>  2 0.44515733E+03</rscale>
<asrwt>0</asrwt>
<pdfrwt beam="1">  1       21 0.43379928E-01 0.44515733E+03</pdfrwt>
<pdfrwt beam="2">  1       21 0.24697922E-01 0.44515733E+03</pdfrwt>
<totfact> 0.73542062E+04</totfact>
</mgrwt>
</event>
<event>
 7    0  0.4750554E-002  0.4556797E+03  0.7546771E-02  0.1026042E+00
         21   -1    0    0  502  501  0.00000000000E+00  0.00000000000E+00  0.34279456161E+02  0.34279456161E+02  0.00000000000E+00 0. -1.
         21   -1    0    0  501  502 -0.00000000000E+00 -0.00000000000E+00 -0.15143472663E+04  0.15143472663E+04  0.00000000000E+00 0. -1.
      99926    2    1    2    0    0 -0.14210854715E-13 -0.17763568394E-14 -0.14800678101E+04  0.15486267224E+04  0.45567971527E+03 0.  0.
      99925    2    3    3    0    0  0.11141124309E+03  0.10448354514E+02 -0.99798498695E+03  0.10381632177E+04  0.26322461732E+03 0.  0.
         25    1    4    4    0    0  0.19631959261E+02  0.26031705013E+02 -0.41340841624E+03  0.43314788492E+03  0.12509000000E+03 0.  0.
         25    1    4    4    0    0  0.91779283831E+02 -0.15583350499E+02 -0.58457657071E+03  0.60501533276E+03  0.12509000000E+03 0.  0.
         25    1    3    3    0    0 -0.11141124309E+03 -0.10448354514E+02 -0.48208282318E+03  0.51046350478E+03  0.12509000000E+03 0.  0.
<mgrwt>
<rscale>  2 0.45567972E+03</rscale>
<asrwt>0</asrwt>
<pdfrwt beam="1">  1       21 0.50410966E-02 0.45567972E+03</pdfrwt>
<pdfrwt beam="2">  1       21 0.22269812E+00 0.45567972E+03</pdfrwt>
<totfact> 0.22493178E+04</totfact>
</mgrwt>
</event>
<event>
 7    0  0.4750554E-002  0.4506916E+03  0.7546771E-02  0.1027516E+00
         21   -1    0    0  502  501  0.00000000000E+00  0.00000000000E+00  0.45463588660E+03  0.45463588660E+03  0.00000000000E+00 0.  1.
         21   -1    0    0  501  502 -0.00000000000E+00 -0.00000000000E+00 -0.11169539468E+03  0.11169539468E+03  0.00000000000E+00 0.  1.
      99926    2    1    2    0    0  0.71054273576E-14 -0.13322676296E-14  0.34294049192E+03  0.56633128128E+03  0.45069162313E+03 0.  0.
      99925    2    3    3    0    0  0.42934269487E+02 -0.39920976008E+01  0.34252189801E+03  0.43401736795E+03  0.26304094115E+03 0.  0.
         25    1    4    4    0    0  0.33999643573E+02  0.30858351201E+02  0.20643214703E+03  0.24570297725E+03  0.12509000000E+03 0.  0.
         25    1    3    3    0    0 -0.42934269487E+02  0.39920976008E+01  0.41859390804E+00  0.13231391333E+03  0.12509000000E+03 0.  0.
         25    1    4    4    0    0  0.89346259141E+01 -0.34850448802E+02  0.13608975098E+03  0.18831439070E+03  0.12509000000E+03 0.  0.
<mgrwt>
<rscale>  2 0.45069162E+03</rscale>
<asrwt>0</asrwt>
<pdfrwt beam="1">  1       21 0.66858218E-01 0.45069162E+03</pdfrwt>
<pdfrwt beam="2">  1       21 0.16425793E-01 0.45069162E+03</pdfrwt>
<totfact> 0.62916550E+04</totfact>
</mgrwt>
</event>
<event>
 7    0  0.4750554E-002  0.4548555E+03  0.7546771E-02  0.1026284E+00
         21   -1    0    0  502  501  0.00000000000E+00  0.00000000000E+00  0.22655402516E+03  0.22655402516E+03  0.00000000000E+00 0. -1.
         21   -1    0    0  501  502 -0.00000000000E+00 -0.00000000000E+00 -0.22830486434E+03  0.22830486434E+03  0.00000000000E+00 0. -1.
      99926    2    1    2    0    0 -0.71054273576E-14  0.14210854715E-13 -0.17508391857E+01  0.45485888950E+03  0.45485551983E+03 0.  0.
      99925    2    3    3    0    0  0.58926946425E+02 -0.87583964000E+02  0.38615611853E+02  0.28627569272E+03  0.26328553132E+03 0.  0.
         25    1    4    4    0    0  0.46731582684E+02 -0.17454853758E+02 -0.82239151065E+01  0.13492091617E+03  0.12509000000E+03 0.  0.
         25    1    3    3    0    0 -0.58926946425E+02  0.87583964000E+02 -0.40366451038E+02  0.16858319677E+03  0.12509000000E+03 0.  0.
         25    1    4    4    0    0  0.12195363741E+02 -0.70129110242E+02  0.46839526959E+02  0.15135477655E+03  0.12509000000E+03 0.  0.
<mgrwt>
<rscale>  2 0.45485552E+03</rscale>
<asrwt>0</asrwt>
<pdfrwt beam="1">  1       21 0.33316768E-01 0.45485552E+03</pdfrwt>
<pdfrwt beam="2">  1       21 0.33574245E-01 0.45485552E+03</pdfrwt>
<totfact> 0.68635217E+04</totfact>
</mgrwt>
</event>
<event>
 7    0  0.4750554E-002  0.5371951E+03  0.7546771E-02  0.1004502E+00
         21   -1    0    0  502  501  0.00000000000E+00  0.00000000000E+00  0.20628713075E+03  0.20628713075E+03  0.00000000000E+00 0.  1.
         21   -1    0    0  501  502 -0.00000000000E+00 -0.00000000000E+00 -0.34972925238E+03  0.34972925238E+03  0.00000000000E+00 0.  1.
      99926    2    1    2    0    0  0.00000000000E+00  0.00000000000E+00 -0.14344212163E+03  0.55601638313E+03  0.53719510055E+03 0.  0.
      99925    2    3    3    0    0 -0.59753219122E+02 -0.11309714186E+03  0.45350086382E+02  0.29591752385E+03  0.26296224043E+03 0.  0.
         25    1    4    4    0    0 -0.24099067494E+02 -0.15625711465E+02  0.49940944606E+01  0.12844211534E+03  0.12509000000E+03 0.  0.
         25    1    4    4    0    0 -0.35654151628E+02 -0.97471430399E+02  0.40355991922E+02  0.16747540851E+03  0.12509000000E+03 0.  0.
         25    1    3    3    0    0  0.59753219122E+02  0.11309714186E+03 -0.18879220801E+03  0.26009885928E+03  0.12509000000E+03 0.  0.
<mgrwt>
<rscale>  2 0.53719510E+03</rscale>
<asrwt>0</asrwt>
<pdfrwt beam="1">  1       21 0.30336343E-01 0.53719510E+03</pdfrwt>
<pdfrwt beam="2">  1       21 0.51430773E-01 0.53719510E+03</pdfrwt>
<totfact> 0.33610046E+04</totfact>
</mgrwt>
</event>
<event>
 7    0  0.4750554E-002  0.4436378E+03  0.7546771E-02  0.1029636E+00
         21   -1    0    0  502  501  0.00000000000E+00  0.00000000000E+00  0.33978546809E+03  0.33978546809E+03  0.00000000000E+00 0.  1.
         21   -1    0    0  501  502 -0.00000000000E+00 -0.00000000000E+00 -0.14480790002E+03  0.14480790002E+03  0.00000000000E+00 0.  1.
      99926    2    1    2    0    0  0.00000000000E+00  0.00000000000E+00  0.19497756807E+03  0.48459336810E+03  0.44363778058E+03 0.  0.
      99925    2    3    3    0    0 -0.29961496450E+02 -0.60969487016E+02  0.40686216971E+02  0.27466886086E+03  0.26300693006E+03 0.  0.
         25    1    4    4    0    0  0.83561242387E+01 -0.25152498268E+02  0.53113158521E+02  0.13845933948E+03  0.12509000000E+03 0.  0.
         25    1    4    4    0    0 -0.38317620688E+02 -0.35816988748E+02 -0.12426941550E+02  0.13620952138E+03  0.12509000000E+03 0.  0.
         25    1    3    3    0    0  0.29961496450E+02  0.60969487016E+02  0.15429135110E+03  0.20992450724E+03  0.12509000000E+03 0.  0.
<mgrwt>
<rscale>  2 0.44363778E+03</rscale>
<asrwt>0</asrwt>
<pdfrwt beam="1">  1       21 0.49968451E-01 0.44363778E+03</pdfrwt>
<pdfrwt beam="2">  1       21 0.21295279E-01 0.44363778E+03</pdfrwt>
<totfact> 0.72707460E+04</totfact>
</mgrwt>
</event>
<event>
 7    0  0.4750554E-002  0.4462940E+03  0.7546771E-02  0.1028833E+00
         21   -1    0    0  502  501  0.00000000000E+00  0.00000000000E+00  0.49746286563E+02  0.49746286563E+02  0.00000000000E+00 0.  1.
         21   -1    0    0  501  502 -0.00000000000E+00 -0.00000000000E+00 -0.10009706687E+04  0.10009706687E+04  0.00000000000E+00 0.  1.
      99926    2    1    2    0    0  0.71054273576E-14 -0.14210854715E-13 -0.95122438209E+03  0.10507169552E+04  0.44629395570E+03 0.  0.
      99925    2    3    3    0    0  0.40237848989E+02 -0.82389243907E+02 -0.48455550562E+03  0.55895032319E+03  0.26310521426E+03 0.  0.
         25    1    4    4    0    0 -0.18240696134E+02 -0.29198345620E+02 -0.24897363081E+03  0.28075014393E+03  0.12509000000E+03 0.  0.
         25    1    4    4    0    0  0.58478545124E+02 -0.53190898287E+02 -0.23558187481E+03  0.27820017926E+03  0.12509000000E+03 0.  0.
         25    1    3    3    0    0 -0.40237848989E+02  0.82389243907E+02 -0.46666887647E+03  0.49176663202E+03  0.12509000000E+03 0.  0.
<mgrwt>
<rscale>  2 0.44629396E+03</rscale>
<asrwt>0</asrwt>
<pdfrwt beam="1">  1       21 0.73156296E-02 0.44629396E+03</pdfrwt>
<pdfrwt beam="2">  1       21 0.14720159E+00 0.44629396E+03</pdfrwt>
<totfact> 0.39893774E+04</totfact>
</mgrwt>
</event>
<event>
 7    0  0.4750554E-002  0.4578495E+03  0.7546771E-02  0.1025407E+00
         21   -1    0    0  502  501  0.00000000000E+00  0.00000000000E+00  0.59493140948E+03  0.59493140948E+03  0.00000000000E+00 0. -1.
         21   -1    0    0  501  502 -0.00000000000E+00 -0.00000000000E+00 -0.88088381730E+02  0.88088381730E+02  0.00000000000E+00 0. -1.
      99926    2    1    2    0    0  0.00000000000E+00  0.00000000000E+00  0.50684302775E+03  0.68301979121E+03  0.45784951721E+03 0.  0.
      99925    2    3    3    0    0  0.84020425159E+02  0.87285130178E+01  0.43635163648E+03  0.51642998622E+03  0.26298585746E+03 0.  0.
         25    1    4    4    0    0  0.84421132953E+02  0.19519196096E+01  0.24158549801E+03  0.28485399528E+03  0.12509000000E+03 0.  0.
         25    1    3    3    0    0 -0.84020425159E+02 -0.87285130178E+01  0.70491391273E+02  0.16658980499E+03  0.12509000000E+03 0.  0.
         25    1    4    4    0    0 -0.40070779386E+00  0.67765934082E+01  0.19476613847E+03  0.23157599094E+03  0.12509000000E+03 0.  0.
<mgrwt>
<rscale>  2 0.45784952E+03</rscale>
<asrwt>0</asrwt>
<pdfrwt beam="1">  1       21 0.87489911E-01 0.45784952E+03</pdfrwt>
<pdfrwt beam="2">  1       21 0.12954174E-01 0.45784952E+03</pdfrwt>
<totfact> 0.52643613E+04</totfact>
</mgrwt>
</event>
<event>
 6    0  0.4750554E-002  0.4038275E+03  0.7546771E-02  0.1042462E+00
         21   -1    0    0  502  501  0.00000000000E+00  0.00000000000E+00  0.26713955028E+02  0.26713955028E+02  0.00000000000E+00 0. -1.
         21   -1    0    0  501  502 -0.00000000000E+00 -0.00000000000E+00 -0.15261369333E+04  0.15261369333E+04  0.00000000000E+00 0. -1.
      99926    2    1    2    0    0  0.00000000000E+00 -0.35527136788E-14 -0.14994229783E+04  0.15528508883E+04  0.40382745525E+03 0.  0.
         25    1    3    3    0    0  0.16410344297E+02 -0.26097808317E+02 -0.45509178153E+03  0.47297614392E+03  0.12509000000E+03 0.  0.
         25    1    3    3    0    0 -0.76781660103E+01  0.43125313334E+02 -0.71271846797E+03  0.72493714871E+03  0.12509000000E+03 0.  0.
         25    1    3    3    0    0 -0.87321782867E+01 -0.17027505017E+02 -0.33161272879E+03  0.35493759572E+03  0.12509000000E+03 0.  0.
<mgrwt>
<rscale>  2 0.40382746E+03</rscale>
<asrwt>0</asrwt>
<pdfrwt beam="1">  1       21 0.39285219E-02 0.40382746E+03</pdfrwt>
<pdfrwt beam="2">  1       21 0.22443195E+00 0.40382746E+03</pdfrwt>
<totfact> 0.34228786E+04</totfact>
</mgrwt>
</event>
<event>
 7    0  0.4750554E-002  0.4431011E+03  0.7546771E-02  0.1029800E+00
         21   -1    0    0  502  501  0.00000000000E+00  0.00000000000E+00  0.45793979940E+03  0.45793979940E+03  0.00000000000E+00 0.  1.
         21   -1    0    0  501  502 -0.00000000000E+00 -0.00000000000E+00 -0.10718582086E+03  0.10718582086E+03  0.00000000000E+00 0.  1.
      99926    2    1    2    0    0  0.71054273576E-14  0.71054273576E-14  0.35075397854E+03  0.56512562026E+03  0.44310113204E+03 0.  0.
      99925    2    3    3    0    0  0.33066765080E+02 -0.46220344577E+02  0.33062368393E+03  0.42626429351E+03  0.26298193158E+03 0.  0.
         25    1    3    3    0    0 -0.33066765080E+02  0.46220344577E+02  0.20130294608E+02  0.13886132675E+03  0.12509000000E+03 0.  0.
         25    1    4    4    0    0  0.37928992990E+02  0.11006860348E+01  0.20226466565E+03  0.24082841006E+03  0.12509000000E+03 0.  0.
         25    1    4    4    0    0 -0.48622279093E+01 -0.47321030612E+02  0.12835901828E+03  0.18543588345E+03  0.12509000000E+03 0.  0.
<mgrwt>
<rscale>  2 0.44310113E+03</rscale>
<asrwt>0</asrwt>
<pdfrwt beam="1">  1       21 0.67344087E-01 0.44310113E+03</pdfrwt>
<pdfrwt beam="2">  1       21 0.15762621E-01 0.44310113E+03</pdfrwt>
<totfact> 0.66960156E+04</totfact>
</mgrwt>
</event>
<event>
 7    0  0.4750554E-002  0.4636422E+03  0.7546771E-02  0.1023730E+00
         21   -1    0    0  502  501  0.00000000000E+00  0.00000000000E+00  0.20278498890E+03  0.20278498890E+03  0.00000000000E+00 0. -1.
         21   -1    0    0  501  502 -0.00000000000E+00 -0.00000000000E+00 -0.26501484340E+03  0.26501484340E+03  0.00000000000E+00 0. -1.
      99926    2    1    2    0    0  0.14210854715E-13  0.00000000000E+00 -0.62229854506E+02  0.46779983230E+03  0.46364224172E+03 0.  0.
      99925    2    3    3    0    0  0.78030054270E+02 -0.66457271791E+02  0.25942085413E+02  0.28360684266E+03  0.26316267035E+03 0.  0.
         25    1    4    4    0    0  0.36793315787E+02 -0.23142336937E+02 -0.27073048213E+02  0.13516572748E+03  0.12509000000E+03 0.  0.
         25    1    3    3    0    0 -0.78030054270E+02  0.66457271791E+02 -0.88171939918E+02  0.18419298964E+03  0.12509000000E+03 0.  0.
         25    1    4    4    0    0  0.41236738483E+02 -0.43314934854E+02  0.53015133625E+02  0.14844111518E+03  0.12509000000E+03 0.  0.
<mgrwt>
<rscale>  2 0.46364224E+03</rscale>
<asrwt>0</asrwt>
<pdfrwt beam="1">  1       21 0.29821322E-01 0.46364224E+03</pdfrwt>
<pdfrwt beam="2">  1       21 0.38972771E-01 0.46364224E+03</pdfrwt>
<totfact> 0.63149985E+04</totfact>
</mgrwt>
</event>
<event>
 7    0  0.4750554E-002  0.4570145E+03  0.7546771E-02  0.1025651E+00
         21   -1    0    0  502  501  0.00000000000E+00  0.00000000000E+00  0.14414672153E+04  0.14414672153E+04  0.00000000000E+00 0. -1.
         21   -1    0    0  501  502 -0.00000000000E+00 -0.00000000000E+00 -0.36223895844E+02  0.36223895844E+02  0.00000000000E+00 0. -1.
      99926    2    1    2    0    0 -0.71054273576E-14  0.00000000000E+00  0.14052433195E+04  0.14776911111E+04  0.45701447798E+03 0.  0.
      99925    2    3    3    0    0  0.52325541740E+02 -0.90606947151E+02  0.72712501428E+03  0.78023894425E+03  0.26289625814E+03 0.  0.
         25    1    4    4    0    0  0.26382131241E+02 -0.23599624742E+02  0.24997696477E+03  0.28176044817E+03  0.12509000000E+03 0.  0.
         25    1    4    4    0    0  0.25943410499E+02 -0.67007322408E+02  0.47714804952E+03  0.49847849609E+03  0.12509000000E+03 0.  0.
         25    1    3    3    0    0 -0.52325541740E+02  0.90606947151E+02  0.67811830517E+03  0.69745216689E+03  0.12509000000E+03 0.  0.
<mgrwt>
<rscale>  2 0.45701448E+03</rscale>
<asrwt>0</asrwt>
<pdfrwt beam="1">  1       21 0.21198044E+00 0.45701448E+03</pdfrwt>
<pdfrwt beam="2">  1       21 0.53270444E-02 0.45701448E+03</pdfrwt>
<totfact> 0.23954178E+04</totfact>
</mgrwt>
</event>
<event>
 7    0  0.4750554E-002  0.4578452E+03  0.7546771E-02  0.1025408E+00
         21   -1    0    0  502  501  0.00000000000E+00  0.00000000000E+00  0.17226894441E+04  0.17226894441E+04  0.00000000000E+00 0. -1.
         21   -1    0    0  501  502 -0.00000000000E+00 -0.00000000000E+00 -0.30420774921E+02  0.30420774921E+02  0.00000000000E+00 0. -1.
      99926    2    1    2    0    0  0.00000000000E+00  0.35527136788E-14  0.16922686691E+04  0.17531102190E+04  0.45784516089E+03 0.  0.
      99925    2    3    3    0    0 -0.76899067148E+02  0.26072915288E+02  0.75299025806E+03  0.80206621103E+03  0.26405040182E+03 0.  0.
         25    1    3    3    0    0  0.76899067148E+02 -0.26072915288E+02  0.93927841109E+03  0.95104400797E+03  0.12509000000E+03 0.  0.
         25    1    4    4    0    0 -0.28158628532E+02  0.53083937065E+02  0.40401227791E+03  0.42718174299E+03  0.12509000000E+03 0.  0.
         25    1    4    4    0    0 -0.48740438616E+02 -0.27011021776E+02  0.34897798014E+03  0.37488446804E+03  0.12509000000E+03 0.  0.
<mgrwt>
<rscale>  2 0.45784516E+03</rscale>
<asrwt>0</asrwt>
<pdfrwt beam="1">  1       21 0.25333662E+00 0.45784516E+03</pdfrwt>
<pdfrwt beam="2">  1       21 0.44736445E-02 0.45784516E+03</pdfrwt>
<totfact> 0.17782065E+04</totfact>
</mgrwt>
</event>
<event>
 7    0  0.4750554E-002  0.4615909E+03  0.7546771E-02  0.1024321E+00
         21   -1    0    0  502  501  0.00000000000E+00  0.00000000000E+00  0.67087967073E+02  0.67087967073E+02  0.00000000000E+00 0.  1.
         21   -1    0    0  501  502 -0.00000000000E+00 -0.00000000000E+00 -0.79398052689E+03  0.79398052689E+03  0.00000000000E+00 0.  1.
      99926    2    1    2    0    0  0.00000000000E+00  0.00000000000E+00 -0.72689255982E+03  0.86106849397E+03  0.46159089872E+03 0.  0.
      99925    2    3    3    0    0  0.92311952027E+02 -0.58869875698E+02 -0.36661135631E+03  0.46428491006E+03  0.26300082202E+03 0.  0.
         25    1    4    4    0    0  0.61936827093E+02 -0.39802570373E+01 -0.22768711634E+03  0.26709725578E+03  0.12509000000E+03 0.  0.
         25    1    4    4    0    0  0.30375124933E+02 -0.54889618661E+02 -0.13892423997E+03  0.19718765428E+03  0.12509000000E+03 0.  0.
         25    1    3    3    0    0 -0.92311952027E+02  0.58869875698E+02 -0.36028120351E+03  0.39678358390E+03  0.12509000000E+03 0.  0.
<mgrwt>
<rscale>  2 0.46159090E+03</rscale>
<asrwt>0</asrwt>
<pdfrwt beam="1">  1       21 0.98658773E-02 0.46159090E+03</pdfrwt>
<pdfrwt beam="2">  1       21 0.11676184E+00 0.46159090E+03</pdfrwt>
<totfact> 0.42697704E+04</totfact>
</mgrwt>
</event>
<event>
 7    0  0.4750554E-002  0.4476494E+03  0.7546771E-02  0.1028425E+00
         21   -1    0    0  502  501  0.00000000000E+00  0.00000000000E+00  0.30658797624E+03  0.30658797624E+03  0.00000000000E+00 0. -1.
         21   -1    0    0  501  502 -0.00000000000E+00 -0.00000000000E+00 -0.16340336474E+03  0.16340336474E+03  0.00000000000E+00 0. -1.
      99926    2    1    2    0    0  0.00000000000E+00  0.00000000000E+00  0.14318461150E+03  0.46999134098E+03  0.44764944725E+03 0.  0.
      99925    2    3    3    0    0  0.68213567856E+02 -0.86542781260E+01  0.58229198878E+01  0.27189103863E+03  0.26298829465E+03 0.  0.
         25    1    4    4    0    0  0.35983337772E+02 -0.38642214246E+02  0.24504501876E+02  0.13797101156E+03  0.12509000000E+03 0.  0.
         25    1    4    4    0    0  0.32230230084E+02  0.29987936120E+02 -0.18681581988E+02  0.13392002707E+03  0.12509000000E+03 0.  0.
         25    1    3    3    0    0 -0.68213567856E+02  0.86542781260E+01  0.13736169161E+03  0.19810030235E+03  0.12509000000E+03 0.  0.
<mgrwt>
<rscale>  2 0.44764945E+03</rscale>
<asrwt>0</asrwt>
<pdfrwt beam="1">  1       21 0.45086467E-01 0.44764945E+03</pdfrwt>
<pdfrwt beam="2">  1       21 0.24029907E-01 0.44764945E+03</pdfrwt>
<totfact> 0.71517709E+04</totfact>
</mgrwt>
</event>
<event>
 7    0  0.4750554E-002  0.4629955E+03  0.7546771E-02  0.1023916E+00
         21   -1    0    0  502  501  0.00000000000E+00  0.00000000000E+00  0.43112345971E+02  0.43112345971E+02  0.00000000000E+00 0.  1.
         21   -1    0    0  501  502 -0.00000000000E+00 -0.00000000000E+00 -0.12430596517E+04  0.12430596517E+04  0.00000000000E+00 0.  1.
      99926    2    1    2    0    0 -0.17763568394E-14 -0.71054273576E-14 -0.11999473057E+04  0.12861719976E+04  0.46299554108E+03 0.  0.
      99925    2    3    3    0    0  0.15377581615E+02  0.62913769331E+02 -0.10321542893E+04  0.10670906957E+04  0.26295525025E+03 0.  0.
         25    1    4    4    0    0 -0.12056712821E+02  0.58847448959E+02 -0.44566826899E+03  0.46677200072E+03  0.12509000000E+03 0.  0.
         25    1    4    4    0    0  0.27434294436E+02  0.40663203723E+01 -0.58648602031E+03  0.60031869502E+03  0.12509000000E+03 0.  0.
         25    1    3    3    0    0 -0.15377581615E+02 -0.62913769331E+02 -0.16779301638E+03  0.21908130188E+03  0.12509000000E+03 0.  0.
<mgrwt>
<rscale>  2 0.46299554E+03</rscale>
<asrwt>0</asrwt>
<pdfrwt beam="1">  1       21 0.63400508E-02 0.46299554E+03</pdfrwt>
<pdfrwt beam="2">  1       21 0.18280289E+00 0.46299554E+03</pdfrwt>
<totfact> 0.27751727E+04</totfact>
</mgrwt>
</event>
<event>
 7    0  0.4750554E-002  0.4512290E+03  0.7546771E-02  0.1027356E+00
         21   -1    0    0  502  501  0.00000000000E+00  0.00000000000E+00  0.43288388176E+03  0.43288388176E+03  0.00000000000E+00 0. -1.
         21   -1    0    0  501  502 -0.00000000000E+00 -0.00000000000E+00 -0.11758788115E+03  0.11758788115E+03  0.00000000000E+00 0. -1.
      99926    2    1    2    0    0  0.00000000000E+00 -0.71054273576E-14  0.31529600060E+03  0.55047176291E+03  0.45122898152E+03 0.  0.
      99925    2    3    3    0    0  0.10291177200E+03 -0.37811613863E+02  0.20211368481E+03  0.34927957701E+03  0.26291772548E+03 0.  0.
         25    1    4    4    0    0  0.86789466602E+02 -0.22592652587E+02  0.81769726608E+02  0.17428894329E+03  0.12509000000E+03 0.  0.
         25    1    3    3    0    0 -0.10291177200E+03  0.37811613863E+02  0.11318231579E+03  0.20119218590E+03  0.12509000000E+03 0.  0.
         25    1    4    4    0    0  0.16122305397E+02 -0.15218961276E+02  0.12034395820E+03  0.17499063372E+03  0.12509000000E+03 0.  0.
<mgrwt>
<rscale>  2 0.45122898E+03</rscale>
<asrwt>0</asrwt>
<pdfrwt beam="1">  1       21 0.63659394E-01 0.45122898E+03</pdfrwt>
<pdfrwt beam="2">  1       21 0.17292336E-01 0.45122898E+03</pdfrwt>
<totfact> 0.63715140E+04</totfact>
</mgrwt>
</event>
<event>
 7    0  0.4750554E-002  0.4520143E+03  0.7546771E-02  0.1027123E+00
         21   -1    0    0  502  501  0.00000000000E+00  0.00000000000E+00  0.23700890753E+03  0.23700890753E+03  0.00000000000E+00 0. -1.
         21   -1    0    0  501  502 -0.00000000000E+00 -0.00000000000E+00 -0.21551610889E+03  0.21551610889E+03  0.00000000000E+00 0. -1.
      99926    2    1    2    0    0 -0.17763568394E-14  0.00000000000E+00  0.21492798640E+02  0.45252501643E+03  0.45201432510E+03 0.  0.
      99925    2    3    3    0    0 -0.10201853705E+02  0.55911191138E+02 -0.81132619463E+02  0.28103267358E+03  0.26299567024E+03 0.  0.
         25    1    3    3    0    0  0.10201853705E+02 -0.55911191138E+02  0.10262541810E+03  0.17149234284E+03  0.12509000000E+03 0.  0.
         25    1    4    4    0    0  0.30761412304E+02  0.21213055804E+02 -0.21043157795E+02  0.13223683607E+03  0.12509000000E+03 0.  0.
         25    1    4    4    0    0 -0.40963266009E+02  0.34698135334E+02 -0.60089461668E+02  0.14879583751E+03  0.12509000000E+03 0.  0.
<mgrwt>
<rscale>  2 0.45201433E+03</rscale>
<asrwt>0</asrwt>
<pdfrwt beam="1">  1       21 0.34854251E-01 0.45201433E+03</pdfrwt>
<pdfrwt beam="2">  1       21 0.31693545E-01 0.45201433E+03</pdfrwt>
<totfact> 0.70389468E+04</totfact>
</mgrwt>
</event>
<event>
 7    0  0.4750554E-002  0.4533314E+03  0.7546771E-02  0.1026733E+00
         21   -1    0    0  502  501  0.00000000000E+00  0.00000000000E+00  0.70355846311E+02  0.70355846311E+02  0.00000000000E+00 0.  1.
         21   -1    0    0  501  502 -0.00000000000E+00 -0.00000000000E+00 -0.73024988812E+03  0.73024988812E+03  0.00000000000E+00 0.  1.
      99926    2    1    2    0    0  0.88817841970E-15  0.00000000000E+00 -0.65989404181E+03  0.80060573443E+03  0.45333144121E+03 0.  0.
      99925    2    3    3    0    0 -0.52573926950E+01  0.70214981174E+02 -0.56881975062E+03  0.63060626862E+03  0.26296496643E+03 0.  0.
         25    1    3    3    0    0  0.52573926950E+01 -0.70214981174E+02 -0.91074291188E+02  0.16999946581E+03  0.12509000000E+03 0.  0.
         25    1    4    4    0    0  0.55840552953E+01  0.56046675527E+02 -0.37431747317E+03  0.39866463391E+03  0.12509000000E+03 0.  0.
         25    1    4    4    0    0 -0.10841447990E+02  0.14168305647E+02 -0.19450227745E+03  0.23194163471E+03  0.12509000000E+03 0.  0.
<mgrwt>
<rscale>  2 0.45333144E+03</rscale>
<asrwt>0</asrwt>
<pdfrwt beam="1">  1       21 0.10346448E-01 0.45333144E+03</pdfrwt>
<pdfrwt beam="2">  1       21 0.10738969E+00 0.45333144E+03</pdfrwt>
<totfact> 0.48365744E+04</totfact>
</mgrwt>
</event>
<event>
 7    0  0.4750554E-002  0.4541554E+03  0.7546771E-02  0.1026490E+00
         21   -1    0    0  502  501  0.00000000000E+00  0.00000000000E+00  0.16975812412E+03  0.16975812412E+03  0.00000000000E+00 0.  1.
         21   -1    0    0  501  502 -0.00000000000E+00 -0.00000000000E+00 -0.30375144645E+03  0.30375144645E+03  0.00000000000E+00 0.  1.
      99926    2    1    2    0    0  0.00000000000E+00  0.71054273576E-14 -0.13399332233E+03  0.47350957056E+03  0.45415537318E+03 0.  0.
      99925    2    3    3    0    0  0.68420570639E+01 -0.61579592982E+02 -0.18204168030E+03  0.32587822965E+03  0.26309425532E+03 0.  0.
         25    1    3    3    0    0 -0.68420570639E+01  0.61579592982E+02  0.48048357963E+02  0.14763134091E+03  0.12509000000E+03 0.  0.
         25    1    4    4    0    0  0.16845769586E+02 -0.64767121585E+02 -0.72722090676E+02  0.15941947988E+03  0.12509000000E+03 0.  0.
         25    1    4    4    0    0 -0.10003712522E+02  0.31875286031E+01 -0.10931958962E+03  0.16645874978E+03  0.12509000000E+03 0.  0.
<mgrwt>
<rscale>  2 0.45415537E+03</rscale>
<asrwt>0</asrwt>
<pdfrwt beam="1">  1       21 0.24964430E-01 0.45415537E+03</pdfrwt>
<pdfrwt beam="2">  1       21 0.44669330E-01 0.45415537E+03</pdfrwt>
<totfact> 0.67627833E+04</totfact>
</mgrwt>
</event>
<event>
 7    0  0.4750554E-002  0.4603190E+03  0.7546771E-02  0.1024689E+00
         21   -1    0    0  502  501  0.00000000000E+00  0.00000000000E+00  0.13164614773E+04  0.13164614773E+04  0.00000000000E+00 0.  1.
         21   -1    0    0  501  502 -0.00000000000E+00 -0.00000000000E+00 -0.40239224459E+02  0.40239224459E+02  0.00000000000E+00 0.  1.
      99926    2    1    2    0    0 -0.14210854715E-13  0.00000000000E+00  0.12762222528E+04  0.13567007017E+04  0.46031897147E+03 0.  0.
      99925    2    3    3    0    0  0.84241758298E+02  0.63338068394E+02  0.64714769919E+03  0.70670786572E+03  0.26368063667E+03 0.  0.
         25    1    3    3    0    0 -0.84241758298E+02 -0.63338068394E+02  0.62907455361E+03  0.64999283599E+03  0.12509000000E+03 0.  0.
         25    1    4    4    0    0  0.82997658161E+02  0.26237800332E+02  0.37924244304E+03  0.40871673825E+03  0.12509000000E+03 0.  0.
         25    1    4    4    0    0  0.12441001368E+01  0.37100268062E+02  0.26790525616E+03  0.29799112747E+03  0.12509000000E+03 0.  0.
<mgrwt>
<rscale>  2 0.46031897E+03</rscale>
<asrwt>0</asrwt>
<pdfrwt beam="1">  1       21 0.19359725E+00 0.46031897E+03</pdfrwt>
<pdfrwt beam="2">  1       21 0.59175339E-02 0.46031897E+03</pdfrwt>
<totfact> 0.26400556E+04</totfact>
</mgrwt>
</event>
<event>
 7    0  0.4750554E-002  0.4395028E+03  0.7546771E-02  0.1030899E+00
         21   -1    0    0  502  501  0.00000000000E+00  0.00000000000E+00  0.29495985839E+03  0.29495985839E+03  0.00000000000E+00 0.  1.
         21   -1    0    0  501  502 -0.00000000000E+00 -0.00000000000E+00 -0.16371952588E+03  0.16371952588E+03  0.00000000000E+00 0.  1.
      99926    2    1    2    0    0  0.00000000000E+00  0.00000000000E+00  0.13124033250E+03  0.45867938427E+03  0.43950284718E+03 0.  0.
      99925    2    3    3    0    0  0.51210912674E+02 -0.26967223943E+02  0.13911231961E+01  0.26931699624E+03  0.26302076058E+03 0.  0.
         25    1    3    3    0    0 -0.51210912674E+02  0.26967223943E+02  0.12984920931E+03  0.18936238803E+03  0.12509000000E+03 0.  0.
         25    1    4    4    0    0  0.26627685159E+02  0.13390515207E+02  0.31186210566E+02  0.13231941409E+03  0.12509000000E+03 0.  0.
         25    1    4    4    0    0  0.24583227515E+02 -0.40357739150E+02 -0.29795087370E+02  0.13699758215E+03  0.12509000000E+03 0.  0.
<mgrwt>
<rscale>  2 0.43950285E+03</rscale>
<asrwt>0</asrwt>
<pdfrwt beam="1">  1       21 0.43376450E-01 0.43950285E+03</pdfrwt>
<pdfrwt beam="2">  1       21 0.24076401E-01 0.43950285E+03</pdfrwt>
<totfact> 0.77370542E+04</totfact>
</mgrwt>
</event>
<event>
 7    0  0.4750554E-002  0.4531315E+03  0.7546771E-02  0.1026792E+00
         21   -1    0    0  502  501  0.00000000000E+00  0.00000000000E+00  0.15855580844E+03  0.15855580844E+03  0.00000000000E+00 0. -1.
         21   -1    0    0  501  502 -0.00000000000E+00 -0.00000000000E+00 -0.32374751626E+03  0.32374751626E+03  0.00000000000E+00 0. -1.
      99926    2    1    2    0    0 -0.35527136788E-14  0.00000000000E+00 -0.16519170782E+03  0.48230332470E+03  0.45313154457E+03 0.  0.
      99925    2    3    3    0    0 -0.16442820271E+02 -0.78128446813E+02 -0.18718379964E+03  0.33228472338E+03  0.26268030381E+03 0.  0.
         25    1    4    4    0    0  0.27757933486E+02 -0.28777373288E+02 -0.10841108563E+03  0.17029125542E+03  0.12509000000E+03 0.  0.
         25    1    3    3    0    0  0.16442820271E+02  0.78128446813E+02  0.21992091819E+02  0.15001860132E+03  0.12509000000E+03 0.  0.
         25    1    4    4    0    0 -0.44200753757E+02 -0.49351073525E+02 -0.78772714004E+02  0.16199346796E+03  0.12509000000E+03 0.  0.
<mgrwt>
<rscale>  2 0.45313154E+03</rscale>
<asrwt>0</asrwt>
<pdfrwt beam="1">  1       21 0.23317031E-01 0.45313154E+03</pdfrwt>
<pdfrwt beam="2">  1       21 0.47609929E-01 0.45313154E+03</pdfrwt>
<totfact> 0.67528863E+04</totfact>
</mgrwt>
</event>
<event>
 7    0  0.4750554E-002  0.4576090E+03  0.7546771E-02  0.1025477E+00
         21   -1    0    0  502  501  0.00000000000E+00  0.00000000000E+00  0.51612382063E+03  0.51612382063E+03  0.00000000000E+00 0.  1.
         21   -1    0    0  501  502 -0.00000000000E+00 -0.00000000000E+00 -0.10143205634E+03  0.10143205634E+03  0.00000000000E+00 0.  1.
      99926    2    1    2    0    0  0.00000000000E+00  0.00000000000E+00  0.41469176429E+03  0.61755587697E+03  0.45760900538E+03 0.  0.
      99925    2    3    3    0    0 -0.24210019124E+02 -0.11293583453E+03  0.25532735389E+03  0.38434963530E+03  0.26304364042E+03 0.  0.
         25    1    3    3    0    0  0.24210019124E+02  0.11293583453E+03  0.15936441041E+03  0.23320624167E+03  0.12509000000E+03 0.  0.
         25    1    4    4    0    0 -0.94420568766E+00 -0.60954670779E+02  0.18032235730E+03  0.22777186845E+03  0.12509000000E+03 0.  0.
         25    1    4    4    0    0 -0.23265813436E+02 -0.51981163751E+02  0.75004996586E+02  0.15657776685E+03  0.12509000000E+03 0.  0.
<mgrwt>
<rscale>  2 0.45760901E+03</rscale>
<asrwt>0</asrwt>
<pdfrwt beam="1">  1       21 0.75900561E-01 0.45760901E+03</pdfrwt>
<pdfrwt beam="2">  1       21 0.14916479E-01 0.45760901E+03</pdfrwt>
<totfact> 0.56438588E+04</totfact>
</mgrwt>
</event>
<event>
 7    0  0.4750554E-002  0.4458037E+03  0.7546771E-02  0.1028981E+00
         21   -1    0    0  502  501  0.00000000000E+00  0.00000000000E+00  0.74932924026E+03  0.74932924026E+03  0.00000000000E+00 0. -1.
         21   -1    0    0  501  502 -0.00000000000E+00 -0.00000000000E+00 -0.66306293771E+02  0.66306293771E+02  0.00000000000E+00 0. -1.
      99926    2    1    2    0    0 -0.71054273576E-14  0.00000000000E+00  0.68302294649E+03  0.81563553403E+03  0.44580374487E+03 0.  0.
      99925    2    3    3    0    0  0.60308082541E+02  0.18965336802E+02  0.28178451129E+03  0.39062195919E+03  0.26303280285E+03 0.  0.
         25    1    3    3    0    0 -0.60308082541E+02 -0.18965336802E+02  0.40123843520E+03  0.42501357484E+03  0.12509000000E+03 0.  0.
         25    1    4    4    0    0  0.85007385956E+01  0.32372831354E+02  0.10025453600E+03  0.16376429054E+03  0.12509000000E+03 0.  0.
         25    1    4    4    0    0  0.51807343945E+02 -0.13407494552E+02  0.18152997529E+03  0.22685766865E+03  0.12509000000E+03 0.  0.
<mgrwt>
<rscale>  2 0.44580374E+03</rscale>
<asrwt>0</asrwt>
<pdfrwt beam="1">  1       21 0.11019547E+00 0.44580374E+03</pdfrwt>
<pdfrwt beam="2">  1       21 0.97509260E-02 0.44580374E+03</pdfrwt>
<totfact> 0.50569466E+04</totfact>
</mgrwt>
</event>
<event>
 7    0  0.4750554E-002  0.4555327E+03  0.7546771E-02  0.1026085E+00
         21   -1    0    0  502  501  0.00000000000E+00  0.00000000000E+00  0.12053037991E+04  0.12053037991E+04  0.00000000000E+00 0. -1.
         21   -1    0    0  501  502 -0.00000000000E+00 -0.00000000000E+00 -0.43041029160E+02  0.43041029160E+02  0.00000000000E+00 0. -1.
      99926    2    1    2    0    0  0.00000000000E+00 -0.17763568394E-14  0.11622627699E+04  0.12483448282E+04  0.45553272533E+03 0.  0.
      99925    2    3    3    0    0 -0.76875750623E+02 -0.90636321178E+01  0.95887652491E+03  0.99733585784E+03  0.26313987316E+03 0.  0.
         25    1    3    3    0    0  0.76875750623E+02  0.90636321178E+01  0.20338624499E+03  0.25100897038E+03  0.12509000000E+03 0.  0.
         25    1    4    4    0    0 -0.34016926722E+02  0.34481842643E+02  0.42947500226E+03  0.44993603372E+03  0.12509000000E+03 0.  0.
         25    1    4    4    0    0 -0.42858823901E+02 -0.43545474761E+02  0.52940152265E+03  0.54739982411E+03  0.12509000000E+03 0.  0.
<mgrwt>
<rscale>  2 0.45553273E+03</rscale>
<asrwt>0</asrwt>
<pdfrwt beam="1">  1       21 0.17725054E+00 0.45553273E+03</pdfrwt>
<pdfrwt beam="2">  1       21 0.63295639E-02 0.45553273E+03</pdfrwt>
<totfact> 0.30525747E+04</totfact>
</mgrwt>
</event>
<event>
 7    0  0.4750554E-002  0.4531892E+03  0.7546771E-02  0.1026775E+00
         21   -1    0    0  502  501  0.00000000000E+00  0.00000000000E+00  0.27757669417E+03  0.27757669417E+03  0.00000000000E+00 0.  1.
         21   -1    0    0  501  502 -0.00000000000E+00 -0.00000000000E+00 -0.18497629615E+03  0.18497629615E+03  0.00000000000E+00 0.  1.
      99926    2    1    2    0    0  0.00000000000E+00  0.17763568394E-14  0.92600398020E+02  0.46255299032E+03  0.45318918251E+03 0.  0.
      99925    2    3    3    0    0 -0.10933566053E+03  0.12097163743E+02  0.40322636671E+02  0.28796461595E+03  0.26305337287E+03 0.  0.
         25    1    3    3    0    0  0.10933566053E+03 -0.12097163743E+02  0.52277761349E+02  0.17458837437E+03  0.12509000000E+03 0.  0.
         25    1    4    4    0    0 -0.64387763973E+02  0.45876214424E+02  0.21556195257E+02  0.14954126137E+03  0.12509000000E+03 0.  0.
         25    1    4    4    0    0 -0.44947896556E+02 -0.33779050681E+02  0.18766441414E+02  0.13842335458E+03  0.12509000000E+03 0.  0.
<mgrwt>
<rscale>  2 0.45318918E+03</rscale>
<asrwt>0</asrwt>
<pdfrwt beam="1">  1       21 0.40820102E-01 0.45318918E+03</pdfrwt>
<pdfrwt beam="2">  1       21 0.27202396E-01 0.45318918E+03</pdfrwt>
<totfact> 0.68979896E+04</totfact>
</mgrwt>
</event>
<event>
 7    0  0.4750554E-002  0.4519683E+03  0.7546771E-02  0.1027137E+00
         21   -1    0    0  502  501  0.00000000000E+00  0.00000000000E+00  0.29734146092E+03  0.29734146092E+03  0.00000000000E+00 0. -1.
         21   -1    0    0  501  502 -0.00000000000E+00 -0.00000000000E+00 -0.17175145650E+03  0.17175145650E+03  0.00000000000E+00 0. -1.
      99926    2    1    2    0    0  0.00000000000E+00  0.71054273576E-14  0.12559000442E+03  0.46909291742E+03  0.45196826876E+03 0.  0.
      99925    2    3    3    0    0 -0.48450069383E+02  0.41222578184E+02  0.17265388169E+03  0.32107526030E+03  0.26312211945E+03 0.  0.
         25    1    4    4    0    0 -0.18867732983E+02 -0.16129659350E+02  0.60759394758E+02  0.14126347514E+03  0.12509000000E+03 0.  0.
         25    1    4    4    0    0 -0.29582336399E+02  0.57352237534E+02  0.11189448693E+03  0.17981178516E+03  0.12509000000E+03 0.  0.
         25    1    3    3    0    0  0.48450069383E+02 -0.41222578184E+02 -0.47063877267E+02  0.14801765712E+03  0.12509000000E+03 0.  0.
<mgrwt>
<rscale>  2 0.45196827E+03</rscale>
<asrwt>0</asrwt>
<pdfrwt beam="1">  1       21 0.43726685E-01 0.45196827E+03</pdfrwt>
<pdfrwt beam="2">  1       21 0.25257567E-01 0.45196827E+03</pdfrwt>
<totfact> 0.69151577E+04</totfact>
</mgrwt>
</event>
<event>
 7    0  0.4750554E-002  0.4505854E+03  0.7546771E-02  0.1027548E+00
         21   -1    0    0  502  501  0.00000000000E+00  0.00000000000E+00  0.46601208530E+03  0.46601208530E+03  0.00000000000E+00 0. -1.
         21   -1    0    0  501  502 -0.00000000000E+00 -0.00000000000E+00 -0.10891734750E+03  0.10891734750E+03  0.00000000000E+00 0. -1.
      99926    2    1    2    0    0  0.00000000000E+00  0.00000000000E+00  0.35709473780E+03  0.57492943280E+03  0.45058539805E+03 0.  0.
      99925    2    3    3    0    0  0.10875626170E+03  0.73159062654E+01  0.21913818804E+03  0.35914953414E+03  0.26284100797E+03 0.  0.
         25    1    3    3    0    0 -0.10875626170E+03 -0.73159062654E+01  0.13795654976E+03  0.21577989866E+03  0.12509000000E+03 0.  0.
         25    1    4    4    0    0  0.79478257718E+02  0.95157511645E+01  0.15805940052E+03  0.21688159250E+03  0.12509000000E+03 0.  0.
         25    1    4    4    0    0  0.29278003983E+02 -0.21998448991E+01  0.61078787518E+02  0.14226794164E+03  0.12509000000E+03 0.  0.
<mgrwt>
<rscale>  2 0.45058540E+03</rscale>
<asrwt>0</asrwt>
<pdfrwt beam="1">  1       21 0.68531189E-01 0.45058540E+03</pdfrwt>
<pdfrwt beam="2">  1       21 0.16017257E-01 0.45058540E+03</pdfrwt>
<totfact> 0.62398235E+04</totfact>
</mgrwt>
</event>
<event>
 7    0  0.4750554E-002  0.4586881E+03  0.7546771E-02  0.1025162E+00
         21   -1    0    0  502  501  0.00000000000E+00  0.00000000000E+00  0.10235553573E+03  0.10235553573E+03  0.00000000000E+00 0. -1.
         21   -1    0    0  501  502 -0.00000000000E+00 -0.00000000000E+00 -0.51388235753E+03  0.51388235753E+03  0.00000000000E+00 0. -1.
      99926    2    1    2    0    0  0.00000000000E+00  0.00000000000E+00 -0.41152682180E+03  0.61623789326E+03  0.45868814681E+03 0.  0.
      99925    2    3    3    0    0  0.11236519510E+02 -0.81838465162E+02 -0.36862138643E+03  0.46031426376E+03  0.26302794745E+03 0.  0.
         25    1    3    3    0    0 -0.11236519510E+02  0.81838465162E+02 -0.42905435373E+02  0.15592362950E+03  0.12509000000E+03 0.  0.
         25    1    4    4    0    0 -0.13989174717E+02 -0.22460300326E+02 -0.22771959729E+03  0.26115873562E+03  0.12509000000E+03 0.  0.
         25    1    4    4    0    0  0.25225694227E+02 -0.59378164836E+02 -0.14090178914E+03  0.19915552815E+03  0.12509000000E+03 0.  0.
<mgrwt>
<rscale>  2 0.45868815E+03</rscale>
<asrwt>0</asrwt>
<pdfrwt beam="1">  1       21 0.15052285E-01 0.45868815E+03</pdfrwt>
<pdfrwt beam="2">  1       21 0.75570934E-01 0.45868815E+03</pdfrwt>
<totfact> 0.56039534E+04</totfact>
</mgrwt>
</event>
<event>
 7    0  0.4750554E-002  0.4566257E+03  0.7546771E-02  0.1025764E+00
         21   -1    0    0  502  501  0.00000000000E+00  0.00000000000E+00  0.71737118037E+03  0.71737118037E+03  0.00000000000E+00 0. -1.
         21   -1    0    0  501  502 -0.00000000000E+00 -0.00000000000E+00 -0.72663588467E+02  0.72663588467E+02  0.00000000000E+00 0. -1.
      99926    2    1    2    0    0 -0.71054273576E-14  0.00000000000E+00  0.64470759190E+03  0.79003476883E+03  0.45662572958E+03 0.  0.
      99925    2    3    3    0    0 -0.46656009545E+02 -0.69295598443E+02  0.26922470235E+03  0.38554302401E+03  0.26302627210E+03 0.  0.
         25    1    3    3    0    0  0.46656009545E+02  0.69295598443E+02  0.37548288954E+03  0.40449174482E+03  0.12509000000E+03 0.  0.
         25    1    4    4    0    0 -0.13881255149E+02 -0.74335524690E+02  0.15302958824E+03  0.21162235811E+03  0.12509000000E+03 0.  0.
         25    1    4    4    0    0 -0.32774754396E+02  0.50399262474E+01  0.11619511411E+03  0.17392066590E+03  0.12509000000E+03 0.  0.
<mgrwt>
<rscale>  2 0.45662573E+03</rscale>
<asrwt>0</asrwt>
<pdfrwt beam="1">  1       21 0.10549576E+00 0.45662573E+03</pdfrwt>
<pdfrwt beam="2">  1       21 0.10685822E-01 0.45662573E+03</pdfrwt>
<totfact> 0.47639843E+04</totfact>
</mgrwt>
</event>
<event>
 7    0  0.4750554E-002  0.4564994E+03  0.7546771E-02  0.1025801E+00
         21   -1    0    0  502  501  0.00000000000E+00  0.00000000000E+00  0.25173400749E+03  0.25173400749E+03  0.00000000000E+00 0. -1.
         21   -1    0    0  501  502 -0.00000000000E+00 -0.00000000000E+00 -0.20695627996E+03  0.20695627996E+03  0.00000000000E+00 0. -1.
      99926    2    1    2    0    0 -0.14210854715E-13  0.00000000000E+00  0.44777727531E+02  0.45869028744E+03  0.45649943583E+03 0.  0.
      99925    2    3    3    0    0 -0.11397284102E+03 -0.10315723878E+02  0.33273184816E+02  0.28876063949E+03  0.26301973204E+03 0.  0.
         25    1    4    4    0    0 -0.96134289556E+02 -0.18462352044E+01 -0.19240392654E+00  0.15777438110E+03  0.12509000000E+03 0.  0.
         25    1    3    3    0    0  0.11397284102E+03  0.10315723878E+02  0.11504542715E+02  0.16992964795E+03  0.12509000000E+03 0.  0.
         25    1    4    4    0    0 -0.17838551465E+02 -0.84694886738E+01  0.33465588742E+02  0.13098625839E+03  0.12509000000E+03 0.  0.
<mgrwt>
<rscale>  2 0.45649944E+03</rscale>
<asrwt>0</asrwt>
<pdfrwt beam="1">  1       21 0.37019707E-01 0.45649944E+03</pdfrwt>
<pdfrwt beam="2">  1       21 0.30434747E-01 0.45649944E+03</pdfrwt>
<totfact> 0.67465549E+04</totfact>
</mgrwt>
</event>
<event>
 7    0  0.4750554E-002  0.4333419E+03  0.7546771E-02  0.1032809E+00
         21   -1    0    0  502  501  0.00000000000E+00  0.00000000000E+00  0.14719389465E+04  0.14719389465E+04  0.00000000000E+00 0. -1.
         21   -1    0    0  501  502 -0.00000000000E+00 -0.00000000000E+00 -0.31894195848E+02  0.31894195848E+02  0.00000000000E+00 0. -1.
      99926    2    1    2    0    0 -0.35527136788E-14  0.00000000000E+00  0.14400447506E+04  0.15038331423E+04  0.43334193905E+03 0.  0.
      99925    2    3    3    0    0 -0.30256961541E+02 -0.48454122756E+02  0.67863706423E+03  0.73010679617E+03  0.26314327490E+03 0.  0.
         25    1    4    4    0    0  0.24831536350E+02 -0.19273133289E+02  0.34863517548E+03  0.37172846615E+03  0.12509000000E+03 0.  0.
         25    1    4    4    0    0 -0.55088497891E+02 -0.29180989467E+02  0.33000188875E+03  0.35837833002E+03  0.12509000000E+03 0.  0.
         25    1    3    3    0    0  0.30256961541E+02  0.48454122756E+02  0.76140768641E+03  0.77372634617E+03  0.12509000000E+03 0.  0.
<mgrwt>
<rscale>  2 0.43334194E+03</rscale>
<asrwt>0</asrwt>
<pdfrwt beam="1">  1       21 0.21646156E+00 0.43334194E+03</pdfrwt>
<pdfrwt beam="2">  1       21 0.46903239E-02 0.43334194E+03</pdfrwt>
<totfact> 0.28128103E+04</totfact>
</mgrwt>
</event>
<event>
 7    0  0.4750554E-002  0.4567662E+03  0.7546771E-02  0.1025723E+00
         21   -1    0    0  502  501  0.00000000000E+00  0.00000000000E+00  0.16901535097E+03  0.16901535097E+03  0.00000000000E+00 0.  1.
         21   -1    0    0  501  502 -0.00000000000E+00 -0.00000000000E+00 -0.30860418412E+03  0.30860418412E+03  0.00000000000E+00 0.  1.
      99926    2    1    2    0    0  0.35527136788E-14  0.00000000000E+00 -0.13958883315E+03  0.47761953510E+03  0.45676621807E+03 0.  0.
      99925    2    3    3    0    0 -0.24521652059E+02 -0.11027826718E+03 -0.10909744990E+03  0.30633077252E+03  0.26300889906E+03 0.  0.
         25    1    3    3    0    0  0.24521652059E+02  0.11027826718E+03 -0.30491383254E+02  0.17128876258E+03  0.12509000000E+03 0.  0.
         25    1    4    4    0    0 -0.37644221211E+02 -0.42447892115E+02 -0.22352055680E+02  0.13916189647E+03  0.12509000000E+03 0.  0.
         25    1    4    4    0    0  0.13122569152E+02 -0.67830375067E+02 -0.86745394217E+02  0.16716887605E+03  0.12509000000E+03 0.  0.
<mgrwt>
<rscale>  2 0.45676622E+03</rscale>
<asrwt>0</asrwt>
<pdfrwt beam="1">  1       21 0.24855199E-01 0.45676622E+03</pdfrwt>
<pdfrwt beam="2">  1       21 0.45382968E-01 0.45676622E+03</pdfrwt>
<totfact> 0.65944556E+04</totfact>
</mgrwt>
</event>
<event>
 7    0  0.4750554E-002  0.4590006E+03  0.7546771E-02  0.1025071E+00
         21   -1    0    0  502  501  0.00000000000E+00  0.00000000000E+00  0.14930321200E+04  0.14930321200E+04  0.00000000000E+00 0. -1.
         21   -1    0    0  501  502 -0.00000000000E+00 -0.00000000000E+00 -0.35277465183E+02  0.35277465183E+02  0.00000000000E+00 0. -1.
      99926    2    1    2    0    0  0.00000000000E+00 -0.17763568394E-14  0.14577546548E+04  0.15283095852E+04  0.45900060405E+03 0.  0.
      99925    2    3    3    0    0 -0.11698741348E+02 -0.21911645137E+01  0.13011846355E+04  0.13275526655E+04  0.26300753277E+03 0.  0.
         25    1    4    4    0    0  0.28165356202E+02  0.14826000684E+02  0.72024778921E+03  0.73172227214E+03  0.12509000000E+03 0.  0.
         25    1    4    4    0    0 -0.39864097550E+02 -0.17017165198E+02  0.58093684624E+03  0.59583039332E+03  0.12509000000E+03 0.  0.
         25    1    3    3    0    0  0.11698741348E+02  0.21911645137E+01  0.15657001936E+03  0.20075691972E+03  0.12509000000E+03 0.  0.
<mgrwt>
<rscale>  2 0.45900060E+03</rscale>
<asrwt>0</asrwt>
<pdfrwt beam="1">  1       21 0.21956350E+00 0.45900060E+03</pdfrwt>
<pdfrwt beam="2">  1       21 0.51878635E-02 0.45900060E+03</pdfrwt>
<totfact> 0.22389950E+04</totfact>
</mgrwt>
</event>
<event>
 7    0  0.4750554E-002  0.4518793E+03  0.7546771E-02  0.1027163E+00
         21   -1    0    0  502  501  0.00000000000E+00  0.00000000000E+00  0.40429811162E+02  0.40429811162E+02  0.00000000000E+00 0. -1.
         21   -1    0    0  501  502 -0.00000000000E+00 -0.00000000000E+00 -0.12626503713E+04  0.12626503713E+04  0.00000000000E+00 0. -1.
      99926    2    1    2    0    0  0.00000000000E+00  0.14210854715E-13 -0.12222205601E+04  0.13030801824E+04  0.45187925853E+03 0.  0.
      99925    2    3    3    0    0 -0.79842591179E+01  0.97580115701E+02 -0.62520571725E+03  0.68529392646E+03  0.26298279295E+03 0.  0.
         25    1    3    3    0    0  0.79842591179E+01 -0.97580115701E+02 -0.59701484285E+03  0.61778625596E+03  0.12509000000E+03 0.  0.
         25    1    4    4    0    0  0.40996083277E+01  0.89503692918E+02 -0.31762981515E+03  0.35293614919E+03  0.12509000000E+03 0.  0.
         25    1    4    4    0    0 -0.12083867446E+02  0.80764227829E+01 -0.30757590210E+03  0.33235777727E+03  0.12509000000E+03 0.  0.
<mgrwt>
<rscale>  2 0.45187926E+03</rscale>
<asrwt>0</asrwt>
<pdfrwt beam="1">  1       21 0.59455611E-02 0.45187926E+03</pdfrwt>
<pdfrwt beam="2">  1       21 0.18568386E+00 0.45187926E+03</pdfrwt>
<totfact> 0.29740634E+04</totfact>
</mgrwt>
</event>
<event>
 7    0  0.4750554E-002  0.4569486E+03  0.7546771E-02  0.1025670E+00
         21   -1    0    0  502  501  0.00000000000E+00  0.00000000000E+00  0.10988103634E+03  0.10988103634E+03  0.00000000000E+00 0. -1.
         21   -1    0    0  501  502 -0.00000000000E+00 -0.00000000000E+00 -0.47506386135E+03  0.47506386135E+03  0.00000000000E+00 0. -1.
      99926    2    1    2    0    0  0.00000000000E+00  0.00000000000E+00 -0.36518282502E+03  0.58494489769E+03  0.45694861598E+03 0.  0.
      99925    2    3    3    0    0 -0.10023906304E+03  0.36034264735E+02 -0.17423045982E+03  0.33303885991E+03  0.26308228957E+03 0.  0.
         25    1    4    4    0    0 -0.87022991608E+02  0.21052189884E+02 -0.70062094646E+02  0.16903372733E+03  0.12509000000E+03 0.  0.
         25    1    4    4    0    0 -0.13216071433E+02  0.14982074850E+02 -0.10416836517E+03  0.16400513258E+03  0.12509000000E+03 0.  0.
         25    1    3    3    0    0  0.10023906304E+03 -0.36034264735E+02 -0.19095236520E+03  0.25190603778E+03  0.12509000000E+03 0.  0.
<mgrwt>
<rscale>  2 0.45694862E+03</rscale>
<asrwt>0</asrwt>
<pdfrwt beam="1">  1       21 0.16158976E-01 0.45694862E+03</pdfrwt>
<pdfrwt beam="2">  1       21 0.69862330E-01 0.45694862E+03</pdfrwt>
<totfact> 0.58705163E+04</totfact>
</mgrwt>
</event>
<event>
 7    0  0.4750554E-002  0.4525488E+03  0.7546771E-02  0.1026965E+00
         21   -1    0    0  502  501  0.00000000000E+00  0.00000000000E+00  0.15998038990E+03  0.15998038990E+03  0.00000000000E+00 0.  1.
         21   -1    0    0  501  502 -0.00000000000E+00 -0.00000000000E+00 -0.32003988822E+03  0.32003988822E+03  0.00000000000E+00 0.  1.
      99926    2    1    2    0    0  0.00000000000E+00  0.00000000000E+00 -0.16005949831E+03  0.48002027812E+03  0.45254880886E+03 0.  0.
      99925    2    3    3    0    0 -0.60736736118E+02  0.42217649703E+02 -0.13367340362E+02  0.27353207418E+03  0.26300157558E+03 0.  0.
         25    1    3    3    0    0  0.60736736118E+02 -0.42217649703E+02 -0.14669215795E+03  0.20648820394E+03  0.12509000000E+03 0.  0.
         25    1    4    4    0    0  0.71250201661E+01  0.23068326254E+02 -0.23628279210E+02  0.12957128257E+03  0.12509000000E+03 0.  0.
         25    1    4    4    0    0 -0.67861756284E+02  0.19149323449E+02  0.10260938848E+02  0.14396079161E+03  0.12509000000E+03 0.  0.
<mgrwt>
<rscale>  2 0.45254881E+03</rscale>
<asrwt>0</asrwt>
<pdfrwt beam="1">  1       21 0.23526528E-01 0.45254881E+03</pdfrwt>
<pdfrwt beam="2">  1       21 0.47064689E-01 0.45254881E+03</pdfrwt>
<totfact> 0.68012337E+04</totfact>
</mgrwt>
</event>
<event>
 7    0  0.4750554E-002  0.4468699E+03  0.7546771E-02  0.1028660E+00
         21   -1    0    0  502  501  0.00000000000E+00  0.00000000000E+00  0.17389647937E+03  0.17389647937E+03  0.00000000000E+00 0. -1.
         21   -1    0    0  501  502 -0.00000000000E+00 -0.00000000000E+00 -0.28708563693E+03  0.28708563693E+03  0.00000000000E+00 0. -1.
      99926    2    1    2    0    0  0.71054273576E-14  0.35527136788E-14 -0.11318915756E+03  0.46098211630E+03  0.44686992085E+03 0.  0.
      99925    2    3    3    0    0  0.38450645004E+02 -0.13325593726E+02 -0.17198277633E+03  0.31689803926E+03  0.26304043108E+03 0.  0.
         25    1    4    4    0    0  0.40000739876E+02  0.26035408676E+02 -0.72236403568E+02  0.15212990434E+03  0.12509000000E+03 0.  0.
         25    1    3    3    0    0 -0.38450645004E+02  0.13325593726E+02  0.58793618764E+02  0.14408407704E+03  0.12509000000E+03 0.  0.
         25    1    4    4    0    0 -0.15500948713E+01 -0.39361002402E+02 -0.99746372762E+02  0.16476813491E+03  0.12509000000E+03 0.  0.
<mgrwt>
<rscale>  2 0.44686992E+03</rscale>
<asrwt>0</asrwt>
<pdfrwt beam="1">  1       21 0.25573012E-01 0.44686992E+03</pdfrwt>
<pdfrwt beam="2">  1       21 0.42218476E-01 0.44686992E+03</pdfrwt>
<totfact> 0.72688217E+04</totfact>
</mgrwt>
</event>
<event>
 7    0  0.4750554E-002  0.4675623E+03  0.7546771E-02  0.1022610E+00
         21   -1    0    0  502  501  0.00000000000E+00  0.00000000000E+00  0.23241923756E+03  0.23241923756E+03  0.00000000000E+00 0.  1.
         21   -1    0    0  501  502 -0.00000000000E+00 -0.00000000000E+00 -0.23515104673E+03  0.23515104673E+03  0.00000000000E+00 0.  1.
      99926    2    1    2    0    0 -0.14210854715E-13  0.00000000000E+00 -0.27318091719E+01  0.46757028428E+03  0.46756230383E+03 0.  0.
      99925    2    3    3    0    0 -0.53785384337E+02 -0.11201734664E+03 -0.10972880520E+02  0.29105916035E+03  0.26297200840E+03 0.  0.
         25    1    4    4    0    0 -0.54133634304E+02 -0.69210194961E+02  0.22912615613E+02  0.15457359899E+03  0.12509000000E+03 0.  0.
         25    1    3    3    0    0  0.53785384337E+02  0.11201734664E+03  0.82410713479E+01  0.17651112393E+03  0.12509000000E+03 0.  0.
         25    1    4    4    0    0  0.34824996630E+00 -0.42807151675E+02 -0.33885496133E+02  0.13648556136E+03  0.12509000000E+03 0.  0.
<mgrwt>
<rscale>  2 0.46756230E+03</rscale>
<asrwt>0</asrwt>
<pdfrwt beam="1">  1       21 0.34179300E-01 0.46756230E+03</pdfrwt>
<pdfrwt beam="2">  1       21 0.34581036E-01 0.46756230E+03</pdfrwt>
<totfact> 0.61260055E+04</totfact>
</mgrwt>
</event>
<event>
 7    0  0.4750554E-002  0.4566747E+03  0.7546771E-02  0.1025750E+00
         21   -1    0    0  502  501  0.00000000000E+00  0.00000000000E+00  0.75318667470E+03  0.75318667470E+03  0.00000000000E+00 0. -1.
         21   -1    0    0  501  502 -0.00000000000E+00 -0.00000000000E+00 -0.69223150898E+02  0.69223150898E+02  0.00000000000E+00 0. -1.
      99926    2    1    2    0    0 -0.94368957093E-15  0.00000000000E+00  0.68396352380E+03  0.82240982560E+03  0.45667474131E+03 0.  0.
      99925    2    3    3    0    0  0.14014865773E+00  0.91623830278E+02  0.55406094221E+03  0.62012998300E+03  0.26302608657E+03 0.  0.
         25    1    4    4    0    0 -0.14060731110E+02  0.20675842036E+02  0.19432706898E+03  0.23245582902E+03  0.12509000000E+03 0.  0.
         25    1    4    4    0    0  0.14200879768E+02  0.70947988242E+02  0.35973387323E+03  0.38767415399E+03  0.12509000000E+03 0.  0.
         25    1    3    3    0    0 -0.14014865773E+00 -0.91623830278E+02  0.12990258159E+03  0.20227984259E+03  0.12509000000E+03 0.  0.
<mgrwt>
<rscale>  2 0.45667474E+03</rscale>
<asrwt>0</asrwt>
<pdfrwt beam="1">  1       21 0.11076274E+00 0.45667474E+03</pdfrwt>
<pdfrwt beam="2">  1       21 0.10179876E-01 0.45667474E+03</pdfrwt>
<totfact> 0.46091235E+04</totfact>
</mgrwt>
</event>
<event>
 7    0  0.4750554E-002  0.4517235E+03  0.7546771E-02  0.1027209E+00
         21   -1    0    0  502  501  0.00000000000E+00  0.00000000000E+00  0.14662807642E+03  0.14662807642E+03  0.00000000000E+00 0.  1.
         21   -1    0    0  501  502 -0.00000000000E+00 -0.00000000000E+00 -0.34791107007E+03  0.34791107007E+03  0.00000000000E+00 0.  1.
      99926    2    1    2    0    0  0.00000000000E+00  0.00000000000E+00 -0.20128299365E+03  0.49453914649E+03  0.45172350380E+03 0.  0.
      99925    2    3    3    0    0  0.16486164532E+02 -0.85849595065E+02 -0.20008089062E+03  0.34192558306E+03  0.26313265659E+03 0.  0.
         25    1    4    4    0    0 -0.68821479177E+01 -0.31921527702E+02 -0.51945428063E+02  0.13932761208E+03  0.12509000000E+03 0.  0.
         25    1    4    4    0    0  0.23368312450E+02 -0.53928067363E+02 -0.14813546256E+03  0.20259797098E+03  0.12509000000E+03 0.  0.
         25    1    3    3    0    0 -0.16486164532E+02  0.85849595065E+02 -0.12021030228E+01  0.15261356344E+03  0.12509000000E+03 0.  0.
<mgrwt>
<rscale>  2 0.45172350E+03</rscale>
<asrwt>0</asrwt>
<pdfrwt beam="1">  1       21 0.21562953E-01 0.45172350E+03</pdfrwt>
<pdfrwt beam="2">  1       21 0.51163392E-01 0.45172350E+03</pdfrwt>
<totfact> 0.67391922E+04</totfact>
</mgrwt>
</event>
<event>
 7    0  0.4750554E-002  0.4494023E+03  0.7546771E-02  0.1027900E+00
         21   -1    0    0  502  501  0.00000000000E+00  0.00000000000E+00  0.13417018043E+03  0.13417018043E+03  0.00000000000E+00 0. -1.
         21   -1    0    0  501  502 -0.00000000000E+00 -0.00000000000E+00 -0.37631757322E+03  0.37631757322E+03  0.00000000000E+00 0. -1.
      99926    2    1    2    0    0  0.00000000000E+00  0.00000000000E+00 -0.24214739279E+03  0.51048775365E+03  0.44940225499E+03 0.  0.
      99925    2    3    3    0    0 -0.70331083853E+02  0.44316785768E+02 -0.23112174330E+03  0.35989056940E+03  0.26304661728E+03 0.  0.
         25    1    4    4    0    0 -0.29533592807E+02  0.35506676336E+02 -0.16568474880E+03  0.21267792846E+03  0.12509000000E+03 0.  0.
         25    1    4    4    0    0 -0.40797491047E+02  0.88101094325E+01 -0.65436994500E+02  0.14721264094E+03  0.12509000000E+03 0.  0.
         25    1    3    3    0    0  0.70331083853E+02 -0.44316785768E+02 -0.11025649493E+02  0.15059718425E+03  0.12509000000E+03 0.  0.
<mgrwt>
<rscale>  2 0.44940225E+03</rscale>
<asrwt>0</asrwt>
<pdfrwt beam="1">  1       21 0.19730909E-01 0.44940225E+03</pdfrwt>
<pdfrwt beam="2">  1       21 0.55340819E-01 0.44940225E+03</pdfrwt>
<totfact> 0.67488367E+04</totfact>
</mgrwt>
</event>
<event>
 7    0  0.4750554E-002  0.4495803E+03  0.7546771E-02  0.1027847E+00
         21   -1    0    0  502  501  0.00000000000E+00  0.00000000000E+00  0.48086028985E+03  0.48086028985E+03  0.00000000000E+00 0. -1.
         21   -1    0    0  501  502 -0.00000000000E+00 -0.00000000000E+00 -0.10508375049E+03  0.10508375049E+03  0.00000000000E+00 0. -1.
      99926    2    1    2    0    0  0.55511151231E-16  0.00000000000E+00  0.37577653935E+03  0.58594404034E+03  0.44958026078E+03 0.  0.
      99925    2    3    3    0    0  0.18397845048E+00  0.10784348837E+03  0.23808402314E+03  0.37091616087E+03  0.26318158082E+03 0.  0.
         25    1    3    3    0    0 -0.18397845048E+00 -0.10784348837E+03  0.13769251621E+03  0.21502787947E+03  0.12509000000E+03 0.  0.
         25    1    4    4    0    0 -0.35613734600E+02  0.57113339287E+02  0.94448714092E+02  0.17058235346E+03  0.12509000000E+03 0.  0.
         25    1    4    4    0    0  0.35797713050E+02  0.50730149078E+02  0.14363530905E+03  0.20033380741E+03  0.12509000000E+03 0.  0.
<mgrwt>
<rscale>  2 0.44958026E+03</rscale>
<asrwt>0</asrwt>
<pdfrwt beam="1">  1       21 0.70714747E-01 0.44958026E+03</pdfrwt>
<pdfrwt beam="2">  1       21 0.15453493E-01 0.44958026E+03</pdfrwt>
<totfact> 0.62172818E+04</totfact>
</mgrwt>
</event>
<event>
 7    0  0.4750554E-002  0.4574964E+03  0.7546771E-02  0.1025510E+00
         21   -1    0    0  502  501  0.00000000000E+00  0.00000000000E+00  0.12605720990E+03  0.12605720990E+03  0.00000000000E+00 0. -1.
         21   -1    0    0  501  502 -0.00000000000E+00 -0.00000000000E+00 -0.41509523262E+03  0.41509523262E+03  0.00000000000E+00 0. -1.
      99926    2    1    2    0    0  0.00000000000E+00  0.00000000000E+00 -0.28903802272E+03  0.54115244251E+03  0.45749643437E+03 0.  0.
      99925    2    3    3    0    0  0.31142792861E+02 -0.45386563067E+02 -0.60023763148E+02  0.27446001135E+03  0.26209851589E+03 0.  0.
         25    1    3    3    0    0 -0.31142792861E+02  0.45386563067E+02 -0.22901425957E+03  0.26669243117E+03  0.12509000000E+03 0.  0.
         25    1    4    4    0    0  0.88515237071E+01 -0.23683901171E+02  0.95592727182E+01  0.12797720282E+03  0.12509000000E+03 0.  0.
         25    1    4    4    0    0  0.22291269154E+02 -0.21702661896E+02 -0.69583035866E+02  0.14648280853E+03  0.12509000000E+03 0.  0.
<mgrwt>
<rscale>  2 0.45749643E+03</rscale>
<asrwt>0</asrwt>
<pdfrwt beam="1">  1       21 0.18537826E-01 0.45749643E+03</pdfrwt>
<pdfrwt beam="2">  1       21 0.61043414E-01 0.45749643E+03</pdfrwt>
<totfact> 0.61236193E+04</totfact>
</mgrwt>
</event>
<event>
 7    0  0.4750554E-002  0.4438709E+03  0.7546771E-02  0.1029566E+00
         21   -1    0    0  502  501  0.00000000000E+00  0.00000000000E+00  0.58819059179E+02  0.58819059179E+02  0.00000000000E+00 0.  1.
         21   -1    0    0  501  502 -0.00000000000E+00 -0.00000000000E+00 -0.83740438584E+03  0.83740438584E+03  0.00000000000E+00 0.  1.
      99926    2    1    2    0    0  0.00000000000E+00  0.00000000000E+00 -0.77858532666E+03  0.89622344502E+03  0.44387087369E+03 0.  0.
      99925    2    3    3    0    0 -0.45263561832E+02  0.40253569662E+02 -0.32819210076E+03  0.42487356866E+03  0.26294173204E+03 0.  0.
         25    1    3    3    0    0  0.45263561832E+02 -0.40253569662E+02 -0.45039322590E+03  0.47134987635E+03  0.12509000000E+03 0.  0.
         25    1    4    4    0    0 -0.35403324212E+02  0.59341636398E+02 -0.17415040546E+03  0.22527915349E+03  0.12509000000E+03 0.  0.
         25    1    4    4    0    0 -0.98602376200E+01 -0.19088066736E+02 -0.15404169530E+03  0.19959441517E+03  0.12509000000E+03 0.  0.
<mgrwt>
<rscale>  2 0.44387087E+03</rscale>
<asrwt>0</asrwt>
<pdfrwt beam="1">  1       21 0.86498617E-02 0.44387087E+03</pdfrwt>
<pdfrwt beam="2">  1       21 0.12314770E+00 0.44387087E+03</pdfrwt>
<totfact> 0.47392850E+04</totfact>
</mgrwt>
</event>
<event>
 7    0  0.4750554E-002  0.4520456E+03  0.7546771E-02  0.1027114E+00
         21   -1    0    0  502  501  0.00000000000E+00  0.00000000000E+00  0.92159918054E+03  0.92159918054E+03  0.00000000000E+00 0. -1.
         21   -1    0    0  501  502 -0.00000000000E+00 -0.00000000000E+00 -0.55432231672E+02  0.55432231672E+02  0.00000000000E+00 0. -1.
      99926    2    1    2    0    0  0.00000000000E+00  0.44408920985E-15  0.86616694887E+03  0.97703141222E+03  0.45204556976E+03 0.  0.
      99925    2    3    3    0    0 -0.38174705042E+02  0.33359334316E+01  0.77027269829E+03  0.81482274429E+03  0.26295938530E+03 0.  0.
         25    1    3    3    0    0  0.38174705042E+02 -0.33359334316E+01  0.95894250577E+02  0.16220866793E+03  0.12509000000E+03 0.  0.
         25    1    4    4    0    0  0.10790103680E+02 -0.24455518807E+02  0.40012171595E+03  0.42007070168E+03  0.12509000000E+03 0.  0.
         25    1    4    4    0    0 -0.48964808722E+02  0.27791452239E+02  0.37015098235E+03  0.39475204261E+03  0.12509000000E+03 0.  0.
<mgrwt>
<rscale>  2 0.45204557E+03</rscale>
<asrwt>0</asrwt>
<pdfrwt beam="1">  1       21 0.13552928E+00 0.45204557E+03</pdfrwt>
<pdfrwt beam="2">  1       21 0.81517993E-02 0.45204557E+03</pdfrwt>
<totfact> 0.41003952E+04</totfact>
</mgrwt>
</event>
<event>
 7    0  0.4750554E-002  0.4499549E+03  0.7546771E-02  0.1027735E+00
         21   -1    0    0  502  501  0.00000000000E+00  0.00000000000E+00  0.40353293253E+02  0.40353293253E+02  0.00000000000E+00 0. -1.
         21   -1    0    0  501  502 -0.00000000000E+00 -0.00000000000E+00 -0.12542931468E+04  0.12542931468E+04  0.00000000000E+00 0. -1.
      99926    2    1    2    0    0 -0.14210854715E-13 -0.26645352591E-14 -0.12139398536E+04  0.12946464401E+04  0.44995492743E+03 0.  0.
      99925    2    3    3    0    0 -0.86450397155E+02 -0.48277664421E+01 -0.95478844781E+03  0.99414030419E+03  0.26305319967E+03 0.  0.
         25    1    3    3    0    0  0.86450397155E+02  0.48277664421E+01 -0.25915140579E+03  0.30050613591E+03  0.12509000000E+03 0.  0.
         25    1    4    4    0    0 -0.35745443798E+01  0.12055324715E+02 -0.41428087897E+03  0.43293678869E+03  0.12509000000E+03 0.  0.
         25    1    4    4    0    0 -0.82875852775E+02 -0.16883091158E+02 -0.54050756884E+03  0.56120351550E+03  0.12509000000E+03 0.  0.
<mgrwt>
<rscale>  2 0.44995493E+03</rscale>
<asrwt>0</asrwt>
<pdfrwt beam="1">  1       21 0.59343085E-02 0.44995493E+03</pdfrwt>
<pdfrwt beam="2">  1       21 0.18445485E+00 0.44995493E+03</pdfrwt>
<totfact> 0.30447865E+04</totfact>
</mgrwt>
</event>
<event>
 7    0  0.4750554E-002  0.4589379E+03  0.7546771E-02  0.1025090E+00
         21   -1    0    0  502  501  0.00000000000E+00  0.00000000000E+00  0.17247848466E+03  0.17247848466E+03  0.00000000000E+00 0.  1.
         21   -1    0    0  501  502 -0.00000000000E+00 -0.00000000000E+00 -0.30529019835E+03  0.30529019835E+03  0.00000000000E+00 0.  1.
      99926    2    1    2    0    0  0.00000000000E+00  0.00000000000E+00 -0.13281171369E+03  0.47776868302E+03  0.45893786418E+03 0.  0.
      99925    2    3    3    0    0  0.10854070534E+03  0.42723606252E+02 -0.89676337873E+02  0.30137548589E+03  0.26301890935E+03 0.  0.
         25    1    4    4    0    0  0.95481365064E+02  0.12627973287E+02 -0.40169028363E+02  0.16290247304E+03  0.12509000000E+03 0.  0.
         25    1    4    4    0    0  0.13059340275E+02  0.30095632965E+02 -0.49507309510E+02  0.13847301285E+03  0.12509000000E+03 0.  0.
         25    1    3    3    0    0 -0.10854070534E+03 -0.42723606252E+02 -0.43135375817E+02  0.17639319713E+03  0.12509000000E+03 0.  0.
<mgrwt>
<rscale>  2 0.45893786E+03</rscale>
<asrwt>0</asrwt>
<pdfrwt beam="1">  1       21 0.25364483E-01 0.45893786E+03</pdfrwt>
<pdfrwt beam="2">  1       21 0.44895617E-01 0.45893786E+03</pdfrwt>
<totfact> 0.64813603E+04</totfact>
</mgrwt>
</event>
<event>
 7    0  0.4750554E-002  0.4477620E+03  0.7546771E-02  0.1028392E+00
         21   -1    0    0  502  501  0.00000000000E+00  0.00000000000E+00  0.91986163749E+02  0.91986163749E+02  0.00000000000E+00 0. -1.
         21   -1    0    0  501  502 -0.00000000000E+00 -0.00000000000E+00 -0.54489392317E+03  0.54489392317E+03  0.00000000000E+00 0. -1.
      99926    2    1    2    0    0  0.71054273576E-14 -0.14210854715E-13 -0.45290775943E+03  0.63688008692E+03  0.44776199769E+03 0.  0.
      99925    2    3    3    0    0  0.42905882042E+02 -0.69431606611E+02 -0.19085407873E+03  0.33524901694E+03  0.26325835463E+03 0.  0.
         25    1    4    4    0    0  0.98110054866E+01 -0.74225431989E+02 -0.92597014389E+02  0.17270606751E+03  0.12509000000E+03 0.  0.
         25    1    4    4    0    0  0.33094876556E+02  0.47938253776E+01 -0.98257064338E+02  0.16254294943E+03  0.12509000000E+03 0.  0.
         25    1    3    3    0    0 -0.42905882042E+02  0.69431606611E+02 -0.26205368070E+03  0.30163106998E+03  0.12509000000E+03 0.  0.
<mgrwt>
<rscale>  2 0.44776200E+03</rscale>
<asrwt>0</asrwt>
<pdfrwt beam="1">  1       21 0.13527377E-01 0.44776200E+03</pdfrwt>
<pdfrwt beam="2">  1       21 0.80131461E-01 0.44776200E+03</pdfrwt>
<totfact> 0.59807504E+04</totfact>
</mgrwt>
</event>
<event>
 6    0  0.4750554E-002  0.4566373E+03  0.7546771E-02  0.1025761E+00
         21   -1    0    0  502  501  0.00000000000E+00  0.00000000000E+00  0.70684222987E+03  0.70684222987E+03  0.00000000000E+00 0.  1.
         21   -1    0    0  501  502 -0.00000000000E+00 -0.00000000000E+00 -0.73749690127E+02  0.73749690127E+02  0.00000000000E+00 0.  1.
      99926    2    1    2    0    0  0.00000000000E+00  0.00000000000E+00  0.63309253974E+03  0.78059191999E+03  0.45663725394E+03 0.  0.
         25    1    3    3    0    0  0.74493620485E+02 -0.83684571107E+02  0.24047979855E+03  0.29330947572E+03  0.12509000000E+03 0.  0.
         25    1    3    3    0    0 -0.13169538602E+02  0.55701738649E+02  0.13309806220E+03  0.19141244133E+03  0.12509000000E+03 0.  0.
         25    1    3    3    0    0 -0.61324081883E+02  0.27982832459E+02  0.25951467899E+03  0.29587000294E+03  0.12509000000E+03 0.  0.
<mgrwt>
<rscale>  2 0.45663725E+03</rscale>
<asrwt>0</asrwt>
<pdfrwt beam="1">  1       21 0.10394738E+00 0.45663725E+03</pdfrwt>
<pdfrwt beam="2">  1       21 0.10845543E-01 0.45663725E+03</pdfrwt>
<totfact> 0.48096844E+04</totfact>
</mgrwt>
</event>
<event>
 7    0  0.4750554E-002  0.4718320E+03  0.7546771E-02  0.1021404E+00
         21   -1    0    0  502  501  0.00000000000E+00  0.00000000000E+00  0.67777252852E+02  0.67777252852E+02  0.00000000000E+00 0.  1.
         21   -1    0    0  501  502 -0.00000000000E+00 -0.00000000000E+00 -0.82116568232E+03  0.82116568232E+03  0.00000000000E+00 0.  1.
      99926    2    1    2    0    0  0.14210854715E-13  0.35527136788E-14 -0.75338842946E+03  0.88894293517E+03  0.47183197892E+03 0.  0.
      99925    2    3    3    0    0  0.98370502381E+02  0.24958733825E+02 -0.61559565297E+03  0.67696639994E+03  0.26272762428E+03 0.  0.
         25    1    4    4    0    0  0.44345260706E+02  0.32135392368E+02 -0.39114391837E+03  0.41429489324E+03  0.12509000000E+03 0.  0.
         25    1    3    3    0    0 -0.98370502381E+02 -0.24958733825E+02 -0.13779277650E+03  0.21197653523E+03  0.12509000000E+03 0.  0.
         25    1    4    4    0    0  0.54025241676E+02 -0.71766585432E+01 -0.22445173460E+03  0.26267150670E+03  0.12509000000E+03 0.  0.
<mgrwt>
<rscale>  2 0.47183198E+03</rscale>
<asrwt>0</asrwt>
<pdfrwt beam="1">  1       21 0.99672435E-02 0.47183198E+03</pdfrwt>
<pdfrwt beam="2">  1       21 0.12075965E+00 0.47183198E+03</pdfrwt>
<totfact> 0.38398167E+04</totfact>
</mgrwt>
</event>
<event>
 7    0  0.4750554E-002  0.4566774E+03  0.7546771E-02  0.1025749E+00
         21   -1    0    0  502  501  0.00000000000E+00  0.00000000000E+00  0.16331140306E+03  0.16331140306E+03  0.00000000000E+00 0. -1.
         21   -1    0    0  501  502 -0.00000000000E+00 -0.00000000000E+00 -0.31925849092E+03  0.31925849092E+03  0.00000000000E+00 0. -1.
      99926    2    1    2    0    0 -0.35527136788E-14  0.00000000000E+00 -0.15594708786E+03  0.48256989397E+03  0.45667735696E+03 0.  0.
      99925    2    3    3    0    0 -0.13503724057E+02 -0.26345029816E+02  0.20484512873E+02  0.26427644699E+03  0.26181293705E+03 0.  0.
         25    1    4    4    0    0  0.40145748038E+01 -0.23599364283E+02  0.45948949996E+02  0.13539520269E+03  0.12509000000E+03 0.  0.
         25    1    3    3    0    0  0.13503724057E+02  0.26345029816E+02 -0.17643160073E+03  0.21829344699E+03  0.12509000000E+03 0.  0.
         25    1    4    4    0    0 -0.17518298861E+02 -0.27456655331E+01 -0.25464437124E+02  0.12888124430E+03  0.12509000000E+03 0.  0.
<mgrwt>
<rscale>  2 0.45667736E+03</rscale>
<asrwt>0</asrwt>
<pdfrwt beam="1">  1       21 0.24016383E-01 0.45667736E+03</pdfrwt>
<pdfrwt beam="2">  1       21 0.46949777E-01 0.45667736E+03</pdfrwt>
<totfact> 0.65635237E+04</totfact>
</mgrwt>
</event>
<event>
 7    0  0.4750554E-002  0.4565590E+03  0.7546771E-02  0.1025784E+00
         21   -1    0    0  502  501  0.00000000000E+00  0.00000000000E+00  0.16786081815E+03  0.16786081815E+03  0.00000000000E+00 0.  1.
         21   -1    0    0  501  502 -0.00000000000E+00 -0.00000000000E+00 -0.31044485345E+03  0.31044485345E+03  0.00000000000E+00 0.  1.
      99926    2    1    2    0    0  0.00000000000E+00 -0.17763568394E-14 -0.14258403530E+03  0.47830567160E+03  0.45655898673E+03 0.  0.
      99925    2    3    3    0    0 -0.60009664480E+02 -0.11485871244E+02 -0.19120725874E+03  0.33084445288E+03  0.26299192219E+03 0.  0.
         25    1    4    4    0    0  0.98528013509E+01 -0.82017568260E+01 -0.75669015027E+02  0.14675712741E+03  0.12509000000E+03 0.  0.
         25    1    4    4    0    0 -0.69862465830E+02 -0.32841144182E+01 -0.11553824371E+03  0.18408732547E+03  0.12509000000E+03 0.  0.
         25    1    3    3    0    0  0.60009664480E+02  0.11485871244E+02  0.48623223435E+02  0.14746121872E+03  0.12509000000E+03 0.  0.
<mgrwt>
<rscale>  2 0.45655899E+03</rscale>
<asrwt>0</asrwt>
<pdfrwt beam="1">  1       21 0.24685414E-01 0.45655899E+03</pdfrwt>
<pdfrwt beam="2">  1       21 0.45653655E-01 0.45655899E+03</pdfrwt>
<totfact> 0.66003179E+04</totfact>
</mgrwt>
</event>
<event>
 7    0  0.4750554E-002  0.4442013E+03  0.7546771E-02  0.1029466E+00
         21   -1    0    0  502  501  0.00000000000E+00  0.00000000000E+00  0.49969423731E+03  0.49969423731E+03  0.00000000000E+00 0. -1.
         21   -1    0    0  501  502 -0.00000000000E+00 -0.00000000000E+00 -0.98717768660E+02  0.98717768660E+02  0.00000000000E+00 0. -1.
      99926    2    1    2    0    0  0.00000000000E+00  0.71054273576E-14  0.40097646865E+03  0.59841200597E+03  0.44420130625E+03 0.  0.
      99925    2    3    3    0    0 -0.69306531495E+02 -0.63458948383E+02  0.19905215967E+03  0.34296853259E+03  0.26301182224E+03 0.  0.
         25    1    4    4    0    0 -0.95199300317E+01  0.15121963964E+01  0.10196320243E+03  0.16166916390E+03  0.12509000000E+03 0.  0.
         25    1    3    3    0    0  0.69306531495E+02  0.63458948383E+02  0.20192430898E+03  0.25544347338E+03  0.12509000000E+03 0.  0.
         25    1    4    4    0    0 -0.59786601463E+02 -0.64971144780E+02  0.97088957238E+02  0.18129936869E+03  0.12509000000E+03 0.  0.
<mgrwt>
<rscale>  2 0.44420131E+03</rscale>
<asrwt>0</asrwt>
<pdfrwt beam="1">  1       21 0.73484445E-01 0.44420131E+03</pdfrwt>
<pdfrwt beam="2">  1       21 0.14517319E-01 0.44420131E+03</pdfrwt>
<totfact> 0.64070273E+04</totfact>
</mgrwt>
</event>
<event>
 7    0  0.4750554E-002  0.4627701E+03  0.7546771E-02  0.1023981E+00
         21   -1    0    0  502  501  0.00000000000E+00  0.00000000000E+00  0.40168229092E+03  0.40168229092E+03  0.00000000000E+00 0. -1.
         21   -1    0    0  501  502 -0.00000000000E+00 -0.00000000000E+00 -0.13328705535E+03  0.13328705535E+03  0.00000000000E+00 0. -1.
      99926    2    1    2    0    0  0.71054273576E-14 -0.17763568394E-14  0.26839523557E+03  0.53496934627E+03  0.46277013622E+03 0.  0.
      99925    2    3    3    0    0 -0.44285057681E+02  0.97049920067E+01  0.38954135885E+02  0.26974099272E+03  0.26303502665E+03 0.  0.
         25    1    4    4    0    0  0.83925437730E+01 -0.79997063513E+01 -0.57191037764E+01  0.12575629742E+03  0.12509000000E+03 0.  0.
         25    1    3    3    0    0  0.44285057681E+02 -0.97049920067E+01  0.22944109969E+03  0.26522835355E+03  0.12509000000E+03 0.  0.
         25    1    4    4    0    0 -0.52677601454E+02  0.17704698358E+02  0.44673239662E+02  0.14398469530E+03  0.12509000000E+03 0.  0.
<mgrwt>
<rscale>  2 0.46277014E+03</rscale>
<asrwt>0</asrwt>
<pdfrwt beam="1">  1       21 0.59070925E-01 0.46277014E+03</pdfrwt>
<pdfrwt beam="2">  1       21 0.19601038E-01 0.46277014E+03</pdfrwt>
<totfact> 0.59144145E+04</totfact>
</mgrwt>
</event>
<event>
 7    0  0.4750554E-002  0.4570118E+03  0.7546771E-02  0.1025651E+00
         21   -1    0    0  502  501  0.00000000000E+00  0.00000000000E+00  0.85892533321E+03  0.85892533321E+03  0.00000000000E+00 0.  1.
         21   -1    0    0  501  502 -0.00000000000E+00 -0.00000000000E+00 -0.60791029255E+02  0.60791029255E+02  0.00000000000E+00 0.  1.
      99926    2    1    2    0    0  0.71054273576E-14  0.14210854715E-13  0.79813430396E+03  0.91971636247E+03  0.45701183818E+03 0.  0.
      99925    2    3    3    0    0  0.28284067618E+02  0.85132753145E+02  0.35667995141E+03  0.45219414094E+03  0.26308055653E+03 0.  0.
         25    1    4    4    0    0 -0.12529786179E+02  0.57446379805E+02  0.22453830853E+03  0.26367032861E+03  0.12509000000E+03 0.  0.
         25    1    4    4    0    0  0.40813853796E+02  0.27686373341E+02  0.13214164288E+03  0.18852381233E+03  0.12509000000E+03 0.  0.
         25    1    3    3    0    0 -0.28284067618E+02 -0.85132753145E+02  0.44145435254E+03  0.46752222152E+03  0.12509000000E+03 0.  0.
<mgrwt>
<rscale>  2 0.45701184E+03</rscale>
<asrwt>0</asrwt>
<pdfrwt beam="1">  1       21 0.12631254E+00 0.45701184E+03</pdfrwt>
<pdfrwt beam="2">  1       21 0.89398578E-02 0.45701184E+03</pdfrwt>
<totfact> 0.41731299E+04</totfact>
</mgrwt>
</event>
<event>
 7    0  0.4750554E-002  0.4565041E+03  0.7546771E-02  0.1025800E+00
         21   -1    0    0  502  501  0.00000000000E+00  0.00000000000E+00  0.11442606687E+03  0.11442606687E+03  0.00000000000E+00 0.  1.
         21   -1    0    0  501  502 -0.00000000000E+00 -0.00000000000E+00 -0.45530703346E+03  0.45530703346E+03  0.00000000000E+00 0.  1.
      99926    2    1    2    0    0  0.00000000000E+00  0.00000000000E+00 -0.34088096659E+03  0.56973310034E+03  0.45650407691E+03 0.  0.
      99925    2    3    3    0    0  0.10336644981E+03 -0.44194959128E+02 -0.24193946520E+03  0.37460558778E+03  0.26297685111E+03 0.  0.
         25    1    3    3    0    0 -0.10336644981E+03  0.44194959128E+02 -0.98941501389E+02  0.19512751255E+03  0.12509000000E+03 0.  0.
         25    1    4    4    0    0  0.62855064020E+02 -0.22655653566E+02 -0.73164562855E+02  0.15957631112E+03  0.12509000000E+03 0.  0.
         25    1    4    4    0    0  0.40511385786E+02 -0.21539305562E+02 -0.16877490235E+03  0.21502927667E+03  0.12509000000E+03 0.  0.
<mgrwt>
<rscale>  2 0.45650408E+03</rscale>
<asrwt>0</asrwt>
<pdfrwt beam="1">  1       21 0.16827363E-01 0.45650408E+03</pdfrwt>
<pdfrwt beam="2">  1       21 0.66956917E-01 0.45650408E+03</pdfrwt>
<totfact> 0.59865824E+04</totfact>
</mgrwt>
</event>
<event>
 7    0  0.4750554E-002  0.4387085E+03  0.7546771E-02  0.1031144E+00
         21   -1    0    0  502  501  0.00000000000E+00  0.00000000000E+00  0.74286381153E+02  0.74286381153E+02  0.00000000000E+00 0. -1.
         21   -1    0    0  501  502 -0.00000000000E+00 -0.00000000000E+00 -0.64771348004E+03  0.64771348004E+03  0.00000000000E+00 0. -1.
      99926    2    1    2    0    0  0.00000000000E+00  0.00000000000E+00 -0.57342709889E+03  0.72199986119E+03  0.43870851579E+03 0.  0.
      99925    2    3    3    0    0  0.95551325239E+02  0.15670507421E+02 -0.37905135831E+03  0.47139048949E+03  0.26297041809E+03 0.  0.
         25    1    3    3    0    0 -0.95551325239E+02 -0.15670507421E+02 -0.19437574058E+03  0.25060937170E+03  0.12509000000E+03 0.  0.
         25    1    4    4    0    0  0.12230407887E+02  0.23640644773E+02 -0.20112720416E+03  0.23834454749E+03  0.12509000000E+03 0.  0.
         25    1    4    4    0    0  0.83320917352E+02 -0.79701373518E+01 -0.17792415415E+03  0.23304594201E+03  0.12509000000E+03 0.  0.
<mgrwt>
<rscale>  2 0.43870852E+03</rscale>
<asrwt>0</asrwt>
<pdfrwt beam="1">  1       21 0.10924467E-01 0.43870852E+03</pdfrwt>
<pdfrwt beam="2">  1       21 0.95251989E-01 0.43870852E+03</pdfrwt>
<totfact> 0.58919070E+04</totfact>
</mgrwt>
</event>
<event>
 7    0  0.4750554E-002  0.4529601E+03  0.7546771E-02  0.1026843E+00
         21   -1    0    0  502  501  0.00000000000E+00  0.00000000000E+00  0.26070211705E+03  0.26070211705E+03  0.00000000000E+00 0. -1.
         21   -1    0    0  501  502 -0.00000000000E+00 -0.00000000000E+00 -0.19675024867E+03  0.19675024867E+03  0.00000000000E+00 0. -1.
      99926    2    1    2    0    0  0.00000000000E+00  0.35527136788E-14  0.63951868379E+02  0.45745236572E+03  0.45296007047E+03 0.  0.
      99925    2    3    3    0    0  0.20708716857E+02 -0.78662154513E+01  0.15041774918E+03  0.30378198815E+03  0.26299670865E+03 0.  0.
         25    1    4    4    0    0  0.14336848168E+02  0.33905485442E+02  0.90913857454E+02  0.15895900332E+03  0.12509000000E+03 0.  0.
         25    1    3    3    0    0 -0.20708716857E+02  0.78662154513E+01 -0.86465880803E+02  0.15367037757E+03  0.12509000000E+03 0.  0.
         25    1    4    4    0    0  0.63718686884E+01 -0.41771700894E+02  0.59503891728E+02  0.14482298484E+03  0.12509000000E+03 0.  0.
<mgrwt>
<rscale>  2 0.45296007E+03</rscale>
<asrwt>0</asrwt>
<pdfrwt beam="1">  1       21 0.38338547E-01 0.45296007E+03</pdfrwt>
<pdfrwt beam="2">  1       21 0.28933860E-01 0.45296007E+03</pdfrwt>
<totfact> 0.69490238E+04</totfact>
</mgrwt>
</event>
<event>
 7    0  0.4750554E-002  0.4545777E+03  0.7546771E-02  0.1026366E+00
         21   -1    0    0  502  501  0.00000000000E+00  0.00000000000E+00  0.38200500454E+03  0.38200500454E+03  0.00000000000E+00 0.  1.
         21   -1    0    0  501  502 -0.00000000000E+00 -0.00000000000E+00 -0.13523442464E+03  0.13523442464E+03  0.00000000000E+00 0.  1.
      99926    2    1    2    0    0 -0.71054273576E-14  0.00000000000E+00  0.24677057990E+03  0.51723942918E+03  0.45457772492E+03 0.  0.
      99925    2    3    3    0    0 -0.44826361775E+02  0.54752185694E+02  0.56389990964E+02  0.27870330761E+03  0.26360671093E+03 0.  0.
         25    1    3    3    0    0  0.44826361775E+02 -0.54752185694E+02  0.19038058894E+03  0.23853612157E+03  0.12509000000E+03 0.  0.
         25    1    4    4    0    0 -0.46543585475E+02  0.57590606832E+02  0.11719071903E+02  0.14583493440E+03  0.12509000000E+03 0.  0.
         25    1    4    4    0    0  0.17172237000E+01 -0.28384211383E+01  0.44670919060E+02  0.13286837322E+03  0.12509000000E+03 0.  0.
<mgrwt>
<rscale>  2 0.45457772E+03</rscale>
<asrwt>0</asrwt>
<pdfrwt beam="1">  1       21 0.56177206E-01 0.45457772E+03</pdfrwt>
<pdfrwt beam="2">  1       21 0.19887415E-01 0.45457772E+03</pdfrwt>
<totfact> 0.64290882E+04</totfact>
</mgrwt>
</event>
<event>
 7    0  0.4750554E-002  0.4541019E+03  0.7546771E-02  0.1026506E+00
         21   -1    0    0  502  501  0.00000000000E+00  0.00000000000E+00  0.28763911912E+03  0.28763911912E+03  0.00000000000E+00 0. -1.
         21   -1    0    0  501  502 -0.00000000000E+00 -0.00000000000E+00 -0.17922501053E+03  0.17922501053E+03  0.00000000000E+00 0. -1.
      99926    2    1    2    0    0  0.14210854715E-13 -0.14210854715E-13  0.10841410859E+03  0.46686412965E+03  0.45410185709E+03 0.  0.
      99925    2    3    3    0    0 -0.77843114671E+02  0.57974094917E+02  0.12634263697E+03  0.30752334261E+03  0.26303535533E+03 0.  0.
         25    1    3    3    0    0  0.77843114671E+02 -0.57974094917E+02 -0.17928528384E+02  0.15934078704E+03  0.12509000000E+03 0.  0.
         25    1    4    4    0    0 -0.43933106645E+02 -0.10508359796E+02  0.48599103100E+02  0.14159775566E+03  0.12509000000E+03 0.  0.
         25    1    4    4    0    0 -0.33910008026E+02  0.68482454712E+02  0.77743533873E+02  0.16592558696E+03  0.12509000000E+03 0.  0.
<mgrwt>
<rscale>  2 0.45410186E+03</rscale>
<asrwt>0</asrwt>
<pdfrwt beam="1">  1       21 0.42299870E-01 0.45410186E+03</pdfrwt>
<pdfrwt beam="2">  1       21 0.26356619E-01 0.45410186E+03</pdfrwt>
<totfact> 0.68154080E+04</totfact>
</mgrwt>
</event>
<event>
 7    0  0.4750554E-002  0.4561297E+03  0.7546771E-02  0.1025910E+00
         21   -1    0    0  502  501  0.00000000000E+00  0.00000000000E+00  0.32350245475E+03  0.32350245475E+03  0.00000000000E+00 0. -1.
         21   -1    0    0  501  502 -0.00000000000E+00 -0.00000000000E+00 -0.16078263603E+03  0.16078263603E+03  0.00000000000E+00 0. -1.
      99926    2    1    2    0    0  0.00000000000E+00  0.00000000000E+00  0.16271981871E+03  0.48428509078E+03  0.45612970716E+03 0.  0.
      99925    2    3    3    0    0 -0.11934834448E+02  0.63973378516E+02  0.26486232302E+01  0.27096530934E+03  0.26302119729E+03 0.  0.
         25    1    4    4    0    0  0.13232040972E+02  0.51040819992E+02  0.31844185518E+02  0.13943389999E+03  0.12509000000E+03 0.  0.
         25    1    3    3    0    0  0.11934834448E+02 -0.63973378516E+02  0.16007119548E+03  0.21331978145E+03  0.12509000000E+03 0.  0.
         25    1    4    4    0    0 -0.25166875420E+02  0.12932558524E+02 -0.29195562288E+02  0.13153140935E+03  0.12509000000E+03 0.  0.
<mgrwt>
<rscale>  2 0.45612971E+03</rscale>
<asrwt>0</asrwt>
<pdfrwt beam="1">  1       21 0.47573890E-01 0.45612971E+03</pdfrwt>
<pdfrwt beam="2">  1       21 0.23644505E-01 0.45612971E+03</pdfrwt>
<totfact> 0.65797437E+04</totfact>
</mgrwt>
</event>
<event>
 7    0  0.4750554E-002  0.5459593E+03  0.7546771E-02  0.1002434E+00
         21   -1    0    0  502  501  0.00000000000E+00  0.00000000000E+00  0.13346027968E+03  0.13346027968E+03  0.00000000000E+00 0.  1.
         21   -1    0    0  501  502 -0.00000000000E+00 -0.00000000000E+00 -0.55835261736E+03  0.55835261736E+03  0.00000000000E+00 0.  1.
      99926    2    1    2    0    0  0.00000000000E+00  0.00000000000E+00 -0.42489233767E+03  0.69181289704E+03  0.54595932623E+03 0.  0.
      99925    2    3    3    0    0  0.14254476250E+03 -0.76725690027E+02 -0.36610450957E+03  0.47895294858E+03  0.26297827704E+03 0.  0.
         25    1    3    3    0    0 -0.14254476250E+03  0.76725690027E+02 -0.58787828099E+02  0.21285994846E+03  0.12509000000E+03 0.  0.
         25    1    4    4    0    0  0.40871041201E+02 -0.60728526879E+01 -0.13719705278E+03  0.19020478685E+03  0.12509000000E+03 0.  0.
         25    1    4    4    0    0  0.10167372130E+03 -0.70652837339E+02 -0.22890745679E+03  0.28874816173E+03  0.12509000000E+03 0.  0.
<mgrwt>
<rscale>  2 0.54595933E+03</rscale>
<asrwt>0</asrwt>
<pdfrwt beam="1">  1       21 0.19626511E-01 0.54595933E+03</pdfrwt>
<pdfrwt beam="2">  1       21 0.82110680E-01 0.54595933E+03</pdfrwt>
<totfact> 0.27582204E+04</totfact>
</mgrwt>
</event>
<event>
 7    0  0.4750554E-002  0.4498003E+03  0.7546771E-02  0.1027782E+00
         21   -1    0    0  502  501  0.00000000000E+00  0.00000000000E+00  0.15707380799E+03  0.15707380799E+03  0.00000000000E+00 0. -1.
         21   -1    0    0  501  502 -0.00000000000E+00 -0.00000000000E+00 -0.32201467928E+03  0.32201467928E+03  0.00000000000E+00 0. -1.
      99926    2    1    2    0    0  0.35527136788E-14  0.00000000000E+00 -0.16494087129E+03  0.47908848727E+03  0.44980027525E+03 0.  0.
      99925    2    3    3    0    0 -0.25975151394E+02 -0.44569677832E+02 -0.20562138379E+03  0.33779596493E+03  0.26299200707E+03 0.  0.
         25    1    4    4    0    0 -0.37937261964E+02 -0.13856432162E+01 -0.71499784250E+02  0.14899960772E+03  0.12509000000E+03 0.  0.
         25    1    3    3    0    0  0.25975151394E+02  0.44569677832E+02  0.40680512495E+02  0.14129252234E+03  0.12509000000E+03 0.  0.
         25    1    4    4    0    0  0.11962110570E+02 -0.43184034616E+02 -0.13412159954E+03  0.18879635722E+03  0.12509000000E+03 0.  0.
<mgrwt>
<rscale>  2 0.44980028E+03</rscale>
<asrwt>0</asrwt>
<pdfrwt beam="1">  1       21 0.23099090E-01 0.44980028E+03</pdfrwt>
<pdfrwt beam="2">  1       21 0.47355099E-01 0.44980028E+03</pdfrwt>
<totfact> 0.69594977E+04</totfact>
</mgrwt>
</event>
<event>
 7    0  0.4750554E-002  0.4566098E+03  0.7546771E-02  0.1025769E+00
         21   -1    0    0  502  501  0.00000000000E+00  0.00000000000E+00  0.21201102224E+03  0.21201102224E+03  0.00000000000E+00 0. -1.
         21   -1    0    0  501  502 -0.00000000000E+00 -0.00000000000E+00 -0.24585106512E+03  0.24585106512E+03  0.00000000000E+00 0. -1.
      99926    2    1    2    0    0  0.71054273576E-14  0.00000000000E+00 -0.33840042882E+02  0.45786208736E+03  0.45660983623E+03 0.  0.
      99925    2    3    3    0    0  0.63512833939E+02  0.27891143342E+02  0.70135211899E+02  0.28102838679E+03  0.26314674667E+03 0.  0.
         25    1    4    4    0    0  0.62525620277E+01  0.44394975648E+02  0.24301814390E+02  0.13508550876E+03  0.12509000000E+03 0.  0.
         25    1    4    4    0    0  0.57260271911E+02 -0.16503832307E+02  0.45833397509E+02  0.14594287803E+03  0.12509000000E+03 0.  0.
         25    1    3    3    0    0 -0.63512833939E+02 -0.27891143342E+02 -0.10397525478E+03  0.17683370057E+03  0.12509000000E+03 0.  0.
<mgrwt>
<rscale>  2 0.45660984E+03</rscale>
<asrwt>0</asrwt>
<pdfrwt beam="1">  1       21 0.31178092E-01 0.45660984E+03</pdfrwt>
<pdfrwt beam="2">  1       21 0.36154568E-01 0.45660984E+03</pdfrwt>
<totfact> 0.67465924E+04</totfact>
</mgrwt>
</event>
<event>
 7    0  0.4750554E-002  0.4529000E+03  0.7546771E-02  0.1026861E+00
         21   -1    0    0  502  501  0.00000000000E+00  0.00000000000E+00  0.48777650769E+03  0.48777650769E+03  0.00000000000E+00 0. -1.
         21   -1    0    0  501  502 -0.00000000000E+00 -0.00000000000E+00 -0.10512929276E+03  0.10512929276E+03  0.00000000000E+00 0. -1.
      99926    2    1    2    0    0  0.14210854715E-13 -0.35527136788E-14  0.38264721493E+03  0.59290580045E+03  0.45289998578E+03 0.  0.
      99925    2    3    3    0    0  0.77392187769E+02  0.26741324404E+02  0.34071941585E+03  0.43763153473E+03  0.26215833135E+03 0.  0.
         25    1    3    3    0    0 -0.77392187769E+02 -0.26741324404E+02  0.41927799075E+02  0.15527426572E+03  0.12509000000E+03 0.  0.
         25    1    4    4    0    0  0.32204720522E+02 -0.23112911375E+02  0.18564813736E+03  0.22734135062E+03  0.12509000000E+03 0.  0.
         25    1    4    4    0    0  0.45187467248E+02  0.49854235779E+02  0.15507127850E+03  0.21029018412E+03  0.12509000000E+03 0.  0.
<mgrwt>
<rscale>  2 0.45289999E+03</rscale>
<asrwt>0</asrwt>
<pdfrwt beam="1">  1       21 0.71731838E-01 0.45289999E+03</pdfrwt>
<pdfrwt beam="2">  1       21 0.15460190E-01 0.45289999E+03</pdfrwt>
<totfact> 0.60108436E+04</totfact>
</mgrwt>
</event>
<event>
 7    0  0.4750554E-002  0.4546621E+03  0.7546771E-02  0.1026341E+00
         21   -1    0    0  502  501  0.00000000000E+00  0.00000000000E+00  0.20342069906E+03  0.20342069906E+03  0.00000000000E+00 0. -1.
         21   -1    0    0  501  502 -0.00000000000E+00 -0.00000000000E+00 -0.25405187102E+03  0.25405187102E+03  0.00000000000E+00 0. -1.
      99926    2    1    2    0    0  0.00000000000E+00  0.00000000000E+00 -0.50631171961E+02  0.45747257008E+03  0.45466211278E+03 0.  0.
      99925    2    3    3    0    0  0.37191819844E+02  0.83199967351E+02  0.34687616982E+02  0.28074603026E+03  0.26326723439E+03 0.  0.
         25    1    4    4    0    0  0.36592720069E+02  0.95953461560E+01  0.36172297030E+02  0.13559882375E+03  0.12509000000E+03 0.  0.
         25    1    3    3    0    0 -0.37191819844E+02 -0.83199967351E+02 -0.85318788943E+02  0.17672653982E+03  0.12509000000E+03 0.  0.
         25    1    4    4    0    0  0.59909977503E+00  0.73604621195E+02 -0.14846800478E+01  0.14514720651E+03  0.12509000000E+03 0.  0.
<mgrwt>
<rscale>  2 0.45466211E+03</rscale>
<asrwt>0</asrwt>
<pdfrwt beam="1">  1       21 0.29914809E-01 0.45466211E+03</pdfrwt>
<pdfrwt beam="2">  1       21 0.37360569E-01 0.45466211E+03</pdfrwt>
<totfact> 0.68549583E+04</totfact>
</mgrwt>
</event>
<event>
 7    0  0.4750554E-002  0.4599322E+03  0.7546771E-02  0.1024801E+00
         21   -1    0    0  502  501  0.00000000000E+00  0.00000000000E+00  0.11103169561E+03  0.11103169561E+03  0.00000000000E+00 0. -1.
         21   -1    0    0  501  502 -0.00000000000E+00 -0.00000000000E+00 -0.47630001855E+03  0.47630001855E+03  0.00000000000E+00 0. -1.
      99926    2    1    2    0    0  0.00000000000E+00  0.00000000000E+00 -0.36526832294E+03  0.58733171416E+03  0.45993216316E+03 0.  0.
      99925    2    3    3    0    0 -0.23125329404E+02 -0.11487494086E+03 -0.24117459682E+03  0.37572407285E+03  0.26319642830E+03 0.  0.
         25    1    4    4    0    0 -0.24597738305E+01 -0.34153645652E+02 -0.68058130467E+02  0.14646480540E+03  0.12509000000E+03 0.  0.
         25    1    4    4    0    0 -0.20665555574E+02 -0.80721295212E+02 -0.17311646636E+03  0.22925926745E+03  0.12509000000E+03 0.  0.
         25    1    3    3    0    0  0.23125329404E+02  0.11487494086E+03 -0.12409372611E+03  0.21160764131E+03  0.12509000000E+03 0.  0.
<mgrwt>
<rscale>  2 0.45993216E+03</rscale>
<asrwt>0</asrwt>
<pdfrwt beam="1">  1       21 0.16328190E-01 0.45993216E+03</pdfrwt>
<pdfrwt beam="2">  1       21 0.70044121E-01 0.45993216E+03</pdfrwt>
<totfact> 0.57202028E+04</totfact>
</mgrwt>
</event>
<event>
 7    0  0.4750554E-002  0.4497298E+03  0.7546771E-02  0.1027803E+00
         21   -1    0    0  502  501  0.00000000000E+00  0.00000000000E+00  0.62058510745E+02  0.62058510745E+02  0.00000000000E+00 0.  1.
         21   -1    0    0  501  502 -0.00000000000E+00 -0.00000000000E+00 -0.81478317517E+03  0.81478317517E+03  0.00000000000E+00 0.  1.
      99926    2    1    2    0    0 -0.26645352591E-14  0.00000000000E+00 -0.75272466443E+03  0.87684168592E+03  0.44972983193E+03 0.  0.
      99925    2    3    3    0    0  0.77176853314E+01  0.10745976914E+03 -0.49467559477E+03  0.57050201317E+03  0.26298562378E+03 0.  0.
         25    1    3    3    0    0 -0.77176853314E+01 -0.10745976914E+03 -0.25804906965E+03  0.30633967275E+03  0.12509000000E+03 0.  0.
         25    1    4    4    0    0  0.41447249357E+02  0.59508440842E+02 -0.28178864982E+03  0.31671987667E+03  0.12509000000E+03 0.  0.
         25    1    4    4    0    0 -0.33729564025E+02  0.47951328296E+02 -0.21288694495E+03  0.25378213650E+03  0.12509000000E+03 0.  0.
<mgrwt>
<rscale>  2 0.44972983E+03</rscale>
<asrwt>0</asrwt>
<pdfrwt beam="1">  1       21 0.91262523E-02 0.44972983E+03</pdfrwt>
<pdfrwt beam="2">  1       21 0.11982105E+00 0.44972983E+03</pdfrwt>
<totfact> 0.46124800E+04</totfact>
</mgrwt>
</event>
<event>
 7    0  0.4750554E-002  0.4492221E+03  0.7546771E-02  0.1027954E+00
         21   -1    0    0  502  501  0.00000000000E+00  0.00000000000E+00  0.10536058989E+03  0.10536058989E+03  0.00000000000E+00 0. -1.
         21   -1    0    0  501  502 -0.00000000000E+00 -0.00000000000E+00 -0.47883294933E+03  0.47883294933E+03  0.00000000000E+00 0. -1.
      99926    2    1    2    0    0  0.00000000000E+00 -0.22204460493E-14 -0.37347235944E+03  0.58419353922E+03  0.44922209207E+03 0.  0.
      99925    2    3    3    0    0 -0.10717762054E+03  0.29810824983E+01 -0.22396293084E+03  0.36171543572E+03  0.26302610678E+03 0.  0.
         25    1    4    4    0    0 -0.32582146430E+02 -0.33275967685E+02 -0.11586227963E+03  0.17674971636E+03  0.12509000000E+03 0.  0.
         25    1    4    4    0    0 -0.74595474113E+02  0.36257050183E+02 -0.10810065120E+03  0.18496571936E+03  0.12509000000E+03 0.  0.
         25    1    3    3    0    0  0.10717762054E+03 -0.29810824983E+01 -0.14950942860E+03  0.22247810350E+03  0.12509000000E+03 0.  0.
<mgrwt>
<rscale>  2 0.44922209E+03</rscale>
<asrwt>0</asrwt>
<pdfrwt beam="1">  1       21 0.15494204E-01 0.44922209E+03</pdfrwt>
<pdfrwt beam="2">  1       21 0.70416610E-01 0.44922209E+03</pdfrwt>
<totfact> 0.62466364E+04</totfact>
</mgrwt>
</event>
<event>
 7    0  0.4750554E-002  0.4562706E+03  0.7546771E-02  0.1025868E+00
         21   -1    0    0  502  501  0.00000000000E+00  0.00000000000E+00  0.60390372146E+02  0.60390372146E+02  0.00000000000E+00 0.  1.
         21   -1    0    0  501  502 -0.00000000000E+00 -0.00000000000E+00 -0.86182129774E+03  0.86182129774E+03  0.00000000000E+00 0.  1.
      99926    2    1    2    0    0  0.00000000000E+00 -0.71054273576E-14 -0.80143092559E+03  0.92221166989E+03  0.45627057277E+03 0.  0.
      99925    2    3    3    0    0  0.58915249482E+02 -0.61871646452E+02 -0.35011982532E+03  0.44615671026E+03  0.26300724471E+03 0.  0.
         25    1    4    4    0    0  0.67718074001E+02 -0.23736204926E+02 -0.16213381837E+03  0.21698854377E+03  0.12509000000E+03 0.  0.
         25    1    4    4    0    0 -0.88028245193E+01 -0.38135441525E+02 -0.18798600695E+03  0.22916816649E+03  0.12509000000E+03 0.  0.
         25    1    3    3    0    0 -0.58915249482E+02  0.61871646452E+02 -0.45131110027E+03  0.47605495963E+03  0.12509000000E+03 0.  0.
<mgrwt>
<rscale>  2 0.45627057E+03</rscale>
<asrwt>0</asrwt>
<pdfrwt beam="1">  1       21 0.88809382E-02 0.45627057E+03</pdfrwt>
<pdfrwt beam="2">  1       21 0.12673841E+00 0.45627057E+03</pdfrwt>
<totfact> 0.41869399E+04</totfact>
</mgrwt>
</event>
<event>
 7    0  0.4750554E-002  0.4730421E+03  0.7546771E-02  0.1021065E+00
         21   -1    0    0  502  501  0.00000000000E+00  0.00000000000E+00  0.92416456187E+02  0.92416456187E+02  0.00000000000E+00 0.  1.
         21   -1    0    0  501  502 -0.00000000000E+00 -0.00000000000E+00 -0.60532730754E+03  0.60532730754E+03  0.00000000000E+00 0.  1.
      99926    2    1    2    0    0  0.00000000000E+00  0.14210854715E-13 -0.51291085135E+03  0.69774376372E+03  0.47304208944E+03 0.  0.
      99925    2    3    3    0    0 -0.86267575256E+02 -0.83735644818E+02 -0.24746891774E+03  0.38063072241E+03  0.26303066141E+03 0.  0.
         25    1    4    4    0    0 -0.66351681763E+02 -0.54959695724E+02 -0.17561575670E+03  0.23218853531E+03  0.12509000000E+03 0.  0.
         25    1    4    4    0    0 -0.19915893493E+02 -0.28775949094E+02 -0.71853161040E+02  0.14844218710E+03  0.12509000000E+03 0.  0.
         25    1    3    3    0    0  0.86267575256E+02  0.83735644818E+02 -0.26544193361E+03  0.31711304131E+03  0.12509000000E+03 0.  0.
<mgrwt>
<rscale>  2 0.47304209E+03</rscale>
<asrwt>0</asrwt>
<pdfrwt beam="1">  1       21 0.13590656E-01 0.47304209E+03</pdfrwt>
<pdfrwt beam="2">  1       21 0.89018720E-01 0.47304209E+03</pdfrwt>
<totfact> 0.46115985E+04</totfact>
</mgrwt>
</event>
<event>
 7    0  0.4750554E-002  0.4567841E+03  0.7546771E-02  0.1025718E+00
         21   -1    0    0  502  501  0.00000000000E+00  0.00000000000E+00  0.53286768416E+02  0.53286768416E+02  0.00000000000E+00 0.  1.
         21   -1    0    0  501  502 -0.00000000000E+00 -0.00000000000E+00 -0.97890950080E+03  0.97890950080E+03  0.00000000000E+00 0.  1.
      99926    2    1    2    0    0 -0.14210854715E-13  0.71054273576E-14 -0.92562273238E+03  0.10321962692E+04  0.45678407971E+03 0.  0.
      99925    2    3    3    0    0 -0.10372453738E+03  0.36944622610E+02 -0.65611165972E+03  0.71532498433E+03  0.26283766548E+03 0.  0.
         25    1    4    4    0    0 -0.20695641107E+02 -0.11240878256E+02 -0.29228182416E+03  0.31879592177E+03  0.12509000000E+03 0.  0.
         25    1    3    3    0    0  0.10372453738E+03 -0.36944622610E+02 -0.26951107266E+03  0.31687128488E+03  0.12509000000E+03 0.  0.
         25    1    4    4    0    0 -0.83028896276E+02  0.48185500866E+02 -0.36382983556E+03  0.39652906256E+03  0.12509000000E+03 0.  0.
<mgrwt>
<rscale>  2 0.45678408E+03</rscale>
<asrwt>0</asrwt>
<pdfrwt beam="1">  1       21 0.78362901E-02 0.45678408E+03</pdfrwt>
<pdfrwt beam="2">  1       21 0.14395727E+00 0.45678408E+03</pdfrwt>
<totfact> 0.37413714E+04</totfact>
</mgrwt>
</event>
<event>
 7    0  0.4750554E-002  0.4530536E+03  0.7546771E-02  0.1026815E+00
         21   -1    0    0  502  501  0.00000000000E+00  0.00000000000E+00  0.12159261623E+03  0.12159261623E+03  0.00000000000E+00 0.  1.
         21   -1    0    0  501  502 -0.00000000000E+00 -0.00000000000E+00 -0.42201897972E+03  0.42201897972E+03  0.00000000000E+00 0.  1.
      99926    2    1    2    0    0  0.00000000000E+00  0.14210854715E-13 -0.30042636349E+03  0.54361159595E+03  0.45305360321E+03 0.  0.
      99925    2    3    3    0    0 -0.69062045298E+02 -0.84038332423E+02 -0.16107606943E+03  0.32705208919E+03  0.26303148382E+03 0.  0.
         25    1    4    4    0    0 -0.43746829913E+02 -0.43598250193E+02 -0.36557393693E+02  0.14421700205E+03  0.12509000000E+03 0.  0.
         25    1    3    3    0    0  0.69062045298E+02  0.84038332423E+02 -0.13935029406E+03  0.21655950677E+03  0.12509000000E+03 0.  0.
         25    1    4    4    0    0 -0.25315215385E+02 -0.40440082230E+02 -0.12451867573E+03  0.18283508713E+03  0.12509000000E+03 0.  0.
<mgrwt>
<rscale>  2 0.45305360E+03</rscale>
<asrwt>0</asrwt>
<pdfrwt beam="1">  1       21 0.17881267E-01 0.45305360E+03</pdfrwt>
<pdfrwt beam="2">  1       21 0.62061614E-01 0.45305360E+03</pdfrwt>
<totfact> 0.63259362E+04</totfact>
</mgrwt>
</event>
<event>
 7    0  0.4750554E-002  0.4536589E+03  0.7546771E-02  0.1026637E+00
         21   -1    0    0  502  501  0.00000000000E+00  0.00000000000E+00  0.56797202626E+02  0.56797202626E+02  0.00000000000E+00 0.  1.
         21   -1    0    0  501  502 -0.00000000000E+00 -0.00000000000E+00 -0.90588275082E+03  0.90588275082E+03  0.00000000000E+00 0.  1.
      99926    2    1    2    0    0  0.00000000000E+00  0.00000000000E+00 -0.84908554819E+03  0.96267995344E+03  0.45365892983E+03 0.  0.
      99925    2    3    3    0    0  0.34849636266E+02 -0.60403361921E+02 -0.34831000742E+03  0.44182804204E+03  0.26273388473E+03 0.  0.
         25    1    3    3    0    0 -0.34849636266E+02  0.60403361921E+02 -0.50077554077E+03  0.52085191140E+03  0.12509000000E+03 0.  0.
         25    1    4    4    0    0  0.34803823163E+02 -0.66850963589E+02 -0.20125022418E+03  0.24865542075E+03  0.12509000000E+03 0.  0.
         25    1    4    4    0    0  0.45813103205E-01  0.64476016687E+01 -0.14705978325E+03  0.19317262129E+03  0.12509000000E+03 0.  0.
<mgrwt>
<rscale>  2 0.45365893E+03</rscale>
<asrwt>0</asrwt>
<pdfrwt beam="1">  1       21 0.83525298E-02 0.45365893E+03</pdfrwt>
<pdfrwt beam="2">  1       21 0.13321805E+00 0.45365893E+03</pdfrwt>
<totfact> 0.41060454E+04</totfact>
</mgrwt>
</event>
<event>
 7    0  0.4750554E-002  0.4573433E+03  0.7546771E-02  0.1025555E+00
         21   -1    0    0  502  501  0.00000000000E+00  0.00000000000E+00  0.28591027065E+04  0.28591027065E+04  0.00000000000E+00 0.  1.
         21   -1    0    0  501  502 -0.00000000000E+00 -0.00000000000E+00 -0.18289205206E+02  0.18289205206E+02  0.00000000000E+00 0.  1.
      99926    2    1    2    0    0  0.14210854715E-13  0.00000000000E+00  0.28408135013E+04  0.28773919117E+04  0.45734326759E+03 0.  0.
      99925    2    3    3    0    0 -0.95395696524E+02 -0.54156788652E+02  0.15622657647E+04  0.15880645213E+04  0.26313743128E+03 0.  0.
         25    1    3    3    0    0  0.95395696524E+02  0.54156788652E+02  0.12785477366E+04  0.12893273903E+04  0.12509000000E+03 0.  0.
         25    1    4    4    0    0 -0.84360397997E+02 -0.39838384117E+02  0.96904188968E+03  0.98152609015E+03  0.12509000000E+03 0.  0.
         25    1    4    4    0    0 -0.11035298527E+02 -0.14318404536E+02  0.59322387502E+03  0.60653843119E+03  0.12509000000E+03 0.  0.
<mgrwt>
<rscale>  2 0.45734327E+03</rscale>
<asrwt>0</asrwt>
<pdfrwt beam="1">  1       21 0.42045597E+00 0.45734327E+03</pdfrwt>
<pdfrwt beam="2">  1       21 0.26895910E-02 0.45734327E+03</pdfrwt>
<totfact> 0.39179008E+03</totfact>
</mgrwt>
</event>
<event>
 7    0  0.4750554E-002  0.4651700E+03  0.7546771E-02  0.1023292E+00
         21   -1    0    0  502  501  0.00000000000E+00  0.00000000000E+00  0.97817800467E+03  0.97817800467E+03  0.00000000000E+00 0. -1.
         21   -1    0    0  501  502 -0.00000000000E+00 -0.00000000000E+00 -0.55302586459E+02  0.55302586459E+02  0.00000000000E+00 0. -1.
      99926    2    1    2    0    0  0.26645352591E-14 -0.35527136788E-14  0.92287541822E+03  0.10334805911E+04  0.46516996324E+03 0.  0.
      99925    2    3    3    0    0 -0.68253114325E+01 -0.21583343834E+02  0.84296376397E+03  0.88332798146E+03  0.26299807956E+03 0.  0.
         25    1    4    4    0    0  0.32673510937E+02 -0.17230188023E+02  0.36212810627E+03  0.38490091082E+03  0.12509000000E+03 0.  0.
         25    1    4    4    0    0 -0.39498822369E+02 -0.43531558114E+01  0.48083565770E+03  0.49842707065E+03  0.12509000000E+03 0.  0.
         25    1    3    3    0    0  0.68253114325E+01  0.21583343834E+02  0.79911654242E+02  0.15015260967E+03  0.12509000000E+03 0.  0.
<mgrwt>
<rscale>  2 0.46516996E+03</rscale>
<asrwt>0</asrwt>
<pdfrwt beam="1">  1       21 0.14384970E+00 0.46516996E+03</pdfrwt>
<pdfrwt beam="2">  1       21 0.81327339E-02 0.46516996E+03</pdfrwt>
<totfact> 0.35024930E+04</totfact>
</mgrwt>
</event>
<event>
 7    0  0.4750554E-002  0.4549733E+03  0.7546771E-02  0.1026249E+00
         21   -1    0    0  502  501  0.00000000000E+00  0.00000000000E+00  0.22840893850E+03  0.22840893850E+03  0.00000000000E+00 0. -1.
         21   -1    0    0  501  502 -0.00000000000E+00 -0.00000000000E+00 -0.22656803899E+03  0.22656803899E+03  0.00000000000E+00 0. -1.
      99926    2    1    2    0    0 -0.71054273576E-14  0.00000000000E+00  0.18408995159E+01  0.45497697749E+03  0.45497325321E+03 0.  0.
      99925    2    3    3    0    0 -0.60964753376E+02  0.95715720966E+02  0.93036481630E+01  0.28591662995E+03  0.26226620258E+03 0.  0.
         25    1    4    4    0    0 -0.94447055844E+01  0.12069456781E+02 -0.57093572081E+01  0.12615458418E+03  0.12509000000E+03 0.  0.
         25    1    3    3    0    0  0.60964753376E+02 -0.95715720966E+02 -0.74627486471E+01  0.16906034754E+03  0.12509000000E+03 0.  0.
         25    1    4    4    0    0 -0.51520047792E+02  0.83646264184E+02  0.15013005371E+02  0.15976204576E+03  0.12509000000E+03 0.  0.
<mgrwt>
<rscale>  2 0.45497325E+03</rscale>
<asrwt>0</asrwt>
<pdfrwt beam="1">  1       21 0.33589550E-01 0.45497325E+03</pdfrwt>
<pdfrwt beam="2">  1       21 0.33318829E-01 0.45497325E+03</pdfrwt>
<totfact> 0.68562107E+04</totfact>
</mgrwt>
</event>
<event>
 7    0  0.4750554E-002  0.4333136E+03  0.7546771E-02  0.1032818E+00
         21   -1    0    0  502  501  0.00000000000E+00  0.00000000000E+00  0.82918958187E+03  0.82918958187E+03  0.00000000000E+00 0.  1.
         21   -1    0    0  501  502 -0.00000000000E+00 -0.00000000000E+00 -0.56609696500E+02  0.56609696500E+02  0.00000000000E+00 0.  1.
      99926    2    1    2    0    0  0.00000000000E+00  0.00000000000E+00  0.77257988537E+03  0.88579927837E+03  0.43331360731E+03 0.  0.
      99925    2    3    3    0    0 -0.38331310967E+02  0.76559125560E+02  0.43162273587E+03  0.51266408169E+03  0.26305072786E+03 0.  0.
         25    1    3    3    0    0  0.38331310967E+02 -0.76559125560E+02  0.34095714950E+03  0.37313519668E+03  0.12509000000E+03 0.  0.
         25    1    4    4    0    0  0.57411000696E+01  0.42305551201E+02  0.27136154150E+03  0.30183988172E+03  0.12509000000E+03 0.  0.
         25    1    4    4    0    0 -0.44072411036E+02  0.34253574360E+02  0.16026119437E+03  0.21082419997E+03  0.12509000000E+03 0.  0.
<mgrwt>
<rscale>  2 0.43331361E+03</rscale>
<asrwt>0</asrwt>
<pdfrwt beam="1">  1       21 0.12193964E+00 0.43331361E+03</pdfrwt>
<pdfrwt beam="2">  1       21 0.83249559E-02 0.43331361E+03</pdfrwt>
<totfact> 0.52160490E+04</totfact>
</mgrwt>
</event>
<event>
 7    0  0.4750554E-002  0.4532847E+03  0.7546771E-02  0.1026747E+00
         21   -1    0    0  502  501  0.00000000000E+00  0.00000000000E+00  0.23022904882E+03  0.23022904882E+03  0.00000000000E+00 0.  1.
         21   -1    0    0  501  502 -0.00000000000E+00 -0.00000000000E+00 -0.22311155132E+03  0.22311155132E+03  0.00000000000E+00 0.  1.
      99926    2    1    2    0    0  0.00000000000E+00  0.00000000000E+00  0.71174974985E+01  0.45334060014E+03  0.45328472395E+03 0.  0.
      99925    2    3    3    0    0  0.52408839397E+02  0.95707544389E+02  0.27316323128E+02  0.28612181783E+03  0.26308343283E+03 0.  0.
         25    1    3    3    0    0 -0.52408839397E+02 -0.95707544389E+02 -0.20198825629E+02  0.16721878231E+03  0.12509000000E+03 0.  0.
         25    1    4    4    0    0  0.25808713014E+02  0.32229062832E+02 -0.24970724040E+02  0.13407403670E+03  0.12509000000E+03 0.  0.
         25    1    4    4    0    0  0.26600126384E+02  0.63478481556E+02  0.52287047168E+02  0.15204778113E+03  0.12509000000E+03 0.  0.
<mgrwt>
<rscale>  2 0.45328472E+03</rscale>
<asrwt>0</asrwt>
<pdfrwt beam="1">  1       21 0.33857213E-01 0.45328472E+03</pdfrwt>
<pdfrwt beam="2">  1       21 0.32810522E-01 0.45328472E+03</pdfrwt>
<totfact> 0.69615427E+04</totfact>
</mgrwt>
</event>
<event>
 7    0  0.4750554E-002  0.4510494E+03  0.7546771E-02  0.1027410E+00
         21   -1    0    0  502  501  0.00000000000E+00  0.00000000000E+00  0.42593213837E+03  0.42593213837E+03  0.00000000000E+00 0. -1.
         21   -1    0    0  501  502 -0.00000000000E+00 -0.00000000000E+00 -0.11941195449E+03  0.11941195449E+03  0.00000000000E+00 0. -1.
      99926    2    1    2    0    0  0.00000000000E+00  0.17763568394E-14  0.30652018388E+03  0.54534409286E+03  0.45104939474E+03 0.  0.
      99925    2    3    3    0    0  0.75859185369E+02 -0.14784375396E+02  0.28724807899E+03  0.39704670284E+03  0.26298561099E+03 0.  0.
         25    1    4    4    0    0  0.51250085069E+02 -0.22723987090E+02  0.19958114537E+03  0.24212206115E+03  0.12509000000E+03 0.  0.
         25    1    3    3    0    0 -0.75859185369E+02  0.14784375396E+02  0.19272104886E+02  0.14829739002E+03  0.12509000000E+03 0.  0.
         25    1    4    4    0    0  0.24609100301E+02  0.79396116943E+01  0.87666933625E+02  0.15492464169E+03  0.12509000000E+03 0.  0.
<mgrwt>
<rscale>  2 0.45104939E+03</rscale>
<asrwt>0</asrwt>
<pdfrwt beam="1">  1       21 0.62637079E-01 0.45104939E+03</pdfrwt>
<pdfrwt beam="2">  1       21 0.17560582E-01 0.45104939E+03</pdfrwt>
<totfact> 0.64157410E+04</totfact>
</mgrwt>
</event>
<event>
 7    0  0.4750554E-002  0.4540522E+03  0.7546771E-02  0.1026520E+00
         21   -1    0    0  502  501  0.00000000000E+00  0.00000000000E+00  0.75874043623E+02  0.75874043623E+02  0.00000000000E+00 0.  1.
         21   -1    0    0  501  502 -0.00000000000E+00 -0.00000000000E+00 -0.67929479179E+03  0.67929479179E+03  0.00000000000E+00 0.  1.
      99926    2    1    2    0    0  0.00000000000E+00  0.00000000000E+00 -0.60342074817E+03  0.75516883542E+03  0.45405216734E+03 0.  0.
      99925    2    3    3    0    0  0.80147140373E+02  0.69351667484E+02 -0.31809586368E+03  0.42609283249E+03  0.26293897679E+03 0.  0.
         25    1    4    4    0    0  0.26494500586E+02 -0.51993683407E+01 -0.15410820589E+03  0.20031435100E+03  0.12509000000E+03 0.  0.
         25    1    4    4    0    0  0.53652639786E+02  0.74551035824E+02 -0.16398765779E+03  0.22577848150E+03  0.12509000000E+03 0.  0.
         25    1    3    3    0    0 -0.80147140373E+02 -0.69351667484E+02 -0.28532488449E+03  0.32907600292E+03  0.12509000000E+03 0.  0.
<mgrwt>
<rscale>  2 0.45405217E+03</rscale>
<asrwt>0</asrwt>
<pdfrwt beam="1">  1       21 0.11157948E-01 0.45405217E+03</pdfrwt>
<pdfrwt beam="2">  1       21 0.99896288E-01 0.45405217E+03</pdfrwt>
<totfact> 0.50382158E+04</totfact>
</mgrwt>
</event>
<event>
 7    0  0.4750554E-002  0.4557653E+03  0.7546771E-02  0.1026017E+00
         21   -1    0    0  502  501  0.00000000000E+00  0.00000000000E+00  0.96159592383E+02  0.96159592383E+02  0.00000000000E+00 0. -1.
         21   -1    0    0  501  502 -0.00000000000E+00 -0.00000000000E+00 -0.54004489219E+03  0.54004489219E+03  0.00000000000E+00 0. -1.
      99926    2    1    2    0    0 -0.71054273576E-14  0.14210854715E-13 -0.44388529980E+03  0.63620448457E+03  0.45576527600E+03 0.  0.
      99925    2    3    3    0    0 -0.42678394940E+02  0.94002717306E+02 -0.34623790558E+03  0.44688866919E+03  0.26300349642E+03 0.  0.
         25    1    4    4    0    0 -0.97547868518E+01  0.81021625509E+02 -0.15147242562E+03  0.21272297358E+03  0.12509000000E+03 0.  0.
         25    1    4    4    0    0 -0.32923608089E+02  0.12981091797E+02 -0.19476547996E+03  0.23416569560E+03  0.12509000000E+03 0.  0.
         25    1    3    3    0    0  0.42678394940E+02 -0.94002717306E+02 -0.97647394226E+02  0.18931581538E+03  0.12509000000E+03 0.  0.
<mgrwt>
<rscale>  2 0.45576528E+03</rscale>
<asrwt>0</asrwt>
<pdfrwt beam="1">  1       21 0.14141117E-01 0.45576528E+03</pdfrwt>
<pdfrwt beam="2">  1       21 0.79418366E-01 0.45576528E+03</pdfrwt>
<totfact> 0.56163335E+04</totfact>
</mgrwt>
</event>
<event>
 7    0  0.4750554E-002  0.4430846E+03  0.7546771E-02  0.1029805E+00
         21   -1    0    0  502  501  0.00000000000E+00  0.00000000000E+00  0.40067030939E+03  0.40067030939E+03  0.00000000000E+00 0.  1.
         21   -1    0    0  501  502 -0.00000000000E+00 -0.00000000000E+00 -0.12249717522E+03  0.12249717522E+03  0.00000000000E+00 0.  1.
      99926    2    1    2    0    0  0.00000000000E+00 -0.14210854715E-13  0.27817313417E+03  0.52316748461E+03  0.44308455669E+03 0.  0.
      99925    2    3    3    0    0 -0.20353549969E+02  0.79711709359E+02  0.10672705192E+03  0.29555050189E+03  0.26304222465E+03 0.  0.
         25    1    4    4    0    0 -0.10164512167E+02  0.73557741570E+02  0.30663909998E+02  0.14866688309E+03  0.12509000000E+03 0.  0.
         25    1    3    3    0    0  0.20353549969E+02 -0.79711709359E+02  0.17144608225E+03  0.22761698273E+03  0.12509000000E+03 0.  0.
         25    1    4    4    0    0 -0.10189037802E+02  0.61539677890E+01  0.76063141920E+02  0.14688361879E+03  0.12509000000E+03 0.  0.
<mgrwt>
<rscale>  2 0.44308456E+03</rscale>
<asrwt>0</asrwt>
<pdfrwt beam="1">  1       21 0.58922104E-01 0.44308456E+03</pdfrwt>
<pdfrwt beam="2">  1       21 0.18014291E-01 0.44308456E+03</pdfrwt>
<totfact> 0.70053617E+04</totfact>
</mgrwt>
</event>
<event>
 7    0  0.4750554E-002  0.4699153E+03  0.7546771E-02  0.1021944E+00
         21   -1    0    0  502  501  0.00000000000E+00  0.00000000000E+00  0.14559360396E+03  0.14559360396E+03  0.00000000000E+00 0.  1.
         21   -1    0    0  501  502 -0.00000000000E+00 -0.00000000000E+00 -0.37917260364E+03  0.37917260364E+03  0.00000000000E+00 0.  1.
      99926    2    1    2    0    0  0.00000000000E+00  0.00000000000E+00 -0.23357899968E+03  0.52476620760E+03  0.46991533657E+03 0.  0.
      99925    2    3    3    0    0  0.19102674687E+02 -0.74918218918E+02 -0.25702873903E+03  0.37585331332E+03  0.26310509068E+03 0.  0.
         25    1    4    4    0    0  0.23807848439E+02 -0.28498313008E+02 -0.17801256698E+03  0.22071463384E+03  0.12509000000E+03 0.  0.
         25    1    4    4    0    0 -0.47051737517E+01 -0.46419905911E+02 -0.79016172050E+02  0.15513867948E+03  0.12509000000E+03 0.  0.
         25    1    3    3    0    0 -0.19102674687E+02  0.74918218918E+02  0.23449739344E+02  0.14891289428E+03  0.12509000000E+03 0.  0.
<mgrwt>
<rscale>  2 0.46991534E+03</rscale>
<asrwt>0</asrwt>
<pdfrwt beam="1">  1       21 0.21410824E-01 0.46991534E+03</pdfrwt>
<pdfrwt beam="2">  1       21 0.55760676E-01 0.46991534E+03</pdfrwt>
<totfact> 0.56566640E+04</totfact>
</mgrwt>
</event>
<event>
 7    0  0.4750554E-002  0.4566397E+03  0.7546771E-02  0.1025760E+00
         21   -1    0    0  502  501  0.00000000000E+00  0.00000000000E+00  0.16678601546E+03  0.16678601546E+03  0.00000000000E+00 0.  1.
         21   -1    0    0  501  502 -0.00000000000E+00 -0.00000000000E+00 -0.31255587329E+03  0.31255587329E+03  0.00000000000E+00 0.  1.
      99926    2    1    2    0    0 -0.88817841970E-15  0.00000000000E+00 -0.14576985784E+03  0.47934188875E+03  0.45663967727E+03 0.  0.
      99925    2    3    3    0    0  0.14807049295E+01 -0.45363959081E+02 -0.20215862949E+03  0.33481755537E+03  0.26301065118E+03 0.  0.
         25    1    4    4    0    0 -0.11913607415E+02  0.16028563466E+02 -0.88975891529E+02  0.15480008482E+03  0.12509000000E+03 0.  0.
         25    1    3    3    0    0 -0.14807049295E+01  0.45363959081E+02  0.56388771655E+02  0.14452433338E+03  0.12509000000E+03 0.  0.
         25    1    4    4    0    0  0.13394312344E+02 -0.61392522547E+02 -0.11318273796E+03  0.18001747054E+03  0.12509000000E+03 0.  0.
<mgrwt>
<rscale>  2 0.45663968E+03</rscale>
<asrwt>0</asrwt>
<pdfrwt beam="1">  1       21 0.24527356E-01 0.45663968E+03</pdfrwt>
<pdfrwt beam="2">  1       21 0.45964098E-01 0.45663968E+03</pdfrwt>
<totfact> 0.65886394E+04</totfact>
</mgrwt>
</event>
<event>
 7    0  0.4750554E-002  0.4425187E+03  0.7546771E-02  0.1029977E+00
         21   -1    0    0  502  501  0.00000000000E+00  0.00000000000E+00  0.13719479540E+03  0.13719479540E+03  0.00000000000E+00 0.  1.
         21   -1    0    0  501  502 -0.00000000000E+00 -0.00000000000E+00 -0.35683345434E+03  0.35683345434E+03  0.00000000000E+00 0.  1.
      99926    2    1    2    0    0  0.00000000000E+00  0.00000000000E+00 -0.21963865894E+03  0.49402824974E+03  0.44251866745E+03 0.  0.
      99925    2    3    3    0    0  0.86046585584E+02 -0.52267075716E+02 -0.14904177884E+03  0.31862217894E+03  0.26300338206E+03 0.  0.
         25    1    3    3    0    0 -0.86046585584E+02  0.52267075716E+02 -0.70596880093E+02  0.17540607080E+03  0.12509000000E+03 0.  0.
         25    1    4    4    0    0  0.14482947645E+02 -0.53539806913E+02 -0.61702183514E+02  0.15010307874E+03  0.12509000000E+03 0.  0.
         25    1    4    4    0    0  0.71563637939E+02  0.12727311974E+01 -0.87339595329E+02  0.16851910020E+03  0.12509000000E+03 0.  0.
<mgrwt>
<rscale>  2 0.44251867E+03</rscale>
<asrwt>0</asrwt>
<pdfrwt beam="1">  1       21 0.20175705E-01 0.44251867E+03</pdfrwt>
<pdfrwt beam="2">  1       21 0.52475507E-01 0.44251867E+03</pdfrwt>
<totfact> 0.72625252E+04</totfact>
</mgrwt>
</event>
<event>
 7    0  0.4750554E-002  0.4669419E+03  0.7546771E-02  0.1022787E+00
         21   -1    0    0  502  501  0.00000000000E+00  0.00000000000E+00  0.83944515448E+03  0.83944515448E+03  0.00000000000E+00 0.  1.
         21   -1    0    0  501  502 -0.00000000000E+00 -0.00000000000E+00 -0.64934186962E+02  0.64934186962E+02  0.00000000000E+00 0.  1.
      99926    2    1    2    0    0  0.00000000000E+00  0.00000000000E+00  0.77451096751E+03  0.90437934144E+03  0.46694191761E+03 0.  0.
      99925    2    3    3    0    0  0.43803203547E+02  0.88263006009E+02  0.33513935431E+03  0.43704220247E+03  0.26263743271E+03 0.  0.
         25    1    4    4    0    0 -0.51437568282E+01  0.30120819046E+02  0.19974973864E+03  0.23765771218E+03  0.12509000000E+03 0.  0.
         25    1    4    4    0    0  0.48946960375E+02  0.58142186963E+02  0.13538961568E+03  0.19938449029E+03  0.12509000000E+03 0.  0.
         25    1    3    3    0    0 -0.43803203547E+02 -0.88263006009E+02  0.43937161320E+03  0.46733713897E+03  0.12509000000E+03 0.  0.
<mgrwt>
<rscale>  2 0.46694192E+03</rscale>
<asrwt>0</asrwt>
<pdfrwt beam="1">  1       21 0.12344781E+00 0.46694192E+03</pdfrwt>
<pdfrwt beam="2">  1       21 0.95491456E-02 0.46694192E+03</pdfrwt>
<totfact> 0.39244997E+04</totfact>
</mgrwt>
</event>
<event>
 7    0  0.4750554E-002  0.4686723E+03  0.7546771E-02  0.1022296E+00
         21   -1    0    0  502  501  0.00000000000E+00  0.00000000000E+00  0.47527404634E+03  0.47527404634E+03  0.00000000000E+00 0. -1.
         21   -1    0    0  501  502 -0.00000000000E+00 -0.00000000000E+00 -0.11554058413E+03  0.11554058413E+03  0.00000000000E+00 0. -1.
      99926    2    1    2    0    0  0.14210854715E-13  0.00000000000E+00  0.35973346221E+03  0.59081463047E+03  0.46867234156E+03 0.  0.
      99925    2    3    3    0    0 -0.66700949840E+02  0.87900489562E+02  0.29911295672E+03  0.41333824736E+03  0.26306735464E+03 0.  0.
         25    1    3    3    0    0  0.66700949840E+02 -0.87900489562E+02  0.60620505487E+02  0.17747638311E+03  0.12509000000E+03 0.  0.
         25    1    4    4    0    0 -0.30390993381E+02  0.41531560472E+02  0.89353469921E+02  0.16211117692E+03  0.12509000000E+03 0.  0.
         25    1    4    4    0    0 -0.36309956459E+02  0.46368929090E+02  0.20975948680E+03  0.25122707045E+03  0.12509000000E+03 0.  0.
<mgrwt>
<rscale>  2 0.46867234E+03</rscale>
<asrwt>0</asrwt>
<pdfrwt beam="1">  1       21 0.69893241E-01 0.46867234E+03</pdfrwt>
<pdfrwt beam="2">  1       21 0.16991263E-01 0.46867234E+03</pdfrwt>
<totfact> 0.53254765E+04</totfact>
</mgrwt>
</event>
<event>
 7    0  0.4750554E-002  0.4557845E+03  0.7546771E-02  0.1026011E+00
         21   -1    0    0  502  501  0.00000000000E+00  0.00000000000E+00  0.22366692029E+03  0.22366692029E+03  0.00000000000E+00 0. -1.
         21   -1    0    0  501  502 -0.00000000000E+00 -0.00000000000E+00 -0.23219745004E+03  0.23219745004E+03  0.00000000000E+00 0. -1.
      99926    2    1    2    0    0 -0.14210854715E-13 -0.17763568394E-14 -0.85305297559E+01  0.45586437033E+03  0.45578454800E+03 0.  0.
      99925    2    3    3    0    0 -0.95389840447E+02 -0.47393023519E+01 -0.67507850511E+02  0.28779439945E+03  0.26295745631E+03 0.  0.
         25    1    4    4    0    0 -0.67364900834E+02 -0.31718679242E+02 -0.13846185857E+02  0.14623039848E+03  0.12509000000E+03 0.  0.
         25    1    3    3    0    0  0.95389840447E+02  0.47393023519E+01  0.58977320755E+02  0.16806997088E+03  0.12509000000E+03 0.  0.
         25    1    4    4    0    0 -0.28024939613E+02  0.26979376891E+02 -0.53661664653E+02  0.14156400097E+03  0.12509000000E+03 0.  0.
<mgrwt>
<rscale>  2 0.45578455E+03</rscale>
<asrwt>0</asrwt>
<pdfrwt beam="1">  1       21 0.32892194E-01 0.45578455E+03</pdfrwt>
<pdfrwt beam="2">  1       21 0.34146684E-01 0.45578455E+03</pdfrwt>
<totfact> 0.68055501E+04</totfact>
</mgrwt>
</event>
<event>
 7    0  0.4750554E-002  0.3974738E+03  0.7546771E-02  0.1044658E+00
         21   -1    0    0  502  501  0.00000000000E+00  0.00000000000E+00  0.77681353427E+03  0.77681353427E+03  0.00000000000E+00 0.  1.
         21   -1    0    0  501  502 -0.00000000000E+00 -0.00000000000E+00 -0.50844055796E+02  0.50844055796E+02  0.00000000000E+00 0.  1.
      99926    2    1    2    0    0 -0.35527136788E-14  0.00000000000E+00  0.72596947848E+03  0.82765759007E+03  0.39747377614E+03 0.  0.
      99925    2    3    3    0    0 -0.20899738476E+02 -0.33020565139E+02  0.46639834876E+03  0.53687960557E+03  0.26303067189E+03 0.  0.
         25    1    4    4    0    0  0.14081775964E+02 -0.40629010447E+02  0.19146824815E+03  0.23271573014E+03  0.12509000000E+03 0.  0.
         25    1    3    3    0    0  0.20899738476E+02  0.33020565139E+02  0.25957112971E+03  0.29077798450E+03  0.12509000000E+03 0.  0.
         25    1    4    4    0    0 -0.34981514440E+02  0.76084453073E+01  0.27493010061E+03  0.30416387543E+03  0.12509000000E+03 0.  0.
<mgrwt>
<rscale>  2 0.39747378E+03</rscale>
<asrwt>0</asrwt>
<pdfrwt beam="1">  1       21 0.11423728E+00 0.39747378E+03</pdfrwt>
<pdfrwt beam="2">  1       21 0.74770675E-02 0.39747378E+03</pdfrwt>
<totfact> 0.74992647E+04</totfact>
</mgrwt>
</event>
<event>
 7    0  0.4750554E-002  0.4576811E+03  0.7546771E-02  0.1025456E+00
         21   -1    0    0  502  501  0.00000000000E+00  0.00000000000E+00  0.40719832279E+02  0.40719832279E+02  0.00000000000E+00 0. -1.
         21   -1    0    0  501  502 -0.00000000000E+00 -0.00000000000E+00 -0.12860561662E+04  0.12860561662E+04  0.00000000000E+00 0. -1.
      99926    2    1    2    0    0  0.00000000000E+00 -0.71054273576E-14 -0.12453363340E+04  0.13267759985E+04  0.45768107407E+03 0.  0.
      99925    2    3    3    0    0  0.77780275266E+02 -0.34585190718E+02 -0.10086811608E+04  0.10458861879E+04  0.26304814617E+03 0.  0.
         25    1    4    4    0    0  0.22999184284E+02  0.17670988667E+02 -0.41174704770E+03  0.43130542045E+03  0.12509000000E+03 0.  0.
         25    1    4    4    0    0  0.54781090982E+02 -0.52256179385E+02 -0.59693411308E+03  0.61458076741E+03  0.12509000000E+03 0.  0.
         25    1    3    3    0    0 -0.77780275266E+02  0.34585190718E+02 -0.23665517317E+03  0.28088981064E+03  0.12509000000E+03 0.  0.
<mgrwt>
<rscale>  2 0.45768107E+03</rscale>
<asrwt>0</asrwt>
<pdfrwt beam="1">  1       21 0.59882110E-02 0.45768107E+03</pdfrwt>
<pdfrwt beam="2">  1       21 0.18912589E+00 0.45768107E+03</pdfrwt>
<totfact> 0.27763591E+04</totfact>
</mgrwt>
</event>
<event>
 7    0  0.4750554E-002  0.4584310E+03  0.7546771E-02  0.1025237E+00
         21   -1    0    0  502  501  0.00000000000E+00  0.00000000000E+00  0.51265118628E+02  0.51265118628E+02  0.00000000000E+00 0.  1.
         21   -1    0    0  501  502 -0.00000000000E+00 -0.00000000000E+00 -0.10248634862E+04  0.10248634862E+04  0.00000000000E+00 0.  1.
      99926    2    1    2    0    0  0.00000000000E+00 -0.35527136788E-14 -0.97359836760E+03  0.10761286049E+04  0.45843101203E+03 0.  0.
      99925    2    3    3    0    0  0.20905992080E+02 -0.26057915319E+02 -0.34926413012E+03  0.43851051881E+03  0.26303985832E+03 0.  0.
         25    1    4    4    0    0  0.32625733039E+02 -0.10787312767E+02 -0.23286575227E+03  0.26656100850E+03  0.12509000000E+03 0.  0.
         25    1    4    4    0    0 -0.11719740959E+02 -0.15270602553E+02 -0.11639837784E+03  0.17194951031E+03  0.12509000000E+03 0.  0.
         25    1    3    3    0    0 -0.20905992080E+02  0.26057915319E+02 -0.62433423748E+03  0.63761808604E+03  0.12509000000E+03 0.  0.
<mgrwt>
<rscale>  2 0.45843101E+03</rscale>
<asrwt>0</asrwt>
<pdfrwt beam="1">  1       21 0.75389883E-02 0.45843101E+03</pdfrwt>
<pdfrwt beam="2">  1       21 0.15071521E+00 0.45843101E+03</pdfrwt>
<totfact> 0.35376371E+04</totfact>
</mgrwt>
</event>
<event>
 7    0  0.4750554E-002  0.4448977E+03  0.7546771E-02  0.1029255E+00
         21   -1    0    0  502  501  0.00000000000E+00  0.00000000000E+00  0.73267573978E+03  0.73267573978E+03  0.00000000000E+00 0.  1.
         21   -1    0    0  501  502 -0.00000000000E+00 -0.00000000000E+00 -0.67538055732E+02  0.67538055732E+02  0.00000000000E+00 0.  1.
      99926    2    1    2    0    0  0.14210854715E-13  0.00000000000E+00  0.66513768405E+03  0.80021379551E+03  0.44489771834E+03 0.  0.
      99925    2    3    3    0    0  0.86051130420E+02  0.46986511752E+02  0.36327873397E+03  0.45907033130E+03  0.26298593345E+03 0.  0.
         25    1    3    3    0    0 -0.86051130420E+02 -0.46986511752E+02  0.30185895007E+03  0.34114346421E+03  0.12509000000E+03 0.  0.
         25    1    4    4    0    0  0.16311985462E+01  0.17782876044E+02  0.17887997309E+03  0.21900786370E+03  0.12509000000E+03 0.  0.
         25    1    4    4    0    0  0.84419931874E+02  0.29203635708E+02  0.18439876089E+03  0.24006246760E+03  0.12509000000E+03 0.  0.
<mgrwt>
<rscale>  2 0.44489772E+03</rscale>
<asrwt>0</asrwt>
<pdfrwt beam="1">  1       21 0.10774643E+00 0.44489772E+03</pdfrwt>
<pdfrwt beam="2">  1       21 0.99320675E-02 0.44489772E+03</pdfrwt>
<totfact> 0.51735823E+04</totfact>
</mgrwt>
</event>
<event>
 7    0  0.4750554E-002  0.4545601E+03  0.7546771E-02  0.1026371E+00
         21   -1    0    0  502  501  0.00000000000E+00  0.00000000000E+00  0.46037856436E+03  0.46037856436E+03  0.00000000000E+00 0. -1.
         21   -1    0    0  501  502 -0.00000000000E+00 -0.00000000000E+00 -0.11220379873E+03  0.11220379873E+03  0.00000000000E+00 0. -1.
      99926    2    1    2    0    0  0.00000000000E+00  0.00000000000E+00  0.34817476562E+03  0.57258236309E+03  0.45456011165E+03 0.  0.
      99925    2    3    3    0    0 -0.17129247975E+02  0.94591453353E+02  0.29281140840E+03  0.40538917063E+03  0.26336458492E+03 0.  0.
         25    1    4    4    0    0 -0.43598994348E+02  0.29445046547E+02  0.16074012189E+03  0.21036344255E+03  0.12509000000E+03 0.  0.
         25    1    4    4    0    0  0.26469746374E+02  0.65146406805E+02  0.13207128651E+03  0.19502572808E+03  0.12509000000E+03 0.  0.
         25    1    3    3    0    0  0.17129247975E+02 -0.94591453353E+02  0.55363357222E+02  0.16719319246E+03  0.12509000000E+03 0.  0.
<mgrwt>
<rscale>  2 0.45456011E+03</rscale>
<asrwt>0</asrwt>
<pdfrwt beam="1">  1       21 0.67702729E-01 0.45456011E+03</pdfrwt>
<pdfrwt beam="2">  1       21 0.16500559E-01 0.45456011E+03</pdfrwt>
<totfact> 0.60608995E+04</totfact>
</mgrwt>
</event>
<event>
 7    0  0.4750554E-002  0.4613456E+03  0.7546771E-02  0.1024392E+00
         21   -1    0    0  502  501  0.00000000000E+00  0.00000000000E+00  0.14646472028E+03  0.14646472028E+03  0.00000000000E+00 0. -1.
         21   -1    0    0  501  502 -0.00000000000E+00 -0.00000000000E+00 -0.36329523518E+03  0.36329523518E+03  0.00000000000E+00 0. -1.
      99926    2    1    2    0    0  0.00000000000E+00  0.00000000000E+00 -0.21683051491E+03  0.50975995546E+03  0.46134557546E+03 0.  0.
      99925    2    3    3    0    0  0.91463590394E+02  0.72511334668E+02 -0.16250623974E+03  0.33025475499E+03  0.26274787005E+03 0.  0.
         25    1    4    4    0    0  0.10171708474E+02  0.55934745444E+02 -0.78081402381E+02  0.15803914989E+03  0.12509000000E+03 0.  0.
         25    1    4    4    0    0  0.81291881921E+02  0.16576589224E+02 -0.84424837364E+02  0.17221560510E+03  0.12509000000E+03 0.  0.
         25    1    3    3    0    0 -0.91463590394E+02 -0.72511334668E+02 -0.54324275161E+02  0.17950520047E+03  0.12509000000E+03 0.  0.
<mgrwt>
<rscale>  2 0.46134558E+03</rscale>
<asrwt>0</asrwt>
<pdfrwt beam="1">  1       21 0.21538930E-01 0.46134558E+03</pdfrwt>
<pdfrwt beam="2">  1       21 0.53425770E-01 0.46134558E+03</pdfrwt>
<totfact> 0.61437189E+04</totfact>
</mgrwt>
</event>
<event>
 7    0  0.4750554E-002  0.4571627E+03  0.7546771E-02  0.1025607E+00
         21   -1    0    0  502  501  0.00000000000E+00  0.00000000000E+00  0.33100940058E+03  0.33100940058E+03  0.00000000000E+00 0. -1.
         21   -1    0    0  501  502 -0.00000000000E+00 -0.00000000000E+00 -0.15784879614E+03  0.15784879614E+03  0.00000000000E+00 0. -1.
      99926    2    1    2    0    0  0.00000000000E+00  0.00000000000E+00  0.17316060444E+03  0.48885819672E+03  0.45716270798E+03 0.  0.
      99925    2    3    3    0    0 -0.72545334873E+02 -0.68045506042E+02  0.46220010931E+02  0.28476400551E+03  0.26279503976E+03 0.  0.
         25    1    3    3    0    0  0.72545334873E+02  0.68045506042E+02  0.12694059351E+03  0.20409419121E+03  0.12509000000E+03 0.  0.
         25    1    4    4    0    0 -0.23622555845E+02 -0.54197938016E+02  0.56268096684E+02  0.14936213856E+03  0.12509000000E+03 0.  0.
         25    1    4    4    0    0 -0.48922779028E+02 -0.13847568026E+02 -0.10048085752E+02  0.13540186696E+03  0.12509000000E+03 0.  0.
<mgrwt>
<rscale>  2 0.45716271E+03</rscale>
<asrwt>0</asrwt>
<pdfrwt beam="1">  1       21 0.48677853E-01 0.45716271E+03</pdfrwt>
<pdfrwt beam="2">  1       21 0.23213058E-01 0.45716271E+03</pdfrwt>
<totfact> 0.64938620E+04</totfact>
</mgrwt>
</event>
<event>
 7    0  0.4750554E-002  0.4521958E+03  0.7546771E-02  0.1027069E+00
         21   -1    0    0  502  501  0.00000000000E+00  0.00000000000E+00  0.10556700178E+03  0.10556700178E+03  0.00000000000E+00 0. -1.
         21   -1    0    0  501  502 -0.00000000000E+00 -0.00000000000E+00 -0.48424467454E+03  0.48424467454E+03  0.00000000000E+00 0. -1.
      99926    2    1    2    0    0  0.17763568394E-14  0.00000000000E+00 -0.37867767276E+03  0.58981167631E+03  0.45219579130E+03 0.  0.
      99925    2    3    3    0    0  0.12958162416E+02 -0.78311008868E+02 -0.13865288056E+03  0.30774796532E+03  0.26302787075E+03 0.  0.
         25    1    4    4    0    0 -0.28105477614E+02 -0.37685788655E+02 -0.44415578164E+02  0.14082041124E+03  0.12509000000E+03 0.  0.
         25    1    3    3    0    0 -0.12958162416E+02  0.78311008868E+02 -0.24002479220E+03  0.28206371099E+03  0.12509000000E+03 0.  0.
         25    1    4    4    0    0  0.41063640030E+02 -0.40625220213E+02 -0.94237302392E+02  0.16692755408E+03  0.12509000000E+03 0.  0.
<mgrwt>
<rscale>  2 0.45219579E+03</rscale>
<asrwt>0</asrwt>
<pdfrwt beam="1">  1       21 0.15524559E-01 0.45219579E+03</pdfrwt>
<pdfrwt beam="2">  1       21 0.71212452E-01 0.45219579E+03</pdfrwt>
<totfact> 0.60642696E+04</totfact>
</mgrwt>
</event>
<event>
 7    0  0.4750554E-002  0.4608654E+03  0.7546771E-02  0.1024531E+00
         21   -1    0    0  502  501  0.00000000000E+00  0.00000000000E+00  0.85210409976E+02  0.85210409976E+02  0.00000000000E+00 0. -1.
         21   -1    0    0  501  502 -0.00000000000E+00 -0.00000000000E+00 -0.62315415934E+03  0.62315415934E+03  0.00000000000E+00 0. -1.
      99926    2    1    2    0    0  0.00000000000E+00  0.00000000000E+00 -0.53794374937E+03  0.70836456932E+03  0.46086536601E+03 0.  0.
      99925    2    3    3    0    0  0.76403237459E+02 -0.89717053067E+02 -0.31644616874E+03  0.42801605295E+03  0.26300752759E+03 0.  0.
         25    1    4    4    0    0  0.66565473915E+02 -0.69574265722E+02 -0.20684244347E+03  0.26019770424E+03  0.12509000000E+03 0.  0.
         25    1    3    3    0    0 -0.76403237459E+02  0.89717053067E+02 -0.22149758063E+03  0.28034851637E+03  0.12509000000E+03 0.  0.
         25    1    4    4    0    0  0.98377635435E+01 -0.20142787345E+02 -0.10960372527E+03  0.16781834872E+03  0.12509000000E+03 0.  0.
<mgrwt>
<rscale>  2 0.46086537E+03</rscale>
<asrwt>0</asrwt>
<pdfrwt beam="1">  1       21 0.12530943E-01 0.46086537E+03</pdfrwt>
<pdfrwt beam="2">  1       21 0.91640316E-01 0.46086537E+03</pdfrwt>
<totfact> 0.50098790E+04</totfact>
</mgrwt>
</event>
<event>
 7    0  0.4750554E-002  0.4539821E+03  0.7546771E-02  0.1026541E+00
         21   -1    0    0  502  501  0.00000000000E+00  0.00000000000E+00  0.18715456735E+03  0.18715456735E+03  0.00000000000E+00 0. -1.
         21   -1    0    0  501  502 -0.00000000000E+00 -0.00000000000E+00 -0.27530688642E+03  0.27530688642E+03  0.00000000000E+00 0. -1.
      99926    2    1    2    0    0  0.00000000000E+00 -0.88817841970E-15 -0.88152319065E+02  0.46246145377E+03  0.45398211955E+03 0.  0.
      99925    2    3    3    0    0 -0.73296207290E+02 -0.77599444012E+01  0.31010971861E+02  0.27463188010E+03  0.26273263683E+03 0.  0.
         25    1    4    4    0    0 -0.73847819828E+02  0.98703348493E+01  0.51704496293E+01  0.14568859136E+03  0.12509000000E+03 0.  0.
         25    1    4    4    0    0  0.55161253741E+00 -0.17630279250E+02  0.25840522232E+02  0.12894328874E+03  0.12509000000E+03 0.  0.
         25    1    3    3    0    0  0.73296207290E+02  0.77599444012E+01 -0.11916329093E+03  0.18782957367E+03  0.12509000000E+03 0.  0.
<mgrwt>
<rscale>  2 0.45398212E+03</rscale>
<asrwt>0</asrwt>
<pdfrwt beam="1">  1       21 0.27522731E-01 0.45398212E+03</pdfrwt>
<pdfrwt beam="2">  1       21 0.40486306E-01 0.45398212E+03</pdfrwt>
<totfact> 0.68552058E+04</totfact>
</mgrwt>
</event>
<event>
 7    0  0.4750554E-002  0.4476835E+03  0.7546771E-02  0.1028415E+00
         21   -1    0    0  502  501  0.00000000000E+00  0.00000000000E+00  0.30445212005E+02  0.30445212005E+02  0.00000000000E+00 0.  1.
         21   -1    0    0  501  502 -0.00000000000E+00 -0.00000000000E+00 -0.16457473138E+04  0.16457473138E+04  0.00000000000E+00 0.  1.
      99926    2    1    2    0    0  0.00000000000E+00  0.00000000000E+00 -0.16153021017E+04  0.16761925258E+04  0.44768348584E+03 0.  0.
      99925    2    3    3    0    0 -0.38188081342E+02 -0.98586270893E+02 -0.98454120813E+03  0.10245143879E+04  0.26292728673E+03 0.  0.
         25    1    3    3    0    0  0.38188081342E+02  0.98586270893E+02 -0.63076089362E+03  0.65167813787E+03  0.12509000000E+03 0.  0.
         25    1    4    4    0    0 -0.31590416800E+02 -0.65099787180E+02 -0.38784363324E+03  0.41389144551E+03  0.12509000000E+03 0.  0.
         25    1    4    4    0    0 -0.65976645422E+01 -0.33486483713E+02 -0.59669757489E+03  0.61062294237E+03  0.12509000000E+03 0.  0.
<mgrwt>
<rscale>  2 0.44768349E+03</rscale>
<asrwt>0</asrwt>
<pdfrwt beam="1">  1       21 0.44772363E-02 0.44768349E+03</pdfrwt>
<pdfrwt beam="2">  1       21 0.24202171E+00 0.44768349E+03</pdfrwt>
<totfact> 0.20925288E+04</totfact>
</mgrwt>
</event>
<event>
 7    0  0.4750554E-002  0.4528722E+03  0.7546771E-02  0.1026869E+00
         21   -1    0    0  502  501  0.00000000000E+00  0.00000000000E+00  0.37190313186E+02  0.37190313186E+02  0.00000000000E+00 0.  1.
         21   -1    0    0  501  502 -0.00000000000E+00 -0.00000000000E+00 -0.13786735017E+04  0.13786735017E+04  0.00000000000E+00 0.  1.
      99926    2    1    2    0    0  0.00000000000E+00  0.00000000000E+00 -0.13414831885E+04  0.14158638149E+04  0.45287216435E+03 0.  0.
      99925    2    3    3    0    0  0.10230526627E+03  0.38912872495E+02 -0.90572633991E+03  0.94948187017E+03  0.26304950071E+03 0.  0.
         25    1    4    4    0    0  0.75987459161E+01  0.15909219738E+02 -0.39726453740E+03  0.41686624352E+03  0.12509000000E+03 0.  0.
         25    1    4    4    0    0  0.94706520355E+02  0.23003652757E+02 -0.50846180251E+03  0.53261562665E+03  0.12509000000E+03 0.  0.
         25    1    3    3    0    0 -0.10230526627E+03 -0.38912872495E+02 -0.43575684860E+03  0.46638194472E+03  0.12509000000E+03 0.  0.
<mgrwt>
<rscale>  2 0.45287216E+03</rscale>
<asrwt>0</asrwt>
<pdfrwt beam="1">  1       21 0.54691654E-02 0.45287216E+03</pdfrwt>
<pdfrwt beam="2">  1       21 0.20274604E+00 0.45287216E+03</pdfrwt>
<totfact> 0.26345255E+04</totfact>
</mgrwt>
</event>
<event>
 7    0  0.4750554E-002  0.4556928E+03  0.7546771E-02  0.1026038E+00
         21   -1    0    0  502  501  0.00000000000E+00  0.00000000000E+00  0.10855128673E+04  0.10855128673E+04  0.00000000000E+00 0.  1.
         21   -1    0    0  501  502 -0.00000000000E+00 -0.00000000000E+00 -0.47824389013E+02  0.47824389013E+02  0.00000000000E+00 0.  1.
      99926    2    1    2    0    0  0.00000000000E+00  0.14210854715E-13  0.10376884783E+04  0.11333372563E+04  0.45569283358E+03 0.  0.
      99925    2    3    3    0    0  0.12355870773E+02  0.11274164161E+03  0.62828975752E+03  0.69048494915E+03  0.26297927732E+03 0.  0.
         25    1    4    4    0    0  0.62297406275E+01  0.90631886303E+02  0.28226271401E+03  0.32182712177E+03  0.12509000000E+03 0.  0.
         25    1    3    3    0    0 -0.12355870773E+02 -0.11274164161E+03  0.40939872076E+03  0.44285230716E+03  0.12509000000E+03 0.  0.
         25    1    4    4    0    0  0.61261301453E+01  0.22109755309E+02  0.34602704351E+03  0.36865782738E+03  0.12509000000E+03 0.  0.
<mgrwt>
<rscale>  2 0.45569283E+03</rscale>
<asrwt>0</asrwt>
<pdfrwt beam="1">  1       21 0.15963423E+00 0.45569283E+03</pdfrwt>
<pdfrwt beam="2">  1       21 0.70329991E-02 0.45569283E+03</pdfrwt>
<totfact> 0.34158749E+04</totfact>
</mgrwt>
</event>
<event>
 7    0  0.4750554E-002  0.4526587E+03  0.7546771E-02  0.1026932E+00
         21   -1    0    0  502  501  0.00000000000E+00  0.00000000000E+00  0.11390269860E+04  0.11390269860E+04  0.00000000000E+00 0. -1.
         21   -1    0    0  501  502 -0.00000000000E+00 -0.00000000000E+00 -0.44972577078E+02  0.44972577078E+02  0.00000000000E+00 0. -1.
      99926    2    1    2    0    0  0.00000000000E+00  0.00000000000E+00  0.10940544089E+04  0.11839995631E+04  0.45265871879E+03 0.  0.
      99925    2    3    3    0    0  0.10435470543E+03 -0.33610585139E+02  0.64750298447E+03  0.70747542019E+03  0.26313832730E+03 0.  0.
         25    1    4    4    0    0  0.79739948079E+02  0.39246472365E+01  0.28387677293E+03  0.32032388685E+03  0.12509000000E+03 0.  0.
         25    1    3    3    0    0 -0.10435470543E+03  0.33610585139E+02  0.44655142448E+03  0.47652414292E+03  0.12509000000E+03 0.  0.
         25    1    4    4    0    0  0.24614757353E+02 -0.37535232375E+02  0.36362621154E+03  0.38715153334E+03  0.12509000000E+03 0.  0.
<mgrwt>
<rscale>  2 0.45265872E+03</rscale>
<asrwt>0</asrwt>
<pdfrwt beam="1">  1       21 0.16750395E+00 0.45265872E+03</pdfrwt>
<pdfrwt beam="2">  1       21 0.66136150E-02 0.45265872E+03</pdfrwt>
<totfact> 0.33269986E+04</totfact>
</mgrwt>
</event>
<event>
 7    0  0.4750554E-002  0.4540333E+03  0.7546771E-02  0.1026526E+00
         21   -1    0    0  502  501  0.00000000000E+00  0.00000000000E+00  0.69530765635E+03  0.69530765635E+03  0.00000000000E+00 0. -1.
         21   -1    0    0  501  502 -0.00000000000E+00 -0.00000000000E+00 -0.74120517804E+02  0.74120517804E+02  0.00000000000E+00 0. -1.
      99926    2    1    2    0    0  0.00000000000E+00  0.00000000000E+00  0.62118713855E+03  0.76942817416E+03  0.45403331826E+03 0.  0.
      99925    2    3    3    0    0 -0.95998565217E+02 -0.42851126220E+02  0.45795413201E+03  0.53846396467E+03  0.26300097087E+03 0.  0.
         25    1    4    4    0    0 -0.82536610000E+02 -0.39067430666E+02  0.21678273757E+03  0.26642225797E+03  0.12509000000E+03 0.  0.
         25    1    3    3    0    0  0.95998565217E+02  0.42851126220E+02  0.16323300654E+03  0.23096420949E+03  0.12509000000E+03 0.  0.
         25    1    4    4    0    0 -0.13461955217E+02 -0.37836955537E+01  0.24117139444E+03  0.27204170670E+03  0.12509000000E+03 0.  0.
<mgrwt>
<rscale>  2 0.45403332E+03</rscale>
<asrwt>0</asrwt>
<pdfrwt beam="1">  1       21 0.10225112E+00 0.45403332E+03</pdfrwt>
<pdfrwt beam="2">  1       21 0.10900077E-01 0.45403332E+03</pdfrwt>
<totfact> 0.49654756E+04</totfact>
</mgrwt>
</event>
<event>
 7    0  0.4750554E-002  0.4661926E+03  0.7546771E-02  0.1023000E+00
         21   -1    0    0  502  501  0.00000000000E+00  0.00000000000E+00  0.17904673447E+03  0.17904673447E+03  0.00000000000E+00 0.  1.
         21   -1    0    0  501  502 -0.00000000000E+00 -0.00000000000E+00 -0.30346204478E+03  0.30346204478E+03  0.00000000000E+00 0.  1.
      99926    2    1    2    0    0  0.00000000000E+00  0.00000000000E+00 -0.12441531032E+03  0.48250877925E+03  0.46619261321E+03 0.  0.
      99925    2    3    3    0    0  0.10588214640E+03 -0.35162708926E+02 -0.23130617400E+02  0.28666817533E+03  0.26305165322E+03 0.  0.
         25    1    3    3    0    0 -0.10588214640E+03  0.35162708926E+02 -0.10128469292E+03  0.19584060392E+03  0.12509000000E+03 0.  0.
         25    1    4    4    0    0  0.24814326181E+02 -0.22334048060E+02 -0.41440418549E+02  0.13593887184E+03  0.12509000000E+03 0.  0.
         25    1    4    4    0    0  0.81067820215E+02 -0.12828660866E+02  0.18309801149E+02  0.15072930350E+03  0.12509000000E+03 0.  0.
<mgrwt>
<rscale>  2 0.46619261E+03</rscale>
<asrwt>0</asrwt>
<pdfrwt beam="1">  1       21 0.26330403E-01 0.46619261E+03</pdfrwt>
<pdfrwt beam="2">  1       21 0.44626770E-01 0.46619261E+03</pdfrwt>
<totfact> 0.60923829E+04</totfact>
</mgrwt>
</event>
<event>
 7    0  0.4750554E-002  0.4534233E+03  0.7546771E-02  0.1026706E+00
         21   -1    0    0  502  501  0.00000000000E+00  0.00000000000E+00  0.16734096818E+03  0.16734096818E+03  0.00000000000E+00 0. -1.
         21   -1    0    0  501  502 -0.00000000000E+00 -0.00000000000E+00 -0.30714637449E+03  0.30714637449E+03  0.00000000000E+00 0. -1.
      99926    2    1    2    0    0 -0.44408920985E-15  0.00000000000E+00 -0.13980540630E+03  0.47448734267E+03  0.45342329750E+03 0.  0.
      99925    2    3    3    0    0  0.26021916814E+01  0.10286536947E+03 -0.42796492613E+02  0.28568508348E+03  0.26305203193E+03 0.  0.
         25    1    4    4    0    0  0.22415604301E+02  0.41967358686E+02  0.13044728636E+02  0.13446706495E+03  0.12509000000E+03 0.  0.
         25    1    4    4    0    0 -0.19813412619E+02  0.60898010787E+02 -0.55841221249E+02  0.15121801853E+03  0.12509000000E+03 0.  0.
         25    1    3    3    0    0 -0.26021916814E+01 -0.10286536947E+03 -0.97008913691E+02  0.18880225919E+03  0.12509000000E+03 0.  0.
<mgrwt>
<rscale>  2 0.45342330E+03</rscale>
<asrwt>0</asrwt>
<pdfrwt beam="1">  1       21 0.24608966E-01 0.45342330E+03</pdfrwt>
<pdfrwt beam="2">  1       21 0.45168584E-01 0.45342330E+03</pdfrwt>
<totfact> 0.67949889E+04</totfact>
</mgrwt>
</event>
<event>
 7    0  0.4750554E-002  0.4627028E+03  0.7546771E-02  0.1024000E+00
         21   -1    0    0  502  501  0.00000000000E+00  0.00000000000E+00  0.16655486899E+03  0.16655486899E+03  0.00000000000E+00 0. -1.
         21   -1    0    0  501  502 -0.00000000000E+00 -0.00000000000E+00 -0.32135637333E+03  0.32135637333E+03  0.00000000000E+00 0. -1.
      99926    2    1    2    0    0  0.00000000000E+00  0.00000000000E+00 -0.15480150434E+03  0.48791124231E+03  0.46270279298E+03 0.  0.
      99925    2    3    3    0    0  0.88860292813E+02  0.78289439815E+02 -0.11795652171E+03  0.31175662594E+03  0.26315977044E+03 0.  0.
         25    1    4    4    0    0  0.39332028814E+02 -0.28607690330E+01 -0.60796573659E+02  0.14456460133E+03  0.12509000000E+03 0.  0.
         25    1    4    4    0    0  0.49528263999E+02  0.81150208848E+02 -0.57159948048E+02  0.16719202461E+03  0.12509000000E+03 0.  0.
         25    1    3    3    0    0 -0.88860292813E+02 -0.78289439815E+02 -0.36844982629E+02  0.17615461638E+03  0.12509000000E+03 0.  0.
<mgrwt>
<rscale>  2 0.46270279E+03</rscale>
<asrwt>0</asrwt>
<pdfrwt beam="1">  1       21 0.24493363E-01 0.46270279E+03</pdfrwt>
<pdfrwt beam="2">  1       21 0.47258290E-01 0.46270279E+03</pdfrwt>
<totfact> 0.62235225E+04</totfact>
</mgrwt>
</event>
<event>
 7    0  0.4750554E-002  0.4351840E+03  0.7546771E-02  0.1032235E+00
         21   -1    0    0  502  501  0.00000000000E+00  0.00000000000E+00  0.71235681101E+03  0.71235681101E+03  0.00000000000E+00 0.  1.
         21   -1    0    0  501  502 -0.00000000000E+00 -0.00000000000E+00 -0.66464280196E+02  0.66464280196E+02  0.00000000000E+00 0.  1.
      99926    2    1    2    0    0 -0.44408920985E-15  0.00000000000E+00  0.64589253081E+03  0.77882109121E+03  0.43518401940E+03 0.  0.
      99925    2    3    3    0    0 -0.35512403486E+01  0.71807731337E+02  0.52170796554E+03  0.58845755494E+03  0.26255310143E+03 0.  0.
         25    1    4    4    0    0  0.13866424720E+02  0.20665370918E+02  0.18018946721E+03  0.22076024888E+03  0.12509000000E+03 0.  0.
         25    1    3    3    0    0  0.35512403486E+01 -0.71807731337E+02  0.12418456528E+03  0.19036353627E+03  0.12509000000E+03 0.  0.
         25    1    4    4    0    0 -0.17417665069E+02  0.51142360420E+02  0.34151849832E+03  0.36769730606E+03  0.12509000000E+03 0.  0.
<mgrwt>
<rscale>  2 0.43518402E+03</rscale>
<asrwt>0</asrwt>
<pdfrwt beam="1">  1       21 0.10475835E+00 0.43518402E+03</pdfrwt>
<pdfrwt beam="2">  1       21 0.97741592E-02 0.43518402E+03</pdfrwt>
<totfact> 0.57197723E+04</totfact>
</mgrwt>
</event>
<event>
 7    0  0.4750554E-002  0.4626243E+03  0.7546771E-02  0.1024023E+00
         21   -1    0    0  502  501  0.00000000000E+00  0.00000000000E+00  0.36522009101E+03  0.36522009101E+03  0.00000000000E+00 0. -1.
         21   -1    0    0  501  502 -0.00000000000E+00 -0.00000000000E+00 -0.14650153434E+03  0.14650153434E+03  0.00000000000E+00 0. -1.
      99926    2    1    2    0    0  0.71054273576E-14  0.00000000000E+00  0.21871855666E+03  0.51172162535E+03  0.46262426960E+03 0.  0.
      99925    2    3    3    0    0 -0.62334215818E+02 -0.20414327266E+02  0.24800679594E+03  0.36747319978E+03  0.26311001977E+03 0.  0.
         25    1    4    4    0    0 -0.11067208569E+02 -0.43284053655E+02  0.13949753682E+03  0.19262155457E+03  0.12509000000E+03 0.  0.
         25    1    4    4    0    0 -0.51267007249E+02  0.22869726389E+02  0.10850925912E+03  0.17485164521E+03  0.12509000000E+03 0.  0.
         25    1    3    3    0    0  0.62334215818E+02  0.20414327266E+02 -0.29288239278E+02  0.14424842557E+03  0.12509000000E+03 0.  0.
<mgrwt>
<rscale>  2 0.46262427E+03</rscale>
<asrwt>0</asrwt>
<pdfrwt beam="1">  1       21 0.53708837E-01 0.46262427E+03</pdfrwt>
<pdfrwt beam="2">  1       21 0.21544343E-01 0.46262427E+03</pdfrwt>
<totfact> 0.60697802E+04</totfact>
</mgrwt>
</event>
<event>
 7    0  0.4750554E-002  0.4333230E+03  0.7546771E-02  0.1032815E+00
         21   -1    0    0  502  501  0.00000000000E+00  0.00000000000E+00  0.30734516683E+03  0.30734516683E+03  0.00000000000E+00 0.  1.
         21   -1    0    0  501  502 -0.00000000000E+00 -0.00000000000E+00 -0.15273446134E+03  0.15273446134E+03  0.00000000000E+00 0.  1.
      99926    2    1    2    0    0  0.00000000000E+00  0.00000000000E+00  0.15461070549E+03  0.46007962816E+03  0.43332296731E+03 0.  0.
      99925    2    3    3    0    0  0.46707571537E+02  0.45589902212E+02  0.16731408094E+03  0.31841481154E+03  0.26293336437E+03 0.  0.
         25    1    4    4    0    0  0.14150841177E+02  0.14224724834E+01  0.41097492274E+02  0.13243406550E+03  0.12509000000E+03 0.  0.
         25    1    3    3    0    0 -0.46707571537E+02 -0.45589902212E+02 -0.12703375453E+02  0.14166481663E+03  0.12509000000E+03 0.  0.
         25    1    4    4    0    0  0.32556730359E+02  0.44167429729E+02  0.12621658867E+03  0.18598074603E+03  0.12509000000E+03 0.  0.
<mgrwt>
<rscale>  2 0.43332297E+03</rscale>
<asrwt>0</asrwt>
<pdfrwt beam="1">  1       21 0.45197819E-01 0.43332297E+03</pdfrwt>
<pdfrwt beam="2">  1       21 0.22460950E-01 0.43332297E+03</pdfrwt>
<totfact> 0.81288670E+04</totfact>
</mgrwt>
</event>
<event>
 7    0  0.4750554E-002  0.4595840E+03  0.7546771E-02  0.1024902E+00
         21   -1    0    0  502  501  0.00000000000E+00  0.00000000000E+00  0.53430751366E+02  0.53430751366E+02  0.00000000000E+00 0. -1.
         21   -1    0    0  501  502 -0.00000000000E+00 -0.00000000000E+00 -0.98827649020E+03  0.98827649020E+03  0.00000000000E+00 0. -1.
      99926    2    1    2    0    0  0.26645352591E-14  0.00000000000E+00 -0.93484573883E+03  0.10417072416E+04  0.45958396590E+03 0.  0.
      99925    2    3    3    0    0  0.68814896210E+01  0.10883599753E+03 -0.49640225439E+03  0.57290789599E+03  0.26441563847E+03 0.  0.
         25    1    3    3    0    0 -0.68814896210E+01 -0.10883599753E+03 -0.43844348445E+03  0.46879934557E+03  0.12509000000E+03 0.  0.
         25    1    4    4    0    0  0.35466218107E+02  0.38019849558E+02 -0.28639536059E+03  0.31681725372E+03  0.12509000000E+03 0.  0.
         25    1    4    4    0    0 -0.28584728486E+02  0.70816147974E+02 -0.21000689380E+03  0.25609064227E+03  0.12509000000E+03 0.  0.
<mgrwt>
<rscale>  2 0.45958397E+03</rscale>
<asrwt>0</asrwt>
<pdfrwt beam="1">  1       21 0.78574641E-02 0.45958397E+03</pdfrwt>
<pdfrwt beam="2">  1       21 0.14533476E+00 0.45958397E+03</pdfrwt>
<totfact> 0.36267925E+04</totfact>
</mgrwt>
</event>
<event>
 7    0  0.4750554E-002  0.4419019E+03  0.7546771E-02  0.1030165E+00
         21   -1    0    0  502  501  0.00000000000E+00  0.00000000000E+00  0.98918581774E+02  0.98918581774E+02  0.00000000000E+00 0. -1.
         21   -1    0    0  501  502 -0.00000000000E+00 -0.00000000000E+00 -0.49353027723E+03  0.49353027723E+03  0.00000000000E+00 0. -1.
      99926    2    1    2    0    0  0.00000000000E+00  0.00000000000E+00 -0.39461169546E+03  0.59244885901E+03  0.44190186732E+03 0.  0.
      99925    2    3    3    0    0 -0.84933969953E+02 -0.33832975200E+02 -0.30719043551E+03  0.41454879084E+03  0.26291878376E+03 0.  0.
         25    1    3    3    0    0  0.84933969953E+02  0.33832975200E+02 -0.87421259944E+02  0.17790006816E+03  0.12509000000E+03 0.  0.
         25    1    4    4    0    0 -0.65308643207E+02 -0.48101836957E+02 -0.14166145311E+03  0.20565622041E+03  0.12509000000E+03 0.  0.
         25    1    4    4    0    0 -0.19625326746E+02  0.14268861756E+02 -0.16552898240E+03  0.20889257043E+03  0.12509000000E+03 0.  0.
<mgrwt>
<rscale>  2 0.44190187E+03</rscale>
<asrwt>0</asrwt>
<pdfrwt beam="1">  1       21 0.14546850E-01 0.44190187E+03</pdfrwt>
<pdfrwt beam="2">  1       21 0.72577981E-01 0.44190187E+03</pdfrwt>
<totfact> 0.65684951E+04</totfact>
</mgrwt>
</event>
<event>
 7    0  0.4750554E-002  0.4509204E+03  0.7546771E-02  0.1027448E+00
         21   -1    0    0  502  501  0.00000000000E+00  0.00000000000E+00  0.56630155933E+03  0.56630155933E+03  0.00000000000E+00 0.  1.
         21   -1    0    0  501  502 -0.00000000000E+00 -0.00000000000E+00 -0.89761896205E+02  0.89761896205E+02  0.00000000000E+00 0.  1.
      99926    2    1    2    0    0  0.00000000000E+00  0.14210854715E-13  0.47653966312E+03  0.65606345553E+03  0.45092040002E+03 0.  0.
      99925    2    3    3    0    0 -0.45413226130E+02  0.91653596901E+02  0.24487212344E+03  0.37360974255E+03  0.26298125401E+03 0.  0.
         25    1    4    4    0    0 -0.46344078521E+02  0.17891226301E+02  0.93777144282E+02  0.16404124628E+03  0.12509000000E+03 0.  0.
         25    1    4    4    0    0  0.93085239155E+00  0.73762370599E+02  0.15109497916E+03  0.20956849627E+03  0.12509000000E+03 0.  0.
         25    1    3    3    0    0  0.45413226130E+02 -0.91653596901E+02  0.23166753968E+03  0.28245371298E+03  0.12509000000E+03 0.  0.
<mgrwt>
<rscale>  2 0.45092040E+03</rscale>
<asrwt>0</asrwt>
<pdfrwt beam="1">  1       21 0.83279639E-01 0.45092040E+03</pdfrwt>
<pdfrwt beam="2">  1       21 0.13200279E-01 0.45092040E+03</pdfrwt>
<totfact> 0.57170805E+04</totfact>
</mgrwt>
</event>
<event>
 7    0  0.4750554E-002  0.4257144E+03  0.7546771E-02  0.1035222E+00
         21   -1    0    0  502  501  0.00000000000E+00  0.00000000000E+00  0.41601037336E+02  0.41601037336E+02  0.00000000000E+00 0. -1.
         21   -1    0    0  501  502 -0.00000000000E+00 -0.00000000000E+00 -0.10891121783E+04  0.10891121783E+04  0.00000000000E+00 0. -1.
      99926    2    1    2    0    0  0.00000000000E+00 -0.14210854715E-13 -0.10475111410E+04  0.11307132157E+04  0.42571444135E+03 0.  0.
      99925    2    3    3    0    0 -0.44419710737E+02 -0.63925130897E+02 -0.75489869021E+03  0.80310203222E+03  0.26275712858E+03 0.  0.
         25    1    4    4    0    0 -0.41289782760E+01  0.37652332151E+01 -0.31220302134E+03  0.33637696127E+03  0.12509000000E+03 0.  0.
         25    1    3    3    0    0  0.44419710737E+02  0.63925130897E+02 -0.29261245077E+03  0.32761118343E+03  0.12509000000E+03 0.  0.
         25    1    4    4    0    0 -0.40290732461E+02 -0.67690364112E+02 -0.44269566887E+03  0.46672507095E+03  0.12509000000E+03 0.  0.
<mgrwt>
<rscale>  2 0.42571444E+03</rscale>
<asrwt>0</asrwt>
<pdfrwt beam="1">  1       21 0.61178003E-02 0.42571444E+03</pdfrwt>
<pdfrwt beam="2">  1       21 0.16016354E+00 0.42571444E+03</pdfrwt>
<totfact> 0.43559259E+04</totfact>
</mgrwt>
</event>
<event>
 7    0  0.4750554E-002  0.4632131E+03  0.7546771E-02  0.1023853E+00
         21   -1    0    0  502  501  0.00000000000E+00  0.00000000000E+00  0.11649052100E+03  0.11649052100E+03  0.00000000000E+00 0.  1.
         21   -1    0    0  501  502 -0.00000000000E+00 -0.00000000000E+00 -0.46048031410E+03  0.46048031410E+03  0.00000000000E+00 0.  1.
      99926    2    1    2    0    0  0.00000000000E+00  0.00000000000E+00 -0.34398979310E+03  0.57697083510E+03  0.46321309006E+03 0.  0.
      99925    2    3    3    0    0  0.50936749728E+02 -0.74286715325E+02 -0.11481455863E+03  0.30077911774E+03  0.26300689392E+03 0.  0.
         25    1    3    3    0    0 -0.50936749728E+02  0.74286715325E+02 -0.22917523446E+03  0.27619171736E+03  0.12509000000E+03 0.  0.
         25    1    4    4    0    0  0.11550962058E+02 -0.10487876178E+02 -0.84676256326E+02  0.15185847608E+03  0.12509000000E+03 0.  0.
         25    1    4    4    0    0  0.39385787670E+02 -0.63798839147E+02 -0.30138302308E+02  0.14892064166E+03  0.12509000000E+03 0.  0.
<mgrwt>
<rscale>  2 0.46321309E+03</rscale>
<asrwt>0</asrwt>
<pdfrwt beam="1">  1       21 0.17130959E-01 0.46321309E+03</pdfrwt>
<pdfrwt beam="2">  1       21 0.67717694E-01 0.46321309E+03</pdfrwt>
<totfact> 0.56368096E+04</totfact>
</mgrwt>
</event>
<event>
 7    0  0.4750554E-002  0.4576483E+03  0.7546771E-02  0.1025466E+00
         21   -1    0    0  502  501  0.00000000000E+00  0.00000000000E+00  0.13347181028E+04  0.13347181028E+04  0.00000000000E+00 0. -1.
         21   -1    0    0  501  502 -0.00000000000E+00 -0.00000000000E+00 -0.39229617293E+02  0.39229617293E+02  0.00000000000E+00 0. -1.
      99926    2    1    2    0    0  0.35527136788E-14  0.00000000000E+00  0.12954884855E+04  0.13739477201E+04  0.45764825081E+03 0.  0.
      99925    2    3    3    0    0 -0.22301127214E+02 -0.10219066918E+03  0.96159013087E+03  0.10023620739E+04  0.26293321249E+03 0.  0.
         25    1    4    4    0    0 -0.47929496836E+02 -0.54132039874E+02  0.55469470264E+03  0.57320261309E+03  0.12509000000E+03 0.  0.
         25    1    3    3    0    0  0.22301127214E+02  0.10219066918E+03  0.33389835468E+03  0.37158564625E+03  0.12509000000E+03 0.  0.
         25    1    4    4    0    0  0.25628369622E+02 -0.48058629305E+02  0.40689542823E+03  0.42915946080E+03  0.12509000000E+03 0.  0.
<mgrwt>
<rscale>  2 0.45764825E+03</rscale>
<asrwt>0</asrwt>
<pdfrwt beam="1">  1       21 0.19628204E+00 0.45764825E+03</pdfrwt>
<pdfrwt beam="2">  1       21 0.57690622E-02 0.45764825E+03</pdfrwt>
<totfact> 0.26485262E+04</totfact>
</mgrwt>
</event>
<event>
 7    0  0.4750554E-002  0.4546716E+03  0.7546771E-02  0.1026338E+00
         21   -1    0    0  502  501  0.00000000000E+00  0.00000000000E+00  0.19547272879E+03  0.19547272879E+03  0.00000000000E+00 0. -1.
         21   -1    0    0  501  502 -0.00000000000E+00 -0.00000000000E+00 -0.26439275161E+03  0.26439275161E+03  0.00000000000E+00 0. -1.
      99926    2    1    2    0    0  0.00000000000E+00  0.00000000000E+00 -0.68920022817E+02  0.45986548040E+03  0.45467162934E+03 0.  0.
      99925    2    3    3    0    0  0.10185169597E+02  0.58464902969E+02  0.53848035157E+02  0.27482119728E+03  0.26287867358E+03 0.  0.
         25    1    4    4    0    0  0.95021152839E+01  0.17666407606E+02 -0.12789326391E+02  0.12733211348E+03  0.12509000000E+03 0.  0.
         25    1    3    3    0    0 -0.10185169597E+02 -0.58464902969E+02 -0.12276805797E+03  0.18504428313E+03  0.12509000000E+03 0.  0.
         25    1    4    4    0    0  0.68305431273E+00  0.40798495363E+02  0.66637361548E+02  0.14748908380E+03  0.12509000000E+03 0.  0.
<mgrwt>
<rscale>  2 0.45467163E+03</rscale>
<asrwt>0</asrwt>
<pdfrwt beam="1">  1       21 0.28745989E-01 0.45467163E+03</pdfrwt>
<pdfrwt beam="2">  1       21 0.38881287E-01 0.45467163E+03</pdfrwt>
<totfact> 0.68369228E+04</totfact>
</mgrwt>
</event>
<event>
 7    0  0.4750554E-002  0.4532062E+03  0.7546771E-02  0.1026770E+00
         21   -1    0    0  502  501  0.00000000000E+00  0.00000000000E+00  0.18580784702E+03  0.18580784702E+03  0.00000000000E+00 0. -1.
         21   -1    0    0  501  502 -0.00000000000E+00 -0.00000000000E+00 -0.27635516828E+03  0.27635516828E+03  0.00000000000E+00 0. -1.
      99926    2    1    2    0    0  0.00000000000E+00  0.00000000000E+00 -0.90547321260E+02  0.46216301529E+03  0.45320617308E+03 0.  0.
      99925    2    3    3    0    0  0.56390550599E+02  0.93660258790E+02 -0.79368521888E+02  0.29565592256E+03  0.26298464595E+03 0.  0.
         25    1    3    3    0    0 -0.56390550599E+02 -0.93660258790E+02 -0.11178799372E+02  0.16650709273E+03  0.12509000000E+03 0.  0.
         25    1    4    4    0    0  0.53086414773E+01  0.14149528929E+02 -0.17921289426E+02  0.12726771609E+03  0.12509000000E+03 0.  0.
         25    1    4    4    0    0  0.51081909122E+02  0.79510729861E+02 -0.61447232462E+02  0.16838820647E+03  0.12509000000E+03 0.  0.
<mgrwt>
<rscale>  2 0.45320617E+03</rscale>
<asrwt>0</asrwt>
<pdfrwt beam="1">  1       21 0.27324684E-01 0.45320617E+03</pdfrwt>
<pdfrwt beam="2">  1       21 0.40640466E-01 0.45320617E+03</pdfrwt>
<totfact> 0.69000018E+04</totfact>
</mgrwt>
</event>
<event>
 7    0  0.4750554E-002  0.4507018E+03  0.7546771E-02  0.1027513E+00
         21   -1    0    0  502  501  0.00000000000E+00  0.00000000000E+00  0.34077057902E+03  0.34077057902E+03  0.00000000000E+00 0. -1.
         21   -1    0    0  501  502 -0.00000000000E+00 -0.00000000000E+00 -0.14902412007E+03  0.14902412007E+03  0.00000000000E+00 0. -1.
      99926    2    1    2    0    0  0.00000000000E+00  0.00000000000E+00  0.19174645895E+03  0.48979469909E+03  0.45070183352E+03 0.  0.
      99925    2    3    3    0    0 -0.65387269595E+02  0.85879591950E+02  0.10413787379E+03  0.30278247588E+03  0.26302420345E+03 0.  0.
         25    1    4    4    0    0 -0.73658014599E+02  0.39461945421E+02  0.49518097373E+02  0.15837391931E+03  0.12509000000E+03 0.  0.
         25    1    3    3    0    0  0.65387269595E+02 -0.85879591950E+02  0.87608585152E+02  0.18701222321E+03  0.12509000000E+03 0.  0.
         25    1    4    4    0    0  0.82707450045E+01  0.46417646529E+02  0.54619776421E+02  0.14440855656E+03  0.12509000000E+03 0.  0.
<mgrwt>
<rscale>  2 0.45070183E+03</rscale>
<asrwt>0</asrwt>
<pdfrwt beam="1">  1       21 0.50113320E-01 0.45070183E+03</pdfrwt>
<pdfrwt beam="2">  1       21 0.21915312E-01 0.45070183E+03</pdfrwt>
<totfact> 0.68294474E+04</totfact>
</mgrwt>
</event>
<event>
 7    0  0.4750554E-002  0.4275582E+03  0.7546771E-02  0.1034634E+00
         21   -1    0    0  502  501  0.00000000000E+00  0.00000000000E+00  0.15095576380E+03  0.15095576380E+03  0.00000000000E+00 0.  1.
         21   -1    0    0  501  502 -0.00000000000E+00 -0.00000000000E+00 -0.30274763286E+03  0.30274763286E+03  0.00000000000E+00 0.  1.
      99926    2    1    2    0    0  0.71054273576E-14  0.71054273576E-14 -0.15179186906E+03  0.45370339665E+03  0.42755818390E+03 0.  0.
      99925    2    3    3    0    0  0.59176217538E+02  0.47093416995E+02 -0.57202776163E+02  0.27959360588E+03  0.26302245570E+03 0.  0.
         25    1    3    3    0    0 -0.59176217538E+02 -0.47093416995E+02 -0.94589092900E+02  0.17410979077E+03  0.12509000000E+03 0.  0.
         25    1    4    4    0    0  0.55051773695E+02 -0.66462151627E+01 -0.19094682697E+02  0.13815565486E+03  0.12509000000E+03 0.  0.
         25    1    4    4    0    0  0.41244438428E+01  0.53739632157E+02 -0.38108093466E+02  0.14143795102E+03  0.12509000000E+03 0.  0.
<mgrwt>
<rscale>  2 0.42755818E+03</rscale>
<asrwt>0</asrwt>
<pdfrwt beam="1">  1       21 0.22199377E-01 0.42755818E+03</pdfrwt>
<pdfrwt beam="2">  1       21 0.44521710E-01 0.42755818E+03</pdfrwt>
<totfact> 0.85902110E+04</totfact>
</mgrwt>
</event>
<event>
 7    0  0.4750554E-002  0.4603630E+03  0.7546771E-02  0.1024676E+00
         21   -1    0    0  502  501  0.00000000000E+00  0.00000000000E+00  0.77677204421E+02  0.77677204421E+02  0.00000000000E+00 0. -1.
         21   -1    0    0  501  502 -0.00000000000E+00 -0.00000000000E+00 -0.68209874837E+03  0.68209874837E+03  0.00000000000E+00 0. -1.
      99926    2    1    2    0    0  0.00000000000E+00 -0.14210854715E-13 -0.60442154395E+03  0.75977595280E+03  0.46036300422E+03 0.  0.
      99925    2    3    3    0    0  0.33194763700E+02 -0.10797221202E+03 -0.32110456234E+03  0.43011565631E+03  0.26292859667E+03 0.  0.
         25    1    3    3    0    0 -0.33194763700E+02  0.10797221202E+03 -0.28331698162E+03  0.32966029648E+03  0.12509000000E+03 0.  0.
         25    1    4    4    0    0  0.23060012522E+02 -0.25229858936E+02 -0.19351817059E+03  0.23294870768E+03  0.12509000000E+03 0.  0.
         25    1    4    4    0    0  0.10134751178E+02 -0.82742353084E+02 -0.12758639175E+03  0.19716694863E+03  0.12509000000E+03 0.  0.
<mgrwt>
<rscale>  2 0.46036300E+03</rscale>
<asrwt>0</asrwt>
<pdfrwt beam="1">  1       21 0.11423119E-01 0.46036300E+03</pdfrwt>
<pdfrwt beam="2">  1       21 0.10030863E+00 0.46036300E+03</pdfrwt>
<totfact> 0.47729769E+04</totfact>
</mgrwt>
</event>
<event>
 7    0  0.4750554E-002  0.4651690E+03  0.7546771E-02  0.1023293E+00
         21   -1    0    0  502  501  0.00000000000E+00  0.00000000000E+00  0.20827500057E+03  0.20827500057E+03  0.00000000000E+00 0. -1.
         21   -1    0    0  501  502 -0.00000000000E+00 -0.00000000000E+00 -0.25973133403E+03  0.25973133403E+03  0.00000000000E+00 0. -1.
      99926    2    1    2    0    0  0.00000000000E+00  0.00000000000E+00 -0.51456333456E+02  0.46800633460E+03  0.46516897464E+03 0.  0.
      99925    2    3    3    0    0  0.33758086588E+02 -0.58366359362E+02 -0.13486530767E+03  0.30323132012E+03  0.26308618736E+03 0.  0.
         25    1    3    3    0    0 -0.33758086588E+02  0.58366359362E+02  0.83408974210E+02  0.16477501447E+03  0.12509000000E+03 0.  0.
         25    1    4    4    0    0  0.49641757382E+02 -0.53182272461E+01 -0.71124567937E+02  0.15231152248E+03  0.12509000000E+03 0.  0.
         25    1    4    4    0    0 -0.15883670794E+02 -0.53048132115E+02 -0.63740739730E+02  0.15091979764E+03  0.12509000000E+03 0.  0.
<mgrwt>
<rscale>  2 0.46516897E+03</rscale>
<asrwt>0</asrwt>
<pdfrwt beam="1">  1       21 0.30628677E-01 0.46516897E+03</pdfrwt>
<pdfrwt beam="2">  1       21 0.38195784E-01 0.46516897E+03</pdfrwt>
<totfact> 0.62385916E+04</totfact>
</mgrwt>
</event>
<event>
 7    0  0.4750554E-002  0.4582038E+03  0.7546771E-02  0.1025303E+00
         21   -1    0    0  502  501  0.00000000000E+00  0.00000000000E+00  0.86854185994E+02  0.86854185994E+02  0.00000000000E+00 0. -1.
         21   -1    0    0  501  502 -0.00000000000E+00 -0.00000000000E+00 -0.60431941952E+03  0.60431941952E+03  0.00000000000E+00 0. -1.
      99926    2    1    2    0    0  0.00000000000E+00  0.14210854715E-13 -0.51746523352E+03  0.69117360551E+03  0.45820375931E+03 0.  0.
      99925    2    3    3    0    0 -0.31742903854E+02 -0.11156780757E+03 -0.31622736350E+03  0.42735704792E+03  0.26301960639E+03 0.  0.
         25    1    3    3    0    0  0.31742903854E+02  0.11156780757E+03 -0.20123787002E+03  0.26381655759E+03  0.12509000000E+03 0.  0.
         25    1    4    4    0    0 -0.50703671926E+02 -0.78028425001E+02 -0.18632945918E+03  0.24295158554E+03  0.12509000000E+03 0.  0.
         25    1    4    4    0    0  0.18960768072E+02 -0.33539382569E+02 -0.12989790432E+03  0.18440546238E+03  0.12509000000E+03 0.  0.
<mgrwt>
<rscale>  2 0.45820376E+03</rscale>
<asrwt>0</asrwt>
<pdfrwt beam="1">  1       21 0.12772674E-01 0.45820376E+03</pdfrwt>
<pdfrwt beam="2">  1       21 0.88870503E-01 0.45820376E+03</pdfrwt>
<totfact> 0.52059498E+04</totfact>
</mgrwt>
</event>
<event>
 7    0  0.4750554E-002  0.4593963E+03  0.7546771E-02  0.1024956E+00
         21   -1    0    0  502  501  0.00000000000E+00  0.00000000000E+00  0.56128385099E+02  0.56128385099E+02  0.00000000000E+00 0. -1.
         21   -1    0    0  501  502 -0.00000000000E+00 -0.00000000000E+00 -0.94000981774E+03  0.94000981774E+03  0.00000000000E+00 0. -1.
      99926    2    1    2    0    0  0.71054273576E-14  0.17763568394E-14 -0.88388143264E+03  0.99613820284E+03  0.45939626924E+03 0.  0.
      99925    2    3    3    0    0 -0.50915093635E+02  0.10916416181E+02 -0.32624319170E+03  0.42227460340E+03  0.26300134152E+03 0.  0.
         25    1    3    3    0    0  0.50915093635E+02 -0.10916416181E+02 -0.55763824094E+03  0.57386359944E+03  0.12509000000E+03 0.  0.
         25    1    4    4    0    0 -0.73821394949E+00  0.35459534889E+02 -0.17791730170E+03  0.22036333161E+03  0.12509000000E+03 0.  0.
         25    1    4    4    0    0 -0.50176879685E+02 -0.24543118708E+02 -0.14832589000E+03  0.20191127179E+03  0.12509000000E+03 0.  0.
<mgrwt>
<rscale>  2 0.45939627E+03</rscale>
<asrwt>0</asrwt>
<pdfrwt beam="1">  1       21 0.82541743E-02 0.45939627E+03</pdfrwt>
<pdfrwt beam="2">  1       21 0.13823674E+00 0.45939627E+03</pdfrwt>
<totfact> 0.37995845E+04</totfact>
</mgrwt>
</event>
<event>
 7    0  0.4750554E-002  0.4036269E+03  0.7546771E-02  0.1042531E+00
         21   -1    0    0  502  501  0.00000000000E+00  0.00000000000E+00  0.79408475571E+02  0.79408475571E+02  0.00000000000E+00 0.  1.
         21   -1    0    0  501  502 -0.00000000000E+00 -0.00000000000E+00 -0.51290078944E+03  0.51290078944E+03  0.00000000000E+00 0.  1.
      99926    2    1    2    0    0  0.71054273576E-14  0.13322676296E-14 -0.43349231387E+03  0.59230926501E+03  0.40362690598E+03 0.  0.
      99925    2    3    3    0    0  0.50777651574E+02 -0.26110474469E+01 -0.27152677770E+03  0.38144075035E+03  0.26303054490E+03 0.  0.
         25    1    4    4    0    0 -0.10101666857E+01 -0.18421533607E+02 -0.16805216925E+03  0.21030790054E+03  0.12509000000E+03 0.  0.
         25    1    3    3    0    0 -0.50777651574E+02  0.26110474469E+01 -0.16196553617E+03  0.21086851466E+03  0.12509000000E+03 0.  0.
         25    1    4    4    0    0  0.51787818260E+02  0.15810486160E+02 -0.10347460844E+03  0.17113284981E+03  0.12509000000E+03 0.  0.
<mgrwt>
<rscale>  2 0.40362691E+03</rscale>
<asrwt>0</asrwt>
<pdfrwt beam="1">  1       21 0.11677717E-01 0.40362691E+03</pdfrwt>
<pdfrwt beam="2">  1       21 0.75426588E-01 0.40362691E+03</pdfrwt>
<totfact> 0.90745321E+04</totfact>
</mgrwt>
</event>
<event>
 7    0  0.4750554E-002  0.4517204E+03  0.7546771E-02  0.1027210E+00
         21   -1    0    0  502  501  0.00000000000E+00  0.00000000000E+00  0.17386871472E+02  0.17386871472E+02  0.00000000000E+00 0. -1.
         21   -1    0    0  501  502 -0.00000000000E+00 -0.00000000000E+00 -0.29339853612E+04  0.29339853612E+04  0.00000000000E+00 0. -1.
      99926    2    1    2    0    0 -0.14210854715E-13  0.35527136788E-14 -0.29165984897E+04  0.29513722326E+04  0.45172038420E+03 0.  0.
      99925    2    3    3    0    0 -0.87978282259E+02 -0.25225171917E+02 -0.14410019665E+04  0.14676576055E+04  0.26297469850E+03 0.  0.
         25    1    4    4    0    0 -0.36581873564E+02  0.21760167533E+02 -0.58236477470E+03  0.59716662438E+03  0.12509000000E+03 0.  0.
         25    1    4    4    0    0 -0.51396408695E+02 -0.46985339450E+02 -0.85863719184E+03  0.87049098115E+03  0.12509000000E+03 0.  0.
         25    1    3    3    0    0  0.87978282259E+02  0.25225171917E+02 -0.14755965232E+04  0.14837146271E+04  0.12509000000E+03 0.  0.
<mgrwt>
<rscale>  2 0.45172038E+03</rscale>
<asrwt>0</asrwt>
<pdfrwt beam="1">  1       21 0.25568917E-02 0.45172038E+03</pdfrwt>
<pdfrwt beam="2">  1       21 0.43146863E+00 0.45172038E+03</pdfrwt>
<totfact> 0.36187012E+03</totfact>
</mgrwt>
</event>
<event>
 7    0  0.4750554E-002  0.4491677E+03  0.7546771E-02  0.1027971E+00
         21   -1    0    0  502  501  0.00000000000E+00  0.00000000000E+00  0.86325991094E+02  0.86325991094E+02  0.00000000000E+00 0.  1.
         21   -1    0    0  501  502 -0.00000000000E+00 -0.00000000000E+00 -0.58427242842E+03  0.58427242842E+03  0.00000000000E+00 0.  1.
      99926    2    1    2    0    0  0.00000000000E+00 -0.71054273576E-14 -0.49794643733E+03  0.67059841952E+03  0.44916765891E+03 0.  0.
      99925    2    3    3    0    0 -0.71732796193E+02  0.36653898028E+02 -0.42181537602E+03  0.50346808449E+03  0.26279801819E+03 0.  0.
         25    1    4    4    0    0 -0.24991875759E+02 -0.15267866646E+02 -0.16192206910E+03  0.20669776527E+03  0.12509000000E+03 0.  0.
         25    1    4    4    0    0 -0.46740920433E+02  0.51921764674E+02 -0.25989330691E+03  0.29677031922E+03  0.12509000000E+03 0.  0.
         25    1    3    3    0    0  0.71732796193E+02 -0.36653898028E+02 -0.76131061313E+02  0.16713033503E+03  0.12509000000E+03 0.  0.
<mgrwt>
<rscale>  2 0.44916766E+03</rscale>
<asrwt>0</asrwt>
<pdfrwt beam="1">  1       21 0.12694998E-01 0.44916766E+03</pdfrwt>
<pdfrwt beam="2">  1       21 0.85922418E-01 0.44916766E+03</pdfrwt>
<totfact> 0.57107994E+04</totfact>
</mgrwt>
</event>
<event>
 7    0  0.4750554E-002  0.4549711E+03  0.7546771E-02  0.1026250E+00
         21   -1    0    0  502  501  0.00000000000E+00  0.00000000000E+00  0.36977458313E+03  0.36977458313E+03  0.00000000000E+00 0. -1.
         21   -1    0    0  501  502 -0.00000000000E+00 -0.00000000000E+00 -0.13994924089E+03  0.13994924089E+03  0.00000000000E+00 0. -1.
      99926    2    1    2    0    0  0.71054273576E-14  0.00000000000E+00  0.22982534224E+03  0.50972382402E+03  0.45497108572E+03 0.  0.
      99925    2    3    3    0    0 -0.45254312619E+02 -0.41848518801E+02  0.38335241076E+02  0.27283731474E+03  0.26300448337E+03 0.  0.
         25    1    3    3    0    0  0.45254312619E+02  0.41848518801E+02  0.19149010116E+03  0.23688650928E+03  0.12509000000E+03 0.  0.
         25    1    4    4    0    0 -0.11243853206E+02 -0.54127292768E+02 -0.11653918792E+01  0.13676642240E+03  0.12509000000E+03 0.  0.
         25    1    4    4    0    0 -0.34010459413E+02  0.12278773967E+02  0.39500632956E+02  0.13607089234E+03  0.12509000000E+03 0.  0.
<mgrwt>
<rscale>  2 0.45497109E+03</rscale>
<asrwt>0</asrwt>
<pdfrwt beam="1">  1       21 0.54378615E-01 0.45497109E+03</pdfrwt>
<pdfrwt beam="2">  1       21 0.20580771E-01 0.45497109E+03</pdfrwt>
<totfact> 0.64607614E+04</totfact>
</mgrwt>
</event>
<event>
 7    0  0.4750554E-002  0.4608380E+03  0.7546771E-02  0.1024538E+00
         21   -1    0    0  502  501  0.00000000000E+00  0.00000000000E+00  0.24137443948E+03  0.24137443948E+03  0.00000000000E+00 0. -1.
         21   -1    0    0  501  502 -0.00000000000E+00 -0.00000000000E+00 -0.21996078205E+03  0.21996078205E+03  0.00000000000E+00 0. -1.
      99926    2    1    2    0    0 -0.71054273576E-14 -0.14210854715E-13  0.21413657433E+02  0.46133522154E+03  0.46083797793E+03 0.  0.
      99925    2    3    3    0    0  0.62019150912E+02  0.66611423774E+02 -0.62359461224E+02  0.28541222598E+03  0.26322609953E+03 0.  0.
         25    1    4    4    0    0  0.20251523883E+02  0.68152939056E+02 -0.12541322874E+02  0.14442901440E+03  0.12509000000E+03 0.  0.
         25    1    3    3    0    0 -0.62019150912E+02 -0.66611423774E+02  0.83773118658E+02  0.17592299556E+03  0.12509000000E+03 0.  0.
         25    1    4    4    0    0  0.41767627029E+02 -0.15415152828E+01 -0.49818138350E+02  0.14098321157E+03  0.12509000000E+03 0.  0.
<mgrwt>
<rscale>  2 0.46083798E+03</rscale>
<asrwt>0</asrwt>
<pdfrwt beam="1">  1       21 0.35496241E-01 0.46083798E+03</pdfrwt>
<pdfrwt beam="2">  1       21 0.32347174E-01 0.46083798E+03</pdfrwt>
<totfact> 0.65003118E+04</totfact>
</mgrwt>
</event>
<event>
 7    0  0.4750554E-002  0.4526233E+03  0.7546771E-02  0.1026943E+00
         21   -1    0    0  502  501  0.00000000000E+00  0.00000000000E+00  0.67192472532E+03  0.67192472532E+03  0.00000000000E+00 0. -1.
         21   -1    0    0  501  502 -0.00000000000E+00 -0.00000000000E+00 -0.76224256672E+02  0.76224256672E+02  0.00000000000E+00 0. -1.
      99926    2    1    2    0    0  0.00000000000E+00  0.00000000000E+00  0.59570046865E+03  0.74814898200E+03  0.45262329912E+03 0.  0.
      99925    2    3    3    0    0 -0.76295411593E+02  0.20967896343E+02  0.24711891438E+03  0.36944428096E+03  0.26298417516E+03 0.  0.
         25    1    4    4    0    0 -0.78369557411E+02  0.20041841671E+01  0.14377415283E+03  0.20606872495E+03  0.12509000000E+03 0.  0.
         25    1    3    3    0    0  0.76295411593E+02 -0.20967896343E+02  0.34858155427E+03  0.37870470103E+03  0.12509000000E+03 0.  0.
         25    1    4    4    0    0  0.20741458182E+01  0.18963712176E+02  0.10334476156E+03  0.16337555601E+03  0.12509000000E+03 0.  0.
<mgrwt>
<rscale>  2 0.45262330E+03</rscale>
<asrwt>0</asrwt>
<pdfrwt beam="1">  1       21 0.98812456E-01 0.45262330E+03</pdfrwt>
<pdfrwt beam="2">  1       21 0.11209450E-01 0.45262330E+03</pdfrwt>
<totfact> 0.51317446E+04</totfact>
</mgrwt>
</event>
<event>
 7    0  0.4750554E-002  0.4495624E+03  0.7546771E-02  0.1027853E+00
         21   -1    0    0  502  501  0.00000000000E+00  0.00000000000E+00  0.84416038571E+02  0.84416038571E+02  0.00000000000E+00 0.  1.
         21   -1    0    0  501  502 -0.00000000000E+00 -0.00000000000E+00 -0.59854259849E+03  0.59854259849E+03  0.00000000000E+00 0.  1.
      99926    2    1    2    0    0  0.00000000000E+00  0.00000000000E+00 -0.51412655992E+03  0.68295863706E+03  0.44956243206E+03 0.  0.
      99925    2    3    3    0    0 -0.22643272996E+02  0.99424964714E+02 -0.27138577067E+03  0.39146482874E+03  0.26305215111E+03 0.  0.
         25    1    4    4    0    0  0.38701467306E+01  0.89450346222E+02 -0.14483723932E+03  0.21128576968E+03  0.12509000000E+03 0.  0.
         25    1    3    3    0    0  0.22643272996E+02 -0.99424964714E+02 -0.24274078926E+03  0.29149380832E+03  0.12509000000E+03 0.  0.
         25    1    4    4    0    0 -0.26513419726E+02  0.99746184923E+01 -0.12654853135E+03  0.18017905906E+03  0.12509000000E+03 0.  0.
<mgrwt>
<rscale>  2 0.44956243E+03</rscale>
<asrwt>0</asrwt>
<pdfrwt beam="1">  1       21 0.12414123E-01 0.44956243E+03</pdfrwt>
<pdfrwt beam="2">  1       21 0.88020971E-01 0.44956243E+03</pdfrwt>
<totfact> 0.56206223E+04</totfact>
</mgrwt>
</event>
<event>
 7    0  0.4750554E-002  0.4548299E+03  0.7546771E-02  0.1026291E+00
         21   -1    0    0  502  501  0.00000000000E+00  0.00000000000E+00  0.10258856866E+03  0.10258856866E+03  0.00000000000E+00 0. -1.
         21   -1    0    0  501  502 -0.00000000000E+00 -0.00000000000E+00 -0.50412597901E+03  0.50412597901E+03  0.00000000000E+00 0. -1.
      99926    2    1    2    0    0 -0.14210854715E-13  0.71054273576E-14 -0.40153741035E+03  0.60671454767E+03  0.45482991374E+03 0.  0.
      99925    2    3    3    0    0  0.82468438434E+02 -0.60061162920E+02 -0.31722580095E+03  0.42460375115E+03  0.26314967237E+03 0.  0.
         25    1    4    4    0    0  0.57879388450E+02 -0.62071392085E+02 -0.20529029236E+03  0.25494017644E+03  0.12509000000E+03 0.  0.
         25    1    3    3    0    0 -0.82468438434E+02  0.60061162920E+02 -0.84311609399E+02  0.18211079652E+03  0.12509000000E+03 0.  0.
         25    1    4    4    0    0  0.24589049984E+02  0.20102291656E+01 -0.11193550859E+03  0.16966357471E+03  0.12509000000E+03 0.  0.
<mgrwt>
<rscale>  2 0.45482991E+03</rscale>
<asrwt>0</asrwt>
<pdfrwt beam="1">  1       21 0.15086554E-01 0.45482991E+03</pdfrwt>
<pdfrwt beam="2">  1       21 0.74136173E-01 0.45482991E+03</pdfrwt>
<totfact> 0.58345218E+04</totfact>
</mgrwt>
</event>
<event>
 7    0  0.4750554E-002  0.4670112E+03  0.7546771E-02  0.1022767E+00
         21   -1    0    0  502  501  0.00000000000E+00  0.00000000000E+00  0.52986682834E+03  0.52986682834E+03  0.00000000000E+00 0. -1.
         21   -1    0    0  501  502 -0.00000000000E+00 -0.00000000000E+00 -0.10290296083E+03  0.10290296083E+03  0.00000000000E+00 0. -1.
      99926    2    1    2    0    0  0.00000000000E+00  0.00000000000E+00  0.42696386751E+03  0.63276978917E+03  0.46701120108E+03 0.  0.
      99925    2    3    3    0    0  0.44314532733E+02  0.71780618660E+02  0.38918011031E+03  0.47723408448E+03  0.26301136497E+03 0.  0.
         25    1    3    3    0    0 -0.44314532733E+02 -0.71780618660E+02  0.37783757202E+02  0.15553570469E+03  0.12509000000E+03 0.  0.
         25    1    4    4    0    0  0.45732293997E+02  0.26242719528E+02  0.25099746771E+03  0.28535479659E+03  0.12509000000E+03 0.  0.
         25    1    4    4    0    0 -0.14177612642E+01  0.45537899133E+02  0.13818264260E+03  0.19187928789E+03  0.12509000000E+03 0.  0.
<mgrwt>
<rscale>  2 0.46701120E+03</rscale>
<asrwt>0</asrwt>
<pdfrwt beam="1">  1       21 0.77921591E-01 0.46701120E+03</pdfrwt>
<pdfrwt beam="2">  1       21 0.15132789E-01 0.46701120E+03</pdfrwt>
<totfact> 0.51632603E+04</totfact>
</mgrwt>
</event>
<event>
 7    0  0.4750554E-002  0.4530716E+03  0.7546771E-02  0.1026810E+00
         21   -1    0    0  502  501  0.00000000000E+00  0.00000000000E+00  0.77108654530E+03  0.77108654530E+03  0.00000000000E+00 0.  1.
         21   -1    0    0  501  502 -0.00000000000E+00 -0.00000000000E+00 -0.66553448790E+02  0.66553448790E+02  0.00000000000E+00 0.  1.
      99926    2    1    2    0    0  0.14210854715E-13  0.00000000000E+00  0.70453309651E+03  0.83763999409E+03  0.45307160098E+03 0.  0.
      99925    2    3    3    0    0  0.10934659761E+03 -0.12573400985E+02  0.41036469352E+03  0.49956111832E+03  0.26276864430E+03 0.  0.
         25    1    3    3    0    0 -0.10934659761E+03  0.12573400985E+02  0.29416840299E+03  0.33807887576E+03  0.12509000000E+03 0.  0.
         25    1    4    4    0    0  0.78796619122E+02 -0.20401827437E+02  0.27291543331E+03  0.31105543491E+03  0.12509000000E+03 0.  0.
         25    1    4    4    0    0  0.30549978490E+02  0.78284264521E+01  0.13744926021E+03  0.18850568341E+03  0.12509000000E+03 0.  0.
<mgrwt>
<rscale>  2 0.45307160E+03</rscale>
<asrwt>0</asrwt>
<pdfrwt beam="1">  1       21 0.11339508E+00 0.45307160E+03</pdfrwt>
<pdfrwt beam="2">  1       21 0.97872723E-02 0.45307160E+03</pdfrwt>
<totfact> 0.46699987E+04</totfact>
</mgrwt>
</event>
<event>
 7    0  0.4750554E-002  0.4568375E+03  0.7546771E-02  0.1025702E+00
         21   -1    0    0  502  501  0.00000000000E+00  0.00000000000E+00  0.23517440471E+03  0.23517440471E+03  0.00000000000E+00 0.  1.
         21   -1    0    0  501  502 -0.00000000000E+00 -0.00000000000E+00 -0.22185714268E+03  0.22185714268E+03  0.00000000000E+00 0.  1.
      99926    2    1    2    0    0  0.14210854715E-13  0.00000000000E+00  0.13317262036E+02  0.45703154739E+03  0.45683748297E+03 0.  0.
      99925    2    3    3    0    0 -0.11075370260E+03 -0.16497402700E+02  0.33877425445E+02  0.28789025925E+03  0.26304861619E+03 0.  0.
         25    1    4    4    0    0 -0.18250422319E+02 -0.25942750529E+02  0.35164168176E+01  0.12909677574E+03  0.12509000000E+03 0.  0.
         25    1    3    3    0    0  0.11075370260E+03  0.16497402700E+02 -0.20560163410E+02  0.16914128814E+03  0.12509000000E+03 0.  0.
         25    1    4    4    0    0 -0.92503280282E+02  0.94453478289E+01  0.30361008628E+02  0.15879348350E+03  0.12509000000E+03 0.  0.
<mgrwt>
<rscale>  2 0.45683748E+03</rscale>
<asrwt>0</asrwt>
<pdfrwt beam="1">  1       21 0.34584472E-01 0.45683748E+03</pdfrwt>
<pdfrwt beam="2">  1       21 0.32626050E-01 0.45683748E+03</pdfrwt>
<totfact> 0.67403581E+04</totfact>
</mgrwt>
</event>
<event>
 7    0  0.4750554E-002  0.4491478E+03  0.7546771E-02  0.1027976E+00
         21   -1    0    0  502  501  0.00000000000E+00  0.00000000000E+00  0.26370753718E+03  0.26370753718E+03  0.00000000000E+00 0. -1.
         21   -1    0    0  501  502 -0.00000000000E+00 -0.00000000000E+00 -0.19124757742E+03  0.19124757742E+03  0.00000000000E+00 0. -1.
      99926    2    1    2    0    0  0.00000000000E+00 -0.71054273576E-14  0.72459959762E+02  0.45495511460E+03  0.44914776024E+03 0.  0.
      99925    2    3    3    0    0  0.91433413253E+02  0.36801876289E+02  0.20755435613E+01  0.28084043601E+03  0.26296881081E+03 0.  0.
         25    1    3    3    0    0 -0.91433413253E+02 -0.36801876289E+02  0.70384416201E+02  0.17411467859E+03  0.12509000000E+03 0.  0.
         25    1    4    4    0    0  0.31551113505E+02  0.12416842442E+02  0.38857694367E+02  0.13530365572E+03  0.12509000000E+03 0.  0.
         25    1    4    4    0    0  0.59882299747E+02  0.24385033847E+02 -0.36782150805E+02  0.14553678029E+03  0.12509000000E+03 0.  0.
<mgrwt>
<rscale>  2 0.44914776E+03</rscale>
<asrwt>0</asrwt>
<pdfrwt beam="1">  1       21 0.38780520E-01 0.44914776E+03</pdfrwt>
<pdfrwt beam="2">  1       21 0.28124644E-01 0.44914776E+03</pdfrwt>
<totfact> 0.71844562E+04</totfact>
</mgrwt>
</event>
<event>
 7    0  0.4750554E-002  0.4675976E+03  0.7546771E-02  0.1022600E+00
         21   -1    0    0  502  501  0.00000000000E+00  0.00000000000E+00  0.23601995157E+03  0.23601995157E+03  0.00000000000E+00 0. -1.
         21   -1    0    0  501  502 -0.00000000000E+00 -0.00000000000E+00 -0.23159851261E+03  0.23159851261E+03  0.00000000000E+00 0. -1.
      99926    2    1    2    0    0  0.17763568394E-14  0.14210854715E-13  0.44214389682E+01  0.46761846418E+03  0.46759756086E+03 0.  0.
      99925    2    3    3    0    0 -0.14171197372E+02 -0.71625610106E+02 -0.97898570326E+02  0.29028278458E+03  0.26334181987E+03 0.  0.
         25    1    3    3    0    0  0.14171197372E+02  0.71625610106E+02  0.10232000929E+03  0.17733567960E+03  0.12509000000E+03 0.  0.
         25    1    4    4    0    0 -0.23452519929E+02 -0.53072340505E+02 -0.86940015845E+02  0.16301155932E+03  0.12509000000E+03 0.  0.
         25    1    4    4    0    0  0.92813225575E+01 -0.18553269601E+02 -0.10958554480E+02  0.12727122525E+03  0.12509000000E+03 0.  0.
<mgrwt>
<rscale>  2 0.46759756E+03</rscale>
<asrwt>0</asrwt>
<pdfrwt beam="1">  1       21 0.34708816E-01 0.46759756E+03</pdfrwt>
<pdfrwt beam="2">  1       21 0.34058605E-01 0.46759756E+03</pdfrwt>
<totfact> 0.61240121E+04</totfact>
</mgrwt>
</event>
<event>
 7    0  0.4750554E-002  0.4886647E+03  0.7546771E-02  0.1016781E+00
         21   -1    0    0  502  501  0.00000000000E+00  0.00000000000E+00  0.11830626569E+04  0.11830626569E+04  0.00000000000E+00 0.  1.
         21   -1    0    0  501  502 -0.00000000000E+00 -0.00000000000E+00 -0.50460814525E+02  0.50460814525E+02  0.00000000000E+00 0.  1.
      99926    2    1    2    0    0  0.00000000000E+00  0.00000000000E+00  0.11326018424E+04  0.12335234714E+04  0.48866473292E+03 0.  0.
      99925    2    3    3    0    0  0.44366147932E+02 -0.99278750265E+02  0.46172328068E+03  0.54247341681E+03  0.26318129624E+03 0.  0.
         25    1    4    4    0    0  0.40590970539E+02 -0.13310501308E+02  0.19536691097E+03  0.23588245873E+03  0.12509000000E+03 0.  0.
         25    1    4    4    0    0  0.37751773921E+01 -0.85968248957E+02  0.26635636972E+03  0.30659095809E+03  0.12509000000E+03 0.  0.
         25    1    3    3    0    0 -0.44366147932E+02  0.99278750265E+02  0.67087856168E+03  0.69105005459E+03  0.12509000000E+03 0.  0.
<mgrwt>
<rscale>  2 0.48866473E+03</rscale>
<asrwt>0</asrwt>
<pdfrwt beam="1">  1       21 0.17397978E+00 0.48866473E+03</pdfrwt>
<pdfrwt beam="2">  1       21 0.74207088E-02 0.48866473E+03</pdfrwt>
<totfact> 0.24134127E+04</totfact>
</mgrwt>
</event>
<event>
 7    0  0.4750554E-002  0.4548550E+03  0.7546771E-02  0.1026284E+00
         21   -1    0    0  502  501  0.00000000000E+00  0.00000000000E+00  0.47067833288E+03  0.47067833288E+03  0.00000000000E+00 0.  1.
         21   -1    0    0  501  502 -0.00000000000E+00 -0.00000000000E+00 -0.10989090770E+03  0.10989090770E+03  0.00000000000E+00 0.  1.
      99926    2    1    2    0    0 -0.14210854715E-13  0.00000000000E+00  0.36078742518E+03  0.58056924058E+03  0.45485500650E+03 0.  0.
      99925    2    3    3    0    0  0.10753945931E+03 -0.30957007096E+02  0.20669634433E+03  0.35272139465E+03  0.26299416702E+03 0.  0.
         25    1    4    4    0    0  0.35967021077E+02  0.11952185842E+02  0.64456902809E+02  0.14573497100E+03  0.12509000000E+03 0.  0.
         25    1    4    4    0    0  0.71572438233E+02 -0.42909192939E+02  0.14223944152E+03  0.20698642366E+03  0.12509000000E+03 0.  0.
         25    1    3    3    0    0 -0.10753945931E+03  0.30957007096E+02  0.15409108085E+03  0.22784784593E+03  0.12509000000E+03 0.  0.
<mgrwt>
<rscale>  2 0.45485501E+03</rscale>
<asrwt>0</asrwt>
<pdfrwt beam="1">  1       21 0.69217401E-01 0.45485501E+03</pdfrwt>
<pdfrwt beam="2">  1       21 0.16160428E-01 0.45485501E+03</pdfrwt>
<totfact> 0.59959208E+04</totfact>
</mgrwt>
</event>
<event>
 7    0  0.4750554E-002  0.4591180E+03  0.7546771E-02  0.1025037E+00
         21   -1    0    0  502  501  0.00000000000E+00  0.00000000000E+00  0.56230371772E+03  0.56230371772E+03  0.00000000000E+00 0.  1.
         21   -1    0    0  501  502 -0.00000000000E+00 -0.00000000000E+00 -0.93716848418E+02  0.93716848418E+02  0.00000000000E+00 0.  1.
      99926    2    1    2    0    0  0.17763568394E-14  0.17763568394E-14  0.46858686930E+03  0.65602056614E+03  0.45911799040E+03 0.  0.
      99925    2    3    3    0    0  0.12165448952E+02  0.14066785093E+02  0.12886314572E+03  0.29352147779E+03  0.26306515354E+03 0.  0.
         25    1    4    4    0    0 -0.11478928292E+02 -0.50173211272E+01  0.25137545664E+02  0.12820430417E+03  0.12509000000E+03 0.  0.
         25    1    3    3    0    0 -0.12165448952E+02 -0.14066785093E+02  0.33972372358E+03  0.36249908835E+03  0.12509000000E+03 0.  0.
         25    1    4    4    0    0  0.23644377243E+02  0.19084106221E+02  0.10372560006E+03  0.16531717362E+03  0.12509000000E+03 0.  0.
<mgrwt>
<rscale>  2 0.45911799E+03</rscale>
<asrwt>0</asrwt>
<pdfrwt beam="1">  1       21 0.82691721E-01 0.45911799E+03</pdfrwt>
<pdfrwt beam="2">  1       21 0.13781890E-01 0.45911799E+03</pdfrwt>
<totfact> 0.53593847E+04</totfact>
</mgrwt>
</event>
<event>
 7    0  0.4750554E-002  0.4804633E+03  0.7546771E-02  0.1019008E+00
         21   -1    0    0  502  501  0.00000000000E+00  0.00000000000E+00  0.31558402264E+02  0.31558402264E+02  0.00000000000E+00 0. -1.
         21   -1    0    0  501  502 -0.00000000000E+00 -0.00000000000E+00 -0.18287128105E+04  0.18287128105E+04  0.00000000000E+00 0. -1.
      99926    2    1    2    0    0  0.00000000000E+00  0.00000000000E+00 -0.17971544082E+04  0.18602712128E+04  0.48046333679E+03 0.  0.
      99925    2    3    3    0    0 -0.84400110344E+02 -0.97451116483E+02 -0.12709036578E+04  0.13042069546E+04  0.26294405182E+03 0.  0.
         25    1    4    4    0    0 -0.37696972251E+02 -0.90891800643E+02 -0.69572859168E+03  0.71370033103E+03  0.12509000000E+03 0.  0.
         25    1    3    3    0    0  0.84400110344E+02  0.97451116483E+02 -0.52625075044E+03  0.55606425813E+03  0.12509000000E+03 0.  0.
         25    1    4    4    0    0 -0.46703138092E+02 -0.65593158400E+01 -0.57517506610E+03  0.59050662359E+03  0.12509000000E+03 0.  0.
<mgrwt>
<rscale>  2 0.48046334E+03</rscale>
<asrwt>0</asrwt>
<pdfrwt beam="1">  1       21 0.46409420E-02 0.48046334E+03</pdfrwt>
<pdfrwt beam="2">  1       21 0.26892833E+00 0.48046334E+03</pdfrwt>
<totfact> 0.13298857E+04</totfact>
</mgrwt>
</event>
<event>
 7    0  0.4750554E-002  0.4514648E+03  0.7546771E-02  0.1027286E+00
         21   -1    0    0  502  501  0.00000000000E+00  0.00000000000E+00  0.21714183240E+03  0.21714183240E+03  0.00000000000E+00 0. -1.
         21   -1    0    0  501  502 -0.00000000000E+00 -0.00000000000E+00 -0.23466287868E+03  0.23466287868E+03  0.00000000000E+00 0. -1.
      99926    2    1    2    0    0 -0.71054273576E-14 -0.14210854715E-13 -0.17521046280E+02  0.45180471109E+03  0.45146484902E+03 0.  0.
      99925    2    3    3    0    0  0.49947099169E+02  0.97444220606E+02 -0.38151826036E+01  0.28499509612E+03  0.26309230386E+03 0.  0.
         25    1    4    4    0    0  0.33618511081E+02  0.81980649580E+01 -0.11348890724E+02  0.13028322216E+03  0.12509000000E+03 0.  0.
         25    1    4    4    0    0  0.16328588089E+02  0.89246155648E+02  0.75337081199E+01  0.15471187396E+03  0.12509000000E+03 0.  0.
         25    1    3    3    0    0 -0.49947099169E+02 -0.97444220606E+02 -0.13705863677E+02  0.16680961496E+03  0.12509000000E+03 0.  0.
<mgrwt>
<rscale>  2 0.45146485E+03</rscale>
<asrwt>0</asrwt>
<pdfrwt beam="1">  1       21 0.31932623E-01 0.45146485E+03</pdfrwt>
<pdfrwt beam="2">  1       21 0.34509247E-01 0.45146485E+03</pdfrwt>
<totfact> 0.70755337E+04</totfact>
</mgrwt>
</event>
<event>
 7    0  0.4750554E-002  0.4560315E+03  0.7546771E-02  0.1025939E+00
         21   -1    0    0  502  501  0.00000000000E+00  0.00000000000E+00  0.34546769186E+02  0.34546769186E+02  0.00000000000E+00 0.  1.
         21   -1    0    0  501  502 -0.00000000000E+00 -0.00000000000E+00 -0.15049503211E+04  0.15049503211E+04  0.00000000000E+00 0.  1.
      99926    2    1    2    0    0  0.00000000000E+00  0.00000000000E+00 -0.14704035520E+04  0.15394970903E+04  0.45603145234E+03 0.  0.
      99925    2    3    3    0    0 -0.10162819959E+03 -0.51947378430E+02 -0.93150279723E+03  0.97461803016E+03  0.26297532656E+03 0.  0.
         25    1    3    3    0    0  0.10162819959E+03  0.51947378430E+02 -0.53890075472E+03  0.56487906017E+03  0.12509000000E+03 0.  0.
         25    1    4    4    0    0 -0.48633261612E+02 -0.40329091777E+02 -0.60043344860E+03  0.61657072917E+03  0.12509000000E+03 0.  0.
         25    1    4    4    0    0 -0.52994937980E+02 -0.11618286653E+02 -0.33106934863E+03  0.35804730098E+03  0.12509000000E+03 0.  0.
<mgrwt>
<rscale>  2 0.45603145E+03</rscale>
<asrwt>0</asrwt>
<pdfrwt beam="1">  1       21 0.50804083E-02 0.45603145E+03</pdfrwt>
<pdfrwt beam="2">  1       21 0.22131618E+00 0.45603145E+03</pdfrwt>
<totfact> 0.22645570E+04</totfact>
</mgrwt>
</event>
<event>
 7    0  0.4750554E-002  0.4741629E+03  0.7546771E-02  0.1020752E+00
         21   -1    0    0  502  501  0.00000000000E+00  0.00000000000E+00  0.46825040986E+03  0.46825040986E+03  0.00000000000E+00 0. -1.
         21   -1    0    0  501  502 -0.00000000000E+00 -0.00000000000E+00 -0.12003751380E+03  0.12003751380E+03  0.00000000000E+00 0. -1.
      99926    2    1    2    0    0 -0.35527136788E-14 -0.14210854715E-13  0.34821289606E+03  0.58828792365E+03  0.47416290464E+03 0.  0.
      99925    2    3    3    0    0 -0.23211296717E+02 -0.11466888173E+03  0.28704677147E+03  0.40641841101E+03  0.26285425441E+03 0.  0.
         25    1    4    4    0    0 -0.49915519685E+01 -0.21365166007E+02  0.16056218058E+03  0.20471714106E+03  0.12509000000E+03 0.  0.
         25    1    3    3    0    0  0.23211296717E+02  0.11466888173E+03  0.61166124593E+02  0.18186951265E+03  0.12509000000E+03 0.  0.
         25    1    4    4    0    0 -0.18219744748E+02 -0.93303715725E+02  0.12648459089E+03  0.20170126995E+03  0.12509000000E+03 0.  0.
<mgrwt>
<rscale>  2 0.47416290E+03</rscale>
<asrwt>0</asrwt>
<pdfrwt beam="1">  1       21 0.68860354E-01 0.47416290E+03</pdfrwt>
<pdfrwt beam="2">  1       21 0.17652576E-01 0.47416290E+03</pdfrwt>
<totfact> 0.51197843E+04</totfact>
</mgrwt>
</event>
<event>
 7    0  0.4750554E-002  0.4561328E+03  0.7546771E-02  0.1025909E+00
         21   -1    0    0  502  501  0.00000000000E+00  0.00000000000E+00  0.15215733261E+03  0.15215733261E+03  0.00000000000E+00 0. -1.
         21   -1    0    0  501  502 -0.00000000000E+00 -0.00000000000E+00 -0.34184543764E+03  0.34184543764E+03  0.00000000000E+00 0. -1.
      99926    2    1    2    0    0 -0.71054273576E-14  0.00000000000E+00 -0.18968810504E+03  0.49400277025E+03  0.45613283134E+03 0.  0.
      99925    2    3    3    0    0 -0.50733136646E+02  0.77378749052E+02 -0.46504759466E+02  0.28255466667E+03  0.26289375239E+03 0.  0.
         25    1    3    3    0    0  0.50733136646E+02 -0.77378749052E+02 -0.14318334557E+03  0.21144810358E+03  0.12509000000E+03 0.  0.
         25    1    4    4    0    0 -0.49942063715E+02  0.35777619989E+02 -0.56429289782E+02  0.15035298689E+03  0.12509000000E+03 0.  0.
         25    1    4    4    0    0 -0.79107293115E+00  0.41601129064E+02  0.99245303159E+01  0.13220167978E+03  0.12509000000E+03 0.  0.
<mgrwt>
<rscale>  2 0.45613283E+03</rscale>
<asrwt>0</asrwt>
<pdfrwt beam="1">  1       21 0.22376079E-01 0.45613283E+03</pdfrwt>
<pdfrwt beam="2">  1       21 0.50271387E-01 0.45613283E+03</pdfrwt>
<totfact> 0.65106582E+04</totfact>
</mgrwt>
</event>
<event>
 7    0  0.4750554E-002  0.4601719E+03  0.7546771E-02  0.1024731E+00
         21   -1    0    0  502  501  0.00000000000E+00  0.00000000000E+00  0.11591135410E+04  0.11591135410E+04  0.00000000000E+00 0.  1.
         21   -1    0    0  501  502 -0.00000000000E+00 -0.00000000000E+00 -0.45672432245E+02  0.45672432245E+02  0.00000000000E+00 0.  1.
      99926    2    1    2    0    0  0.00000000000E+00  0.00000000000E+00  0.11134411088E+04  0.12047859733E+04  0.46017185775E+03 0.  0.
      99925    2    3    3    0    0  0.17404114402E+02 -0.67736916542E+02  0.94585927515E+03  0.98428116126E+03  0.26318898714E+03 0.  0.
         25    1    4    4    0    0 -0.92304326112E+01 -0.10286136300E+02  0.34375356818E+03  0.36606697369E+03  0.12509000000E+03 0.  0.
         25    1    3    3    0    0 -0.17404114402E+02  0.67736916542E+02  0.16758183364E+03  0.22050481202E+03  0.12509000000E+03 0.  0.
         25    1    4    4    0    0  0.26634547013E+02 -0.57450780242E+02  0.60210570697E+03  0.61821418757E+03  0.12509000000E+03 0.  0.
<mgrwt>
<rscale>  2 0.46017186E+03</rscale>
<asrwt>0</asrwt>
<pdfrwt beam="1">  1       21 0.17045785E+00 0.46017186E+03</pdfrwt>
<pdfrwt beam="2">  1       21 0.67165349E-02 0.46017186E+03</pdfrwt>
<totfact> 0.30747126E+04</totfact>
</mgrwt>
</event>
<event>
 6    0  0.5164470E-002  0.4307067E+03  0.7546771E-02  0.1033637E+00
         21   -1    0    0  502  501  0.00000000000E+00  0.00000000000E+00  0.12837634225E+03  0.12837634225E+03  0.00000000000E+00 0. -1.
         21   -1    0    0  501  502 -0.00000000000E+00 -0.00000000000E+00 -0.36125870073E+03  0.36125870073E+03  0.00000000000E+00 0. -1.
      99926    2    1    2    0    0  0.00000000000E+00 -0.14210854715E-13 -0.23288235848E+03  0.48963504297E+03  0.43070672437E+03 0.  0.
         25    1    3    3    0    0  0.27394366570E+01  0.57348022141E+01 -0.14721149240E+02  0.12611349176E+03  0.12509000000E+03 0.  0.
         25    1    3    3    0    0  0.22024742709E+02  0.63330564145E+02 -0.13735167075E+03  0.19750655484E+03  0.12509000000E+03 0.  0.
         25    1    3    3    0    0 -0.24764179366E+02 -0.69065366359E+02 -0.80809538488E+02  0.16601499637E+03  0.12509000000E+03 0.  0.
<mgrwt>
<rscale>  2 0.43070672E+03</rscale>
<asrwt>0</asrwt>
<pdfrwt beam="1">  1       21 0.18878874E-01 0.43070672E+03</pdfrwt>
<pdfrwt beam="2">  1       21 0.53126280E-01 0.43070672E+03</pdfrwt>
<totfact> 0.80430661E+04</totfact>
</mgrwt>
</event>
<event>
 7    0  0.4750554E-002  0.4474209E+03  0.7546771E-02  0.1028494E+00
         21   -1    0    0  502  501  0.00000000000E+00  0.00000000000E+00  0.77062616323E+03  0.77062616323E+03  0.00000000000E+00 0.  1.
         21   -1    0    0  501  502 -0.00000000000E+00 -0.00000000000E+00 -0.64942456233E+02  0.64942456233E+02  0.00000000000E+00 0.  1.
      99926    2    1    2    0    0  0.00000000000E+00  0.00000000000E+00  0.70568370700E+03  0.83556861946E+03  0.44742085726E+03 0.  0.
      99925    2    3    3    0    0 -0.67020631321E+02  0.74003775581E+02  0.38115227144E+03  0.47371715189E+03  0.26298776045E+03 0.  0.
         25    1    4    4    0    0 -0.60964266967E+02  0.38678965983E+02  0.25153973270E+03  0.29005594199E+03  0.12509000000E+03 0.  0.
         25    1    3    3    0    0  0.67020631321E+02 -0.74003775581E+02  0.32453143555E+03  0.36185146757E+03  0.12509000000E+03 0.  0.
         25    1    4    4    0    0 -0.60563643539E+01  0.35324809598E+02  0.12961253874E+03  0.18366120990E+03  0.12509000000E+03 0.  0.
<mgrwt>
<rscale>  2 0.44742086E+03</rscale>
<asrwt>0</asrwt>
<pdfrwt beam="1">  1       21 0.11332737E+00 0.44742086E+03</pdfrwt>
<pdfrwt beam="2">  1       21 0.95503616E-02 0.44742086E+03</pdfrwt>
<totfact> 0.48937739E+04</totfact>
</mgrwt>
</event>
<event>
 6    0  0.4750554E-002  0.4539118E+03  0.7546771E-02  0.1026562E+00
         21   -1    0    0  502  501  0.00000000000E+00  0.00000000000E+00  0.26917367297E+03  0.26917367297E+03  0.00000000000E+00 0.  1.
         21   -1    0    0  501  502 -0.00000000000E+00 -0.00000000000E+00 -0.19135967113E+03  0.19135967113E+03  0.00000000000E+00 0.  1.
      99926    2    1    2    0    0  0.00000000000E+00  0.14210854715E-13  0.77814001840E+02  0.46053334410E+03  0.45391182199E+03 0.  0.
         25    1    3    3    0    0 -0.65148681288E+00 -0.83305531128E+02  0.15472732341E+02  0.15108656293E+03  0.12509000000E+03 0.  0.
         25    1    3    3    0    0 -0.59176958112E+02 -0.56524198302E+00  0.83431681462E+01  0.13863386464E+03  0.12509000000E+03 0.  0.
         25    1    3    3    0    0  0.59828444925E+02  0.83870773111E+02  0.53998101353E+02  0.17081291653E+03  0.12509000000E+03 0.  0.
<mgrwt>
<rscale>  2 0.45391182E+03</rscale>
<asrwt>0</asrwt>
<pdfrwt beam="1">  1       21 0.39584364E-01 0.45391182E+03</pdfrwt>
<pdfrwt beam="2">  1       21 0.28141128E-01 0.45391182E+03</pdfrwt>
<totfact> 0.68735609E+04</totfact>
</mgrwt>
</event>
<event>
 7    0  0.4750554E-002  0.4160558E+03  0.7546771E-02  0.1038358E+00
         21   -1    0    0  502  501  0.00000000000E+00  0.00000000000E+00  0.11466383434E+04  0.11466383434E+04  0.00000000000E+00 0.  1.
         21   -1    0    0  501  502 -0.00000000000E+00 -0.00000000000E+00 -0.37741290629E+02  0.37741290629E+02  0.00000000000E+00 0.  1.
      99926    2    1    2    0    0  0.35527136788E-14  0.00000000000E+00  0.11088970528E+04  0.11843796340E+04  0.41605581820E+03 0.  0.
      99925    2    3    3    0    0  0.23410013472E+02  0.43827151920E+02  0.58151731752E+03  0.64009501985E+03  0.26285052004E+03 0.  0.
         25    1    3    3    0    0 -0.23410013472E+02 -0.43827151920E+02  0.52737973527E+03  0.54428461419E+03  0.12509000000E+03 0.  0.
         25    1    4    4    0    0 -0.14313217840E+02 -0.96018351412E+01  0.26691276277E+03  0.29527443924E+03  0.12509000000E+03 0.  0.
         25    1    4    4    0    0  0.37723231312E+02  0.53428987061E+02  0.31460455475E+03  0.34482058060E+03  0.12509000000E+03 0.  0.
<mgrwt>
<rscale>  2 0.41605582E+03</rscale>
<asrwt>0</asrwt>
<pdfrwt beam="1">  1       21 0.16862326E+00 0.41605582E+03</pdfrwt>
<pdfrwt beam="2">  1       21 0.55501905E-02 0.41605582E+03</pdfrwt>
<totfact> 0.44770814E+04</totfact>
</mgrwt>
</event>
<event>
 7    0  0.4750554E-002  0.4551810E+03  0.7546771E-02  0.1026188E+00
         21   -1    0    0  502  501  0.00000000000E+00  0.00000000000E+00  0.18461236214E+03  0.18461236214E+03  0.00000000000E+00 0. -1.
         21   -1    0    0  501  502 -0.00000000000E+00 -0.00000000000E+00 -0.28057408146E+03  0.28057408146E+03  0.00000000000E+00 0. -1.
      99926    2    1    2    0    0  0.00000000000E+00 -0.35527136788E-14 -0.95961719319E+02  0.46518644360E+03  0.45518103622E+03 0.  0.
      99925    2    3    3    0    0  0.71479501835E+02 -0.27614250000E+02  0.24895464002E+02  0.27511847458E+03  0.26305612508E+03 0.  0.
         25    1    3    3    0    0 -0.71479501835E+02  0.27614250000E+02 -0.12085718332E+03  0.19006796902E+03  0.12509000000E+03 0.  0.
         25    1    4    4    0    0  0.16836275970E+02 -0.46201718790E+02  0.28113961181E+02  0.13731701250E+03  0.12509000000E+03 0.  0.
         25    1    4    4    0    0  0.54643225864E+02  0.18587468790E+02 -0.32184971787E+01  0.13780146209E+03  0.12509000000E+03 0.  0.
<mgrwt>
<rscale>  2 0.45518104E+03</rscale>
<asrwt>0</asrwt>
<pdfrwt beam="1">  1       21 0.27148877E-01 0.45518104E+03</pdfrwt>
<pdfrwt beam="2">  1       21 0.41260894E-01 0.45518104E+03</pdfrwt>
<totfact> 0.67698837E+04</totfact>
</mgrwt>
</event>
<event>
 7    0  0.4750554E-002  0.4601987E+03  0.7546771E-02  0.1024724E+00
         21   -1    0    0  502  501  0.00000000000E+00  0.00000000000E+00  0.26165463492E+03  0.26165463492E+03  0.00000000000E+00 0. -1.
         21   -1    0    0  501  502 -0.00000000000E+00 -0.00000000000E+00 -0.20234962996E+03  0.20234962996E+03  0.00000000000E+00 0. -1.
      99926    2    1    2    0    0  0.00000000000E+00  0.00000000000E+00  0.59305004961E+02  0.46400426488E+03  0.46019873339E+03 0.  0.
      99925    2    3    3    0    0 -0.77036400171E+02  0.45076955076E+02  0.11509373852E+03  0.30052206486E+03  0.26286955699E+03 0.  0.
         25    1    4    4    0    0 -0.49980679966E+02 -0.12718973440E+02  0.73933676066E+02  0.15418669596E+03  0.12509000000E+03 0.  0.
         25    1    3    3    0    0  0.77036400171E+02 -0.45076955076E+02 -0.55788733563E+02  0.16348220002E+03  0.12509000000E+03 0.  0.
         25    1    4    4    0    0 -0.27055720206E+02  0.57795928515E+02  0.41160062458E+02  0.14633536890E+03  0.12509000000E+03 0.  0.
<mgrwt>
<rscale>  2 0.46019873E+03</rscale>
<asrwt>0</asrwt>
<pdfrwt beam="1">  1       21 0.38478623E-01 0.46019873E+03</pdfrwt>
<pdfrwt beam="2">  1       21 0.29757298E-01 0.46019873E+03</pdfrwt>
<totfact> 0.65146598E+04</totfact>
</mgrwt>
</event>
<event>
 7    0  0.4750554E-002  0.4491024E+03  0.7546771E-02  0.1027990E+00
         21   -1    0    0  502  501  0.00000000000E+00  0.00000000000E+00  0.46227716901E+03  0.46227716901E+03  0.00000000000E+00 0.  1.
         21   -1    0    0  501  502 -0.00000000000E+00 -0.00000000000E+00 -0.10907577015E+03  0.10907577015E+03  0.00000000000E+00 0.  1.
      99926    2    1    2    0    0  0.71054273576E-14  0.00000000000E+00  0.35320139886E+03  0.57135293916E+03  0.44910238580E+03 0.  0.
      99925    2    3    3    0    0 -0.53496686326E+02 -0.78082180711E+02  0.28883147691E+03  0.40179552309E+03  0.26278755284E+03 0.  0.
         25    1    4    4    0    0 -0.63907076523E+02 -0.56702242662E+02  0.16886713715E+03  0.22685430757E+03  0.12509000000E+03 0.  0.
         25    1    4    4    0    0  0.10410390198E+02 -0.21379938049E+02  0.11996433977E+03  0.17494121553E+03  0.12509000000E+03 0.  0.
         25    1    3    3    0    0  0.53496686326E+02  0.78082180711E+02  0.64369921944E+02  0.16955741607E+03  0.12509000000E+03 0.  0.
<mgrwt>
<rscale>  2 0.44910239E+03</rscale>
<asrwt>0</asrwt>
<pdfrwt beam="1">  1       21 0.67981936E-01 0.44910239E+03</pdfrwt>
<pdfrwt beam="2">  1       21 0.16040555E-01 0.44910239E+03</pdfrwt>
<totfact> 0.63381638E+04</totfact>
</mgrwt>
</event>
<event>
 7    0  0.4750554E-002  0.4580965E+03  0.7546771E-02  0.1025335E+00
         21   -1    0    0  502  501  0.00000000000E+00  0.00000000000E+00  0.34916368555E+02  0.34916368555E+02  0.00000000000E+00 0. -1.
         21   -1    0    0  501  502 -0.00000000000E+00 -0.00000000000E+00 -0.15025357964E+04  0.15025357964E+04  0.00000000000E+00 0. -1.
      99926    2    1    2    0    0  0.00000000000E+00 -0.14210854715E-13 -0.14676194279E+04  0.15374521650E+04  0.45809646860E+03 0.  0.
      99925    2    3    3    0    0 -0.36728629382E+02 -0.77786489438E+02 -0.11826248987E+04  0.12145448719E+04  0.26290276667E+03 0.  0.
         25    1    4    4    0    0 -0.46079277459E+02 -0.69729272076E+02 -0.67966026726E+03  0.69611138346E+03  0.12509000000E+03 0.  0.
         25    1    3    3    0    0  0.36728629382E+02  0.77786489438E+02 -0.28499452916E+03  0.32290729305E+03  0.12509000000E+03 0.  0.
         25    1    4    4    0    0  0.93506480768E+01 -0.80572173623E+01 -0.50296463144E+03  0.51843348846E+03  0.12509000000E+03 0.  0.
<mgrwt>
<rscale>  2 0.45809647E+03</rscale>
<asrwt>0</asrwt>
<pdfrwt beam="1">  1       21 0.51347603E-02 0.45809647E+03</pdfrwt>
<pdfrwt beam="2">  1       21 0.22096114E+00 0.45809647E+03</pdfrwt>
<totfact> 0.22334035E+04</totfact>
</mgrwt>
</event>
<event>
 7    0  0.4750554E-002  0.4572228E+03  0.7546771E-02  0.1025590E+00
         21   -1    0    0  502  501  0.00000000000E+00  0.00000000000E+00  0.30843286544E+03  0.30843286544E+03  0.00000000000E+00 0.  1.
         21   -1    0    0  501  502 -0.00000000000E+00 -0.00000000000E+00 -0.16944748757E+03  0.16944748757E+03  0.00000000000E+00 0.  1.
      99926    2    1    2    0    0  0.00000000000E+00  0.00000000000E+00  0.13898537786E+03  0.47788035301E+03  0.45722280841E+03 0.  0.
      99925    2    3    3    0    0  0.75976751630E+02 -0.86198023619E+02  0.79793573726E+02  0.29800888823E+03  0.26313440860E+03 0.  0.
         25    1    3    3    0    0 -0.75976751630E+02  0.86198023619E+02  0.59191804138E+02  0.17987146478E+03  0.12509000000E+03 0.  0.
         25    1    4    4    0    0  0.54155818085E+02 -0.54751759825E+02  0.42675728435E+01  0.14695689203E+03  0.12509000000E+03 0.  0.
         25    1    4    4    0    0  0.21820933545E+02 -0.31446263794E+02  0.75526000882E+02  0.15105199620E+03  0.12509000000E+03 0.  0.
<mgrwt>
<rscale>  2 0.45722281E+03</rscale>
<asrwt>0</asrwt>
<pdfrwt beam="1">  1       21 0.45357775E-01 0.45722281E+03</pdfrwt>
<pdfrwt beam="2">  1       21 0.24918748E-01 0.45722281E+03</pdfrwt>
<totfact> 0.65688232E+04</totfact>
</mgrwt>
</event>
<event>
 7    0  0.4750554E-002  0.4567327E+03  0.7546771E-02  0.1025733E+00
         21   -1    0    0  502  501  0.00000000000E+00  0.00000000000E+00  0.11011880283E+03  0.11011880283E+03  0.00000000000E+00 0.  1.
         21   -1    0    0  501  502 -0.00000000000E+00 -0.00000000000E+00 -0.47359026263E+03  0.47359026263E+03  0.00000000000E+00 0.  1.
      99926    2    1    2    0    0  0.44408920985E-14  0.00000000000E+00 -0.36347145981E+03  0.58370906546E+03  0.45673271287E+03 0.  0.
      99925    2    3    3    0    0 -0.70191117408E+01  0.11215130111E+03 -0.25870551723E+03  0.38559144107E+03  0.26291639833E+03 0.  0.
         25    1    3    3    0    0  0.70191117408E+01 -0.11215130111E+03 -0.10476594258E+03  0.19811762439E+03  0.12509000000E+03 0.  0.
         25    1    4    4    0    0  0.34521224826E+02  0.42440562466E+02 -0.11503835938E+03  0.17853360618E+03  0.12509000000E+03 0.  0.
         25    1    4    4    0    0 -0.41540336567E+02  0.69710738647E+02 -0.14366715785E+03  0.20705783489E+03  0.12509000000E+03 0.  0.
<mgrwt>
<rscale>  2 0.45673271E+03</rscale>
<asrwt>0</asrwt>
<pdfrwt beam="1">  1       21 0.16193942E-01 0.45673271E+03</pdfrwt>
<pdfrwt beam="2">  1       21 0.69645626E-01 0.45673271E+03</pdfrwt>
<totfact> 0.58881732E+04</totfact>
</mgrwt>
</event>
<event>
 7    0  0.4750554E-002  0.4516226E+03  0.7546771E-02  0.1027239E+00
         21   -1    0    0  502  501  0.00000000000E+00  0.00000000000E+00  0.95389515929E+02  0.95389515929E+02  0.00000000000E+00 0. -1.
         21   -1    0    0  501  502 -0.00000000000E+00 -0.00000000000E+00 -0.53455279246E+03  0.53455279246E+03  0.00000000000E+00 0. -1.
      99926    2    1    2    0    0  0.00000000000E+00  0.00000000000E+00 -0.43916327653E+03  0.62994230839E+03  0.45162255086E+03 0.  0.
      99925    2    3    3    0    0  0.23374257470E+02 -0.28071147545E+02 -0.13307285570E+03  0.29726649162E+03  0.26329572135E+03 0.  0.
         25    1    4    4    0    0  0.16417735836E+02  0.26617670822E+02 -0.59160632536E+02  0.14186448108E+03  0.12509000000E+03 0.  0.
         25    1    4    4    0    0  0.69565216337E+01 -0.54688818367E+02 -0.73912223162E+02  0.15540201054E+03  0.12509000000E+03 0.  0.
         25    1    3    3    0    0 -0.23374257470E+02  0.28071147545E+02 -0.30609042083E+03  0.33267581677E+03  0.12509000000E+03 0.  0.
<mgrwt>
<rscale>  2 0.45162255E+03</rscale>
<asrwt>0</asrwt>
<pdfrwt beam="1">  1       21 0.14027870E-01 0.45162255E+03</pdfrwt>
<pdfrwt beam="2">  1       21 0.78610705E-01 0.45162255E+03</pdfrwt>
<totfact> 0.58413949E+04</totfact>
</mgrwt>
</event>
<event>
 7    0  0.4750554E-002  0.4447630E+03  0.7546771E-02  0.1029295E+00
         21   -1    0    0  502  501  0.00000000000E+00  0.00000000000E+00  0.49524794427E+03  0.49524794427E+03  0.00000000000E+00 0.  1.
         21   -1    0    0  501  502 -0.00000000000E+00 -0.00000000000E+00 -0.99856102825E+02  0.99856102825E+02  0.00000000000E+00 0.  1.
      99926    2    1    2    0    0  0.00000000000E+00  0.71054273576E-14  0.39539184144E+03  0.59510404709E+03  0.44476299148E+03 0.  0.
      99925    2    3    3    0    0 -0.83178584981E+02  0.61444940748E+02  0.25244230686E+03  0.37882590377E+03  0.26284556175E+03 0.  0.
         25    1    4    4    0    0 -0.50911393764E+02 -0.36521186994E+01  0.14807814156E+03  0.20044937539E+03  0.12509000000E+03 0.  0.
         25    1    4    4    0    0 -0.32267191217E+02  0.65097059447E+02  0.10436416530E+03  0.17837652838E+03  0.12509000000E+03 0.  0.
         25    1    3    3    0    0  0.83178584981E+02 -0.61444940748E+02  0.14294953458E+03  0.21627814332E+03  0.12509000000E+03 0.  0.
<mgrwt>
<rscale>  2 0.44476299E+03</rscale>
<asrwt>0</asrwt>
<pdfrwt beam="1">  1       21 0.72830579E-01 0.44476299E+03</pdfrwt>
<pdfrwt beam="2">  1       21 0.14684721E-01 0.44476299E+03</pdfrwt>
<totfact> 0.64003028E+04</totfact>
</mgrwt>
</event>
<event>
 7    0  0.4750554E-002  0.4327343E+03  0.7546771E-02  0.1033000E+00
         21   -1    0    0  502  501  0.00000000000E+00  0.00000000000E+00  0.36750273538E+03  0.36750273538E+03  0.00000000000E+00 0. -1.
         21   -1    0    0  501  502 -0.00000000000E+00 -0.00000000000E+00 -0.12738610356E+03  0.12738610356E+03  0.00000000000E+00 0. -1.
      99926    2    1    2    0    0  0.00000000000E+00  0.71054273576E-14  0.24011663182E+03  0.49488883893E+03  0.43273429033E+03 0.  0.
      99925    2    3    3    0    0 -0.27576187994E+02  0.42612380394E+02  0.24034009768E+03  0.35989321255E+03  0.26302756657E+03 0.  0.
         25    1    4    4    0    0  0.10255597962E+02 -0.10091574261E+02  0.97558169417E+02  0.15928628843E+03  0.12509000000E+03 0.  0.
         25    1    3    3    0    0  0.27576187994E+02 -0.42612380394E+02 -0.22346586695E+00  0.13499562639E+03  0.12509000000E+03 0.  0.
         25    1    4    4    0    0 -0.37831785956E+02  0.52703954656E+02  0.14278192827E+03  0.20060692412E+03  0.12509000000E+03 0.  0.
<mgrwt>
<rscale>  2 0.43273429E+03</rscale>
<asrwt>0</asrwt>
<pdfrwt beam="1">  1       21 0.54044520E-01 0.43273429E+03</pdfrwt>
<pdfrwt beam="2">  1       21 0.18733251E-01 0.43273429E+03</pdfrwt>
<totfact> 0.78635109E+04</totfact>
</mgrwt>
</event>
<event>
 7    0  0.4750554E-002  0.4516047E+03  0.7546771E-02  0.1027245E+00
         21   -1    0    0  502  501  0.00000000000E+00  0.00000000000E+00  0.58470830397E+02  0.58470830397E+02  0.00000000000E+00 0.  1.
         21   -1    0    0  501  502 -0.00000000000E+00 -0.00000000000E+00 -0.87200227815E+03  0.87200227815E+03  0.00000000000E+00 0.  1.
      99926    2    1    2    0    0  0.44408920985E-15  0.00000000000E+00 -0.81353144776E+03  0.93047310855E+03  0.45160468249E+03 0.  0.
      99925    2    3    3    0    0  0.31259468017E+01 -0.46188821290E+02 -0.71884500678E+03  0.76689985597E+03  0.26316167380E+03 0.  0.
         25    1    3    3    0    0 -0.31259468017E+01  0.46188821290E+02 -0.94686440977E+02  0.16357325258E+03  0.12509000000E+03 0.  0.
         25    1    4    4    0    0 -0.23384465495E+02 -0.49991387979E+02 -0.31828763414E+03  0.34641088067E+03  0.12509000000E+03 0.  0.
         25    1    4    4    0    0  0.26510412297E+02  0.38025666891E+01 -0.40055737264E+03  0.42048897530E+03  0.12509000000E+03 0.  0.
<mgrwt>
<rscale>  2 0.45160468E+03</rscale>
<asrwt>0</asrwt>
<pdfrwt beam="1">  1       21 0.85986523E-02 0.45160468E+03</pdfrwt>
<pdfrwt beam="2">  1       21 0.12823562E+00 0.45160468E+03</pdfrwt>
<totfact> 0.43074380E+04</totfact>
</mgrwt>
</event>
<event>
 7    0  0.4750554E-002  0.4468719E+03  0.7546771E-02  0.1028659E+00
         21   -1    0    0  502  501  0.00000000000E+00  0.00000000000E+00  0.27876913248E+02  0.27876913248E+02  0.00000000000E+00 0.  1.
         21   -1    0    0  501  502 -0.00000000000E+00 -0.00000000000E+00 -0.17908593261E+04  0.17908593261E+04  0.00000000000E+00 0.  1.
      99926    2    1    2    0    0  0.00000000000E+00  0.00000000000E+00 -0.17629824128E+04  0.18187362393E+04  0.44687192829E+03 0.  0.
      99925    2    3    3    0    0 -0.71474904444E+02 -0.57192501357E+02 -0.13305246573E+04  0.13593378691E+04  0.26291431005E+03 0.  0.
         25    1    3    3    0    0  0.71474904444E+02  0.57192501357E+02 -0.43245775553E+03  0.45939837026E+03  0.12509000000E+03 0.  0.
         25    1    4    4    0    0 -0.16343323302E+02 -0.57603088880E+02 -0.57024732850E+03  0.58686859162E+03  0.12509000000E+03 0.  0.
         25    1    4    4    0    0 -0.55131581141E+02  0.41058752339E+00 -0.76027732879E+03  0.77246927745E+03  0.12509000000E+03 0.  0.
<mgrwt>
<rscale>  2 0.44687193E+03</rscale>
<asrwt>0</asrwt>
<pdfrwt beam="1">  1       21 0.40995456E-02 0.44687193E+03</pdfrwt>
<pdfrwt beam="2">  1       21 0.26336170E+00 0.44687193E+03</pdfrwt>
<totfact> 0.18011912E+04</totfact>
</mgrwt>
</event>
<event>
 7    0  0.4750554E-002  0.4590694E+03  0.7546771E-02  0.1025051E+00
         21   -1    0    0  502  501  0.00000000000E+00  0.00000000000E+00  0.35158009533E+03  0.35158009533E+03  0.00000000000E+00 0.  1.
         21   -1    0    0  501  502 -0.00000000000E+00 -0.00000000000E+00 -0.14985541504E+03  0.14985541504E+03  0.00000000000E+00 0.  1.
      99926    2    1    2    0    0  0.00000000000E+00  0.35527136788E-14  0.20172468029E+03  0.50143551037E+03  0.45906941134E+03 0.  0.
      99925    2    3    3    0    0 -0.20227268935E+02 -0.25278514031E+02  0.36075698224E+01  0.26490635099E+03  0.26289582452E+03 0.  0.
         25    1    3    3    0    0  0.20227268935E+02  0.25278514031E+02  0.19811711047E+03  0.23652915939E+03  0.12509000000E+03 0.  0.
         25    1    4    4    0    0  0.15172729439E+02 -0.40058690117E+02 -0.13689613066E+02  0.13292789015E+03  0.12509000000E+03 0.  0.
         25    1    4    4    0    0 -0.35399998374E+02  0.14780176086E+02  0.17297182889E+02  0.13197846084E+03  0.12509000000E+03 0.  0.
<mgrwt>
<rscale>  2 0.45906941E+03</rscale>
<asrwt>0</asrwt>
<pdfrwt beam="1">  1       21 0.51702955E-01 0.45906941E+03</pdfrwt>
<pdfrwt beam="2">  1       21 0.22037561E-01 0.45906941E+03</pdfrwt>
<totfact> 0.63106589E+04</totfact>
</mgrwt>
</event>
<event>
 7    0  0.4750554E-002  0.4540903E+03  0.7546771E-02  0.1026509E+00
         21   -1    0    0  502  501  0.00000000000E+00  0.00000000000E+00  0.36498112825E+03  0.36498112825E+03  0.00000000000E+00 0.  1.
         21   -1    0    0  501  502 -0.00000000000E+00 -0.00000000000E+00 -0.14123883298E+03  0.14123883298E+03  0.00000000000E+00 0.  1.
      99926    2    1    2    0    0 -0.71054273576E-14  0.49960036108E-15  0.22374229526E+03  0.50621996123E+03  0.45409033733E+03 0.  0.
      99925    2    3    3    0    0 -0.33773037913E+02 -0.20780046498E+00  0.26029340656E+03  0.37159398637E+03  0.26303758655E+03 0.  0.
         25    1    3    3    0    0  0.33773037913E+02  0.20780046498E+00 -0.36551111292E+02  0.13462597486E+03  0.12509000000E+03 0.  0.
         25    1    4    4    0    0 -0.41178412718E+02  0.64577931613E+01  0.88294318204E+02  0.15868446519E+03  0.12509000000E+03 0.  0.
         25    1    4    4    0    0  0.74053748050E+01 -0.66655936263E+01  0.17199908835E+03  0.21290952118E+03  0.12509000000E+03 0.  0.
<mgrwt>
<rscale>  2 0.45409034E+03</rscale>
<asrwt>0</asrwt>
<pdfrwt beam="1">  1       21 0.53673695E-01 0.45409034E+03</pdfrwt>
<pdfrwt beam="2">  1       21 0.20770417E-01 0.45409034E+03</pdfrwt>
<totfact> 0.65306098E+04</totfact>
</mgrwt>
</event>
<event>
 7    0  0.4750554E-002  0.4425614E+03  0.7546771E-02  0.1029964E+00
         21   -1    0    0  502  501  0.00000000000E+00  0.00000000000E+00  0.13234954306E+04  0.13234954306E+04  0.00000000000E+00 0.  1.
         21   -1    0    0  501  502 -0.00000000000E+00 -0.00000000000E+00 -0.36996843081E+02  0.36996843081E+02  0.00000000000E+00 0.  1.
      99926    2    1    2    0    0  0.00000000000E+00 -0.14210854715E-13  0.12864985875E+04  0.13604922737E+04  0.44256142066E+03 0.  0.
      99925    2    3    3    0    0 -0.42578313132E+02 -0.81132017137E+02  0.94889809219E+03  0.98898598908E+03  0.26323065983E+03 0.  0.
         25    1    4    4    0    0 -0.27812948807E+02 -0.78629600320E+02  0.45115072718E+03  0.47554249117E+03  0.12509000000E+03 0.  0.
         25    1    3    3    0    0  0.42578313132E+02  0.81132017137E+02  0.33760049531E+03  0.37150628459E+03  0.12509000000E+03 0.  0.
         25    1    4    4    0    0 -0.14765364324E+02 -0.25024168172E+01  0.49774736501E+03  0.51344349791E+03  0.12509000000E+03 0.  0.
<mgrwt>
<rscale>  2 0.44256142E+03</rscale>
<asrwt>0</asrwt>
<pdfrwt beam="1">  1       21 0.19463165E+00 0.44256142E+03</pdfrwt>
<pdfrwt beam="2">  1       21 0.54407131E-02 0.44256142E+03</pdfrwt>
<totfact> 0.30222203E+04</totfact>
</mgrwt>
</event>
<event>
 7    0  0.4750554E-002  0.4578028E+03  0.7546771E-02  0.1025420E+00
         21   -1    0    0  502  501  0.00000000000E+00  0.00000000000E+00  0.98235480099E+02  0.98235480099E+02  0.00000000000E+00 0. -1.
         21   -1    0    0  501  502 -0.00000000000E+00 -0.00000000000E+00 -0.53337002459E+03  0.53337002459E+03  0.00000000000E+00 0. -1.
      99926    2    1    2    0    0 -0.33306690739E-15  0.71054273576E-14 -0.43513454449E+03  0.63160550469E+03  0.45780284156E+03 0.  0.
      99925    2    3    3    0    0 -0.95470194570E+00 -0.48356574042E+02 -0.12776631511E+03  0.29625195060E+03  0.26287205490E+03 0.  0.
         25    1    4    4    0    0 -0.33736798838E+02 -0.11881893153E+02 -0.84339117565E+02  0.15504820487E+03  0.12509000000E+03 0.  0.
         25    1    3    3    0    0  0.95470194570E+00  0.48356574042E+02 -0.30736822937E+03  0.33535355408E+03  0.12509000000E+03 0.  0.
         25    1    4    4    0    0  0.32782096893E+02 -0.36474680888E+02 -0.43427197549E+02  0.14120374573E+03  0.12509000000E+03 0.  0.
<mgrwt>
<rscale>  2 0.45780284E+03</rscale>
<asrwt>0</asrwt>
<pdfrwt beam="1">  1       21 0.14446394E-01 0.45780284E+03</pdfrwt>
<pdfrwt beam="2">  1       21 0.78436767E-01 0.45780284E+03</pdfrwt>
<totfact> 0.55534888E+04</totfact>
</mgrwt>
</event>
<event>
 7    0  0.4750554E-002  0.4613745E+03  0.7546771E-02  0.1024383E+00
         21   -1    0    0  502  501  0.00000000000E+00  0.00000000000E+00  0.69084489733E+02  0.69084489733E+02  0.00000000000E+00 0.  1.
         21   -1    0    0  501  502 -0.00000000000E+00 -0.00000000000E+00 -0.77031209615E+03  0.77031209615E+03  0.00000000000E+00 0.  1.
      99926    2    1    2    0    0  0.00000000000E+00 -0.14210854715E-13 -0.70122760642E+03  0.83939658589E+03  0.46137454675E+03 0.  0.
      99925    2    3    3    0    0  0.63910725262E+02  0.72494337529E+02 -0.31200459950E+03  0.41929889845E+03  0.26291574002E+03 0.  0.
         25    1    4    4    0    0 -0.49388075331E+01  0.16058332668E+02 -0.15149806178E+03  0.19718375362E+03  0.12509000000E+03 0.  0.
         25    1    4    4    0    0  0.68849532795E+02  0.56436004860E+02 -0.16050653773E+03  0.22211514483E+03  0.12509000000E+03 0.  0.
         25    1    3    3    0    0 -0.63910725262E+02 -0.72494337529E+02 -0.38922300692E+03  0.42009768744E+03  0.12509000000E+03 0.  0.
<mgrwt>
<rscale>  2 0.46137455E+03</rscale>
<asrwt>0</asrwt>
<pdfrwt beam="1">  1       21 0.10159484E-01 0.46137455E+03</pdfrwt>
<pdfrwt beam="2">  1       21 0.11328119E+00 0.46137455E+03</pdfrwt>
<totfact> 0.43691104E+04</totfact>
</mgrwt>
</event>
<event>
 7    0  0.4750554E-002  0.4557565E+03  0.7546771E-02  0.1026019E+00
         21   -1    0    0  502  501  0.00000000000E+00  0.00000000000E+00  0.34401040587E+03  0.34401040587E+03  0.00000000000E+00 0. -1.
         21   -1    0    0  501  502 -0.00000000000E+00 -0.00000000000E+00 -0.15095034995E+03  0.15095034995E+03  0.00000000000E+00 0. -1.
      99926    2    1    2    0    0  0.14210854715E-13  0.00000000000E+00  0.19306005592E+03  0.49496075583E+03  0.45575647512E+03 0.  0.
      99925    2    3    3    0    0  0.10750651537E+03  0.97848566049E+01  0.16075565594E+03  0.32660257627E+03  0.26300849348E+03 0.  0.
         25    1    4    4    0    0  0.66394273826E+02 -0.11993689165E+02  0.12285391104E+03  0.18786335389E+03  0.12509000000E+03 0.  0.
         25    1    4    4    0    0  0.41112241546E+02  0.21778545770E+02  0.37901744903E+02  0.13873922238E+03  0.12509000000E+03 0.  0.
         25    1    3    3    0    0 -0.10750651537E+03 -0.97848566049E+01  0.32304399981E+02  0.16835817956E+03  0.12509000000E+03 0.  0.
<mgrwt>
<rscale>  2 0.45575648E+03</rscale>
<asrwt>0</asrwt>
<pdfrwt beam="1">  1       21 0.50589766E-01 0.45575648E+03</pdfrwt>
<pdfrwt beam="2">  1       21 0.22198581E-01 0.45575648E+03</pdfrwt>
<totfact> 0.65233518E+04</totfact>
</mgrwt>
</event>
<event>
 7    0  0.4750554E-002  0.4543683E+03  0.7546771E-02  0.1026427E+00
         21   -1    0    0  502  501  0.00000000000E+00  0.00000000000E+00  0.83891033814E+02  0.83891033814E+02  0.00000000000E+00 0.  1.
         21   -1    0    0  501  502 -0.00000000000E+00 -0.00000000000E+00 -0.61523424659E+03  0.61523424659E+03  0.00000000000E+00 0.  1.
      99926    2    1    2    0    0  0.00000000000E+00  0.00000000000E+00 -0.53134321278E+03  0.69912528040E+03  0.45436829548E+03 0.  0.
      99925    2    3    3    0    0 -0.56944314729E+02 -0.41350032020E+02 -0.47033743515E+03  0.54317114249E+03  0.26242162069E+03 0.  0.
         25    1    4    4    0    0 -0.33107309280E+02 -0.99276388410E+01 -0.30967805861E+03  0.33577173798E+03  0.12509000000E+03 0.  0.
         25    1    3    3    0    0  0.56944314729E+02  0.41350032020E+02 -0.61005777624E+02  0.15595413791E+03  0.12509000000E+03 0.  0.
         25    1    4    4    0    0 -0.23837005449E+02 -0.31422393179E+02 -0.16065937654E+03  0.20739940451E+03  0.12509000000E+03 0.  0.
<mgrwt>
<rscale>  2 0.45436830E+03</rscale>
<asrwt>0</asrwt>
<pdfrwt beam="1">  1       21 0.12336917E-01 0.45436830E+03</pdfrwt>
<pdfrwt beam="2">  1       21 0.90475624E-01 0.45436830E+03</pdfrwt>
<totfact> 0.53214540E+04</totfact>
</mgrwt>
</event>
<event>
 7    0  0.4750554E-002  0.4577487E+03  0.7546771E-02  0.1025436E+00
         21   -1    0    0  502  501  0.00000000000E+00  0.00000000000E+00  0.47519164977E+03  0.47519164977E+03  0.00000000000E+00 0.  1.
         21   -1    0    0  501  502 -0.00000000000E+00 -0.00000000000E+00 -0.11023649810E+03  0.11023649810E+03  0.00000000000E+00 0.  1.
      99926    2    1    2    0    0 -0.22204460493E-15  0.00000000000E+00  0.36495515167E+03  0.58542814786E+03  0.45774867949E+03 0.  0.
      99925    2    3    3    0    0 -0.15634175556E+01 -0.11556739480E+03  0.23593620219E+03  0.37176564661E+03  0.26303143820E+03 0.  0.
         25    1    3    3    0    0  0.15634175556E+01  0.11556739480E+03  0.12901894948E+03  0.21366250125E+03  0.12509000000E+03 0.  0.
         25    1    4    4    0    0 -0.10673626361E+02 -0.32953132162E+02  0.15140212062E+03  0.19942403428E+03  0.12509000000E+03 0.  0.
         25    1    4    4    0    0  0.91102088053E+01 -0.82614262637E+02  0.84534081570E+02  0.17234161234E+03  0.12509000000E+03 0.  0.
<mgrwt>
<rscale>  2 0.45774868E+03</rscale>
<asrwt>0</asrwt>
<pdfrwt beam="1">  1       21 0.69881124E-01 0.45774868E+03</pdfrwt>
<pdfrwt beam="2">  1       21 0.16211250E-01 0.45774868E+03</pdfrwt>
<totfact> 0.58307071E+04</totfact>
</mgrwt>
</event>
<event>
 7    0  0.4750554E-002  0.4496062E+03  0.7546771E-02  0.1027840E+00
         21   -1    0    0  502  501  0.00000000000E+00  0.00000000000E+00  0.17777544723E+03  0.17777544723E+03  0.00000000000E+00 0. -1.
         21   -1    0    0  501  502 -0.00000000000E+00 -0.00000000000E+00 -0.28427118806E+03  0.28427118806E+03  0.00000000000E+00 0. -1.
      99926    2    1    2    0    0  0.00000000000E+00  0.00000000000E+00 -0.10649574083E+03  0.46204663529E+03  0.44960621700E+03 0.  0.
      99925    2    3    3    0    0 -0.21675546330E+02 -0.88129370986E+02 -0.12733458908E+03  0.30610311655E+03  0.26315091686E+03 0.  0.
         25    1    3    3    0    0  0.21675546330E+02  0.88129370986E+02  0.20838848251E+02  0.15594351874E+03  0.12509000000E+03 0.  0.
         25    1    4    4    0    0 -0.74472401645E+01 -0.75104245744E+02 -0.37308441303E+02  0.15078307931E+03  0.12509000000E+03 0.  0.
         25    1    4    4    0    0 -0.14228306165E+02 -0.13025125243E+02 -0.90026147776E+02  0.15532003724E+03  0.12509000000E+03 0.  0.
<mgrwt>
<rscale>  2 0.44960622E+03</rscale>
<asrwt>0</asrwt>
<pdfrwt beam="1">  1       21 0.26143448E-01 0.44960622E+03</pdfrwt>
<pdfrwt beam="2">  1       21 0.41804586E-01 0.44960622E+03</pdfrwt>
<totfact> 0.71022405E+04</totfact>
</mgrwt>
</event>
<event>
 7    0  0.4750554E-002  0.4570154E+03  0.7546771E-02  0.1025650E+00
         21   -1    0    0  502  501  0.00000000000E+00  0.00000000000E+00  0.27437264343E+03  0.27437264343E+03  0.00000000000E+00 0. -1.
         21   -1    0    0  501  502 -0.00000000000E+00 -0.00000000000E+00 -0.19030970954E+03  0.19030970954E+03  0.00000000000E+00 0. -1.
      99926    2    1    2    0    0  0.00000000000E+00  0.00000000000E+00  0.84062933886E+02  0.46468235297E+03  0.45701543991E+03 0.  0.
      99925    2    3    3    0    0  0.76726731732E+02 -0.79280235356E+02  0.86144216778E+02  0.29787651699E+03  0.26293962464E+03 0.  0.
         25    1    3    3    0    0 -0.76726731732E+02  0.79280235356E+02 -0.20812828919E+01  0.16680583599E+03  0.12509000000E+03 0.  0.
         25    1    4    4    0    0  0.57524018866E+02 -0.39148802893E+02  0.82175328106E+02  0.16505130767E+03  0.12509000000E+03 0.  0.
         25    1    4    4    0    0  0.19202712867E+02 -0.40131432464E+02  0.39688886723E+01  0.13282520932E+03  0.12509000000E+03 0.  0.
<mgrwt>
<rscale>  2 0.45701544E+03</rscale>
<asrwt>0</asrwt>
<pdfrwt beam="1">  1       21 0.40348918E-01 0.45701544E+03</pdfrwt>
<pdfrwt beam="2">  1       21 0.27986722E-01 0.45701544E+03</pdfrwt>
<totfact> 0.66757753E+04</totfact>
</mgrwt>
</event>
<event>
 7    0  0.4750554E-002  0.4551746E+03  0.7546771E-02  0.1026190E+00
         21   -1    0    0  502  501  0.00000000000E+00  0.00000000000E+00  0.73873832444E+02  0.73873832444E+02  0.00000000000E+00 0.  1.
         21   -1    0    0  501  502 -0.00000000000E+00 -0.00000000000E+00 -0.70114121019E+03  0.70114121019E+03  0.00000000000E+00 0.  1.
      99926    2    1    2    0    0 -0.14210854715E-13 -0.26645352591E-14 -0.62726737774E+03  0.77501504263E+03  0.45517464025E+03 0.  0.
      99925    2    3    3    0    0 -0.83514966009E+02 -0.46348623342E+01 -0.26442020511E+03  0.38220235153E+03  0.26299118075E+03 0.  0.
         25    1    3    3    0    0  0.83514966009E+02  0.46348623342E+01 -0.36284717264E+03  0.39281269110E+03  0.12509000000E+03 0.  0.
         25    1    4    4    0    0 -0.72499796285E+02 -0.30391694808E+02 -0.13821908652E+03  0.20231633536E+03  0.12509000000E+03 0.  0.
         25    1    4    4    0    0 -0.11015169724E+02  0.25756832474E+02 -0.12620111859E+03  0.17988601618E+03  0.12509000000E+03 0.  0.
<mgrwt>
<rscale>  2 0.45517464E+03</rscale>
<asrwt>0</asrwt>
<pdfrwt beam="1">  1       21 0.10863799E-01 0.45517464E+03</pdfrwt>
<pdfrwt beam="2">  1       21 0.10310900E+00 0.45517464E+03</pdfrwt>
<totfact> 0.48929951E+04</totfact>
</mgrwt>
</event>
<event>
 7    0  0.4750554E-002  0.4554795E+03  0.7546771E-02  0.1026100E+00
         21   -1    0    0  502  501  0.00000000000E+00  0.00000000000E+00  0.41419445399E+03  0.41419445399E+03  0.00000000000E+00 0. -1.
         21   -1    0    0  501  502 -0.00000000000E+00 -0.00000000000E+00 -0.12521992660E+03  0.12521992660E+03  0.00000000000E+00 0. -1.
      99926    2    1    2    0    0  0.00000000000E+00  0.00000000000E+00  0.28897452739E+03  0.53941438058E+03  0.45547952369E+03 0.  0.
      99925    2    3    3    0    0  0.20791131637E+02 -0.15014074866E+02  0.31279870379E+03  0.40951906473E+03  0.26306870146E+03 0.  0.
         25    1    4    4    0    0 -0.74060993929E+01 -0.15420759805E+02  0.99947789990E+02  0.16102707525E+03  0.12509000000E+03 0.  0.
         25    1    4    4    0    0  0.28197231030E+02  0.40668493879E+00  0.21285091380E+03  0.24849198948E+03  0.12509000000E+03 0.  0.
         25    1    3    3    0    0 -0.20791131637E+02  0.15014074866E+02 -0.23824176400E+02  0.12989531585E+03  0.12509000000E+03 0.  0.
<mgrwt>
<rscale>  2 0.45547952E+03</rscale>
<asrwt>0</asrwt>
<pdfrwt beam="1">  1       21 0.60910949E-01 0.45547952E+03</pdfrwt>
<pdfrwt beam="2">  1       21 0.18414695E-01 0.45547952E+03</pdfrwt>
<totfact> 0.62334590E+04</totfact>
</mgrwt>
</event>
<event>
 7    0  0.4750554E-002  0.4503919E+03  0.7546771E-02  0.1027605E+00
         21   -1    0    0  502  501  0.00000000000E+00  0.00000000000E+00  0.28318305116E+03  0.28318305116E+03  0.00000000000E+00 0. -1.
         21   -1    0    0  501  502 -0.00000000000E+00 -0.00000000000E+00 -0.17908281033E+03  0.17908281033E+03  0.00000000000E+00 0. -1.
      99926    2    1    2    0    0  0.00000000000E+00  0.00000000000E+00  0.10410024082E+03  0.46226586149E+03  0.45039190330E+03 0.  0.
      99925    2    3    3    0    0 -0.37575859008E+02 -0.72806286645E+02  0.13932675266E+03  0.30863931499E+03  0.26293265714E+03 0.  0.
         25    1    3    3    0    0  0.37575859008E+02  0.72806286645E+02 -0.35226511836E+02  0.15362654651E+03  0.12509000000E+03 0.  0.
         25    1    4    4    0    0 -0.19606468309E+02 -0.77046350065E+02  0.63881372057E+02  0.16139668972E+03  0.12509000000E+03 0.  0.
         25    1    4    4    0    0 -0.17969390699E+02  0.42400634196E+01  0.75445380604E+02  0.14724262526E+03  0.12509000000E+03 0.  0.
<mgrwt>
<rscale>  2 0.45039190E+03</rscale>
<asrwt>0</asrwt>
<pdfrwt beam="1">  1       21 0.41644567E-01 0.45039190E+03</pdfrwt>
<pdfrwt beam="2">  1       21 0.26335707E-01 0.45039190E+03</pdfrwt>
<totfact> 0.70559605E+04</totfact>
</mgrwt>
</event>
<event>
 7    0  0.4750554E-002  0.4616057E+03  0.7546771E-02  0.1024317E+00
         21   -1    0    0  502  501  0.00000000000E+00  0.00000000000E+00  0.10612154515E+03  0.10612154515E+03  0.00000000000E+00 0.  1.
         21   -1    0    0  501  502 -0.00000000000E+00 -0.00000000000E+00 -0.50197105910E+03  0.50197105910E+03  0.00000000000E+00 0.  1.
      99926    2    1    2    0    0 -0.35527136788E-14  0.00000000000E+00 -0.39584951394E+03  0.60809260425E+03  0.46160565167E+03 0.  0.
      99925    2    3    3    0    0  0.26651134015E+02  0.66744006174E+02 -0.37306548358E+03  0.46203896532E+03  0.26293935639E+03 0.  0.
         25    1    4    4    0    0 -0.15792269322E+02  0.48640216657E+02 -0.14776332226E+03  0.20024178873E+03  0.12509000000E+03 0.  0.
         25    1    3    3    0    0 -0.26651134015E+02 -0.66744006174E+02 -0.22784030368E+02  0.14605363893E+03  0.12509000000E+03 0.  0.
         25    1    4    4    0    0  0.42443403337E+02  0.18103789516E+02 -0.22530216131E+03  0.26179717660E+03  0.12509000000E+03 0.  0.
<mgrwt>
<rscale>  2 0.46160565E+03</rscale>
<asrwt>0</asrwt>
<pdfrwt beam="1">  1       21 0.15606109E-01 0.46160565E+03</pdfrwt>
<pdfrwt beam="2">  1       21 0.73819274E-01 0.46160565E+03</pdfrwt>
<totfact> 0.55243234E+04</totfact>
</mgrwt>
</event>
<event>
 7    0  0.4750554E-002  0.4577358E+03  0.7546771E-02  0.1025440E+00
         21   -1    0    0  502  501  0.00000000000E+00  0.00000000000E+00  0.60617112314E+03  0.60617112314E+03  0.00000000000E+00 0.  1.
         21   -1    0    0  501  502 -0.00000000000E+00 -0.00000000000E+00 -0.86412090387E+02  0.86412090387E+02  0.00000000000E+00 0.  1.
      99926    2    1    2    0    0  0.00000000000E+00  0.00000000000E+00  0.51975903276E+03  0.69258321353E+03  0.45773579228E+03 0.  0.
      99925    2    3    3    0    0 -0.13995013725E+02  0.11442306444E+03  0.34148553026E+03  0.44617410681E+03  0.26300279110E+03 0.  0.
         25    1    4    4    0    0 -0.39544902052E+02  0.39329987025E+02  0.13739192672E+03  0.19399664117E+03  0.12509000000E+03 0.  0.
         25    1    4    4    0    0  0.25549888327E+02  0.75093077412E+02  0.20409360354E+03  0.25217746564E+03  0.12509000000E+03 0.  0.
         25    1    3    3    0    0  0.13995013725E+02 -0.11442306444E+03  0.17827350250E+03  0.24640910672E+03  0.12509000000E+03 0.  0.
<mgrwt>
<rscale>  2 0.45773579E+03</rscale>
<asrwt>0</asrwt>
<pdfrwt beam="1">  1       21 0.89142811E-01 0.45773579E+03</pdfrwt>
<pdfrwt beam="2">  1       21 0.12707661E-01 0.45773579E+03</pdfrwt>
<totfact> 0.52174872E+04</totfact>
</mgrwt>
</event>
<event>
 7    0  0.4750554E-002  0.4477442E+03  0.7546771E-02  0.1028397E+00
         21   -1    0    0  502  501  0.00000000000E+00  0.00000000000E+00  0.84044936606E+02  0.84044936606E+02  0.00000000000E+00 0.  1.
         21   -1    0    0  501  502 -0.00000000000E+00 -0.00000000000E+00 -0.59633235109E+03  0.59633235109E+03  0.00000000000E+00 0.  1.
      99926    2    1    2    0    0  0.00000000000E+00  0.00000000000E+00 -0.51228741449E+03  0.68037728770E+03  0.44774418877E+03 0.  0.
      99925    2    3    3    0    0 -0.63871069995E+02 -0.12865915896E+02 -0.45182625678E+03  0.52692336932E+03  0.26316577560E+03 0.  0.
         25    1    3    3    0    0  0.63871069995E+02  0.12865915896E+02 -0.60461157709E+02  0.15345391838E+03  0.12509000000E+03 0.  0.
         25    1    4    4    0    0  0.53367032984E+01  0.90502104210E+01 -0.23205626282E+03  0.26383328813E+03  0.12509000000E+03 0.  0.
         25    1    4    4    0    0 -0.69207773294E+02 -0.21916126317E+02 -0.21976999396E+03  0.26309008119E+03  0.12509000000E+03 0.  0.
<mgrwt>
<rscale>  2 0.44774419E+03</rscale>
<asrwt>0</asrwt>
<pdfrwt beam="1">  1       21 0.12359549E-01 0.44774419E+03</pdfrwt>
<pdfrwt beam="2">  1       21 0.87695934E-01 0.44774419E+03</pdfrwt>
<totfact> 0.57179133E+04</totfact>
</mgrwt>
</event>
<event>
 7    0  0.4750554E-002  0.4585103E+03  0.7546771E-02  0.1025214E+00
         21   -1    0    0  502  501  0.00000000000E+00  0.00000000000E+00  0.22996008873E+03  0.22996008873E+03  0.00000000000E+00 0. -1.
         21   -1    0    0  501  502 -0.00000000000E+00 -0.00000000000E+00 -0.22855236636E+03  0.22855236636E+03  0.00000000000E+00 0. -1.
      99926    2    1    2    0    0  0.00000000000E+00  0.00000000000E+00  0.14077223629E+01  0.45851245509E+03  0.45851029409E+03 0.  0.
      99925    2    3    3    0    0  0.19770944223E+02 -0.81140299574E+02 -0.80154283178E+02  0.28741450858E+03  0.26307366303E+03 0.  0.
         25    1    3    3    0    0 -0.19770944223E+02  0.81140299574E+02  0.81562005541E+02  0.17109794651E+03  0.12509000000E+03 0.  0.
         25    1    4    4    0    0 -0.24350640905E+02 -0.54439223998E+02 -0.58361443926E+02  0.15036671526E+03  0.12509000000E+03 0.  0.
         25    1    4    4    0    0  0.44121585128E+02 -0.26701075577E+02 -0.21792839252E+02  0.13704779332E+03  0.12509000000E+03 0.  0.
<mgrwt>
<rscale>  2 0.45851029E+03</rscale>
<asrwt>0</asrwt>
<pdfrwt beam="1">  1       21 0.33817660E-01 0.45851029E+03</pdfrwt>
<pdfrwt beam="2">  1       21 0.33610642E-01 0.45851029E+03</pdfrwt>
<totfact> 0.66409617E+04</totfact>
</mgrwt>
</event>
<event>
 7    0  0.4750554E-002  0.4615793E+03  0.7546771E-02  0.1024324E+00
         21   -1    0    0  502  501  0.00000000000E+00  0.00000000000E+00  0.29881769691E+03  0.29881769691E+03  0.00000000000E+00 0. -1.
         21   -1    0    0  501  502 -0.00000000000E+00 -0.00000000000E+00 -0.17824868290E+03  0.17824868290E+03  0.00000000000E+00 0. -1.
      99926    2    1    2    0    0  0.00000000000E+00  0.71054273576E-14  0.12056901400E+03  0.47706637981E+03  0.46157929287E+03 0.  0.
      99925    2    3    3    0    0  0.10161194951E+03  0.61935081870E+02  0.70966547636E+02  0.29743103969E+03  0.26318820231E+03 0.  0.
         25    1    3    3    0    0 -0.10161194951E+03 -0.61935081870E+02  0.49602466367E+02  0.17963534012E+03  0.12509000000E+03 0.  0.
         25    1    4    4    0    0  0.24544183959E+02 -0.36445296082E+01  0.39325749059E+02  0.13345307116E+03  0.12509000000E+03 0.  0.
         25    1    4    4    0    0  0.77067765554E+02  0.65579611479E+02  0.31640798577E+02  0.16397796853E+03  0.12509000000E+03 0.  0.
<mgrwt>
<rscale>  2 0.46157929E+03</rscale>
<asrwt>0</asrwt>
<pdfrwt beam="1">  1       21 0.43943779E-01 0.46157929E+03</pdfrwt>
<pdfrwt beam="2">  1       21 0.26213042E-01 0.46157929E+03</pdfrwt>
<totfact> 0.63532169E+04</totfact>
</mgrwt>
</event>
<event>
 7    0  0.4750554E-002  0.4474072E+03  0.7546771E-02  0.1028498E+00
         21   -1    0    0  502  501  0.00000000000E+00  0.00000000000E+00  0.13506208934E+03  0.13506208934E+03  0.00000000000E+00 0.  1.
         21   -1    0    0  501  502 -0.00000000000E+00 -0.00000000000E+00 -0.37052077132E+03  0.37052077132E+03  0.00000000000E+00 0.  1.
      99926    2    1    2    0    0  0.00000000000E+00  0.00000000000E+00 -0.23545868199E+03  0.50558286066E+03  0.44740723963E+03 0.  0.
      99925    2    3    3    0    0 -0.85186346741E+02  0.45874921236E+02 -0.10066356266E+03  0.29778860096E+03  0.26302789956E+03 0.  0.
         25    1    3    3    0    0  0.85186346741E+02 -0.45874921236E+02 -0.13479511933E+03  0.20779425970E+03  0.12509000000E+03 0.  0.
         25    1    4    4    0    0 -0.78550646651E+02  0.32627899334E+02 -0.33097876098E+02  0.15484754246E+03  0.12509000000E+03 0.  0.
         25    1    4    4    0    0 -0.66357000896E+01  0.13247021902E+02 -0.67565686563E+02  0.14294105850E+03  0.12509000000E+03 0.  0.
<mgrwt>
<rscale>  2 0.44740724E+03</rscale>
<asrwt>0</asrwt>
<pdfrwt beam="1">  1       21 0.19862072E-01 0.44740724E+03</pdfrwt>
<pdfrwt beam="2">  1       21 0.54488348E-01 0.44740724E+03</pdfrwt>
<totfact> 0.68941788E+04</totfact>
</mgrwt>
</event>
<event>
 7    0  0.4750554E-002  0.4585968E+03  0.7546771E-02  0.1025189E+00
         21   -1    0    0  502  501  0.00000000000E+00  0.00000000000E+00  0.27094344106E+04  0.27094344106E+04  0.00000000000E+00 0.  1.
         21   -1    0    0  501  502 -0.00000000000E+00 -0.00000000000E+00 -0.19405432510E+02  0.19405432510E+02  0.00000000000E+00 0.  1.
      99926    2    1    2    0    0  0.00000000000E+00 -0.14210854715E-13  0.26900289781E+04  0.27288398431E+04  0.45859675793E+03 0.  0.
      99925    2    3    3    0    0  0.69595853962E+02  0.80061055683E+02  0.14030461489E+04  0.14314479724E+04  0.26315669504E+03 0.  0.
         25    1    3    3    0    0 -0.69595853962E+02 -0.80061055683E+02  0.12869828292E+04  0.12973918707E+04  0.12509000000E+03 0.  0.
         25    1    4    4    0    0  0.29656744484E+02  0.74840717272E+02  0.85672169803E+03  0.86954024141E+03  0.12509000000E+03 0.  0.
         25    1    4    4    0    0  0.39939109478E+02  0.52203384110E+01  0.54632445089E+03  0.56190773098E+03  0.12509000000E+03 0.  0.
<mgrwt>
<rscale>  2 0.45859676E+03</rscale>
<asrwt>0</asrwt>
<pdfrwt beam="1">  1       21 0.39844598E+00 0.45859676E+03</pdfrwt>
<pdfrwt beam="2">  1       21 0.28537419E-02 0.45859676E+03</pdfrwt>
<totfact> 0.49233862E+03</totfact>
</mgrwt>
</event>
<event>
 7    0  0.4750554E-002  0.4443297E+03  0.7546771E-02  0.1029427E+00
         21   -1    0    0  502  501  0.00000000000E+00  0.00000000000E+00  0.42929219133E+02  0.42929219133E+02  0.00000000000E+00 0. -1.
         21   -1    0    0  501  502 -0.00000000000E+00 -0.00000000000E+00 -0.11497346941E+04  0.11497346941E+04  0.00000000000E+00 0. -1.
      99926    2    1    2    0    0  0.00000000000E+00  0.17763568394E-14 -0.11068054749E+04  0.11926639132E+04  0.44432966422E+03 0.  0.
      99925    2    3    3    0    0  0.90046169592E+02 -0.14449942822E+02 -0.57529986725E+03  0.63907306013E+03  0.26292075882E+03 0.  0.
         25    1    4    4    0    0  0.49895191096E+02 -0.25377384749E+02 -0.21045964449E+03  0.25114599700E+03  0.12509000000E+03 0.  0.
         25    1    3    3    0    0 -0.90046169592E+02  0.14449942822E+02 -0.53150560768E+03  0.55359085307E+03  0.12509000000E+03 0.  0.
         25    1    4    4    0    0  0.40150978496E+02  0.10927441927E+02 -0.36484022276E+03  0.38792706313E+03  0.12509000000E+03 0.  0.
<mgrwt>
<rscale>  2 0.44432966E+03</rscale>
<asrwt>0</asrwt>
<pdfrwt beam="1">  1       21 0.63131213E-02 0.44432966E+03</pdfrwt>
<pdfrwt beam="2">  1       21 0.16907861E+00 0.44432966E+03</pdfrwt>
<totfact> 0.35227850E+04</totfact>
</mgrwt>
</event>
<event>
 7    0  0.4750554E-002  0.4580822E+03  0.7546771E-02  0.1025339E+00
         21   -1    0    0  502  501  0.00000000000E+00  0.00000000000E+00  0.25356208505E+04  0.25356208505E+04  0.00000000000E+00 0.  1.
         21   -1    0    0  501  502 -0.00000000000E+00 -0.00000000000E+00 -0.20689146771E+02  0.20689146771E+02  0.00000000000E+00 0.  1.
      99926    2    1    2    0    0 -0.88817841970E-15  0.00000000000E+00  0.25149317037E+04  0.25563099973E+04  0.45808222812E+03 0.  0.
      99925    2    3    3    0    0 -0.57257838548E+01 -0.48153597092E+02  0.98992294274E+03  0.10254113126E+04  0.26300071092E+03 0.  0.
         25    1    4    4    0    0  0.54802498070E+01 -0.38059490559E+02  0.64632332408E+03  0.65943908385E+03  0.12509000000E+03 0.  0.
         25    1    4    4    0    0 -0.11206033662E+02 -0.10094106533E+02  0.34359961866E+03  0.36597222876E+03  0.12509000000E+03 0.  0.
         25    1    3    3    0    0  0.57257838548E+01  0.48153597092E+02  0.15250087610E+04  0.15308986847E+04  0.12509000000E+03 0.  0.
<mgrwt>
<rscale>  2 0.45808223E+03</rscale>
<asrwt>0</asrwt>
<pdfrwt beam="1">  1       21 0.37288521E+00 0.45808223E+03</pdfrwt>
<pdfrwt beam="2">  1       21 0.30425233E-02 0.45808223E+03</pdfrwt>
<totfact> 0.64175362E+03</totfact>
</mgrwt>
</event>
<event>
 7    0  0.4750554E-002  0.4591084E+03  0.7546771E-02  0.1025040E+00
         21   -1    0    0  502  501  0.00000000000E+00  0.00000000000E+00  0.47726856893E+02  0.47726856893E+02  0.00000000000E+00 0.  1.
         21   -1    0    0  501  502 -0.00000000000E+00 -0.00000000000E+00 -0.11040978368E+04  0.11040978368E+04  0.00000000000E+00 0.  1.
      99926    2    1    2    0    0  0.00000000000E+00  0.00000000000E+00 -0.10563709799E+04  0.11518246937E+04  0.45910835084E+03 0.  0.
      99925    2    3    3    0    0  0.11009132516E+03  0.30102787304E+02 -0.72716795071E+03  0.78162418017E+03  0.26293887657E+03 0.  0.
         25    1    4    4    0    0  0.42855735425E+02  0.42549257182E+01 -0.45105488108E+03  0.47005609485E+03  0.12509000000E+03 0.  0.
         25    1    4    4    0    0  0.67235589733E+02  0.25847861586E+02 -0.27611306962E+03  0.31156808532E+03  0.12509000000E+03 0.  0.
         25    1    3    3    0    0 -0.11009132516E+03 -0.30102787304E+02 -0.32920302920E+03  0.37020051352E+03  0.12509000000E+03 0.  0.
<mgrwt>
<rscale>  2 0.45910835E+03</rscale>
<asrwt>0</asrwt>
<pdfrwt beam="1">  1       21 0.70186559E-02 0.45910835E+03</pdfrwt>
<pdfrwt beam="2">  1       21 0.16236732E+00 0.45910835E+03</pdfrwt>
<totfact> 0.32663077E+04</totfact>
</mgrwt>
</event>
<event>
 7    0  0.4750554E-002  0.4515237E+03  0.7546771E-02  0.1027269E+00
         21   -1    0    0  502  501  0.00000000000E+00  0.00000000000E+00  0.16258796390E+04  0.16258796390E+04  0.00000000000E+00 0. -1.
         21   -1    0    0  501  502 -0.00000000000E+00 -0.00000000000E+00 -0.31348201350E+02  0.31348201350E+02  0.00000000000E+00 0. -1.
      99926    2    1    2    0    0  0.00000000000E+00  0.00000000000E+00  0.15945314377E+04  0.16572278404E+04  0.45152365296E+03 0.  0.
      99925    2    3    3    0    0  0.57960121271E+02  0.81935861968E+02  0.11707237847E+04  0.12040906692E+04  0.26299676483E+03 0.  0.
         25    1    4    4    0    0  0.46796219660E+02  0.74065106276E+02  0.72712936542E+03  0.74299404324E+03  0.12509000000E+03 0.  0.
         25    1    3    3    0    0 -0.57960121271E+02 -0.81935861968E+02  0.42380765293E+03  0.45313717119E+03  0.12509000000E+03 0.  0.
         25    1    4    4    0    0  0.11163901610E+02  0.78707556924E+01  0.44359441933E+03  0.46109662594E+03  0.12509000000E+03 0.  0.
<mgrwt>
<rscale>  2 0.45152365E+03</rscale>
<asrwt>0</asrwt>
<pdfrwt beam="1">  1       21 0.23909989E+00 0.45152365E+03</pdfrwt>
<pdfrwt beam="2">  1       21 0.46100307E-02 0.45152365E+03</pdfrwt>
<totfact> 0.20720612E+04</totfact>
</mgrwt>
</event>
<event>
 7    0  0.4750554E-002  0.4529444E+03  0.7546771E-02  0.1026848E+00
         21   -1    0    0  502  501  0.00000000000E+00  0.00000000000E+00  0.23405134793E+04  0.23405134793E+04  0.00000000000E+00 0.  1.
         21   -1    0    0  501  502 -0.00000000000E+00 -0.00000000000E+00 -0.21913848876E+02  0.21913848876E+02  0.00000000000E+00 0.  1.
      99926    2    1    2    0    0  0.00000000000E+00  0.00000000000E+00  0.23185996304E+04  0.23624273281E+04  0.45294440575E+03 0.  0.
      99925    2    3    3    0    0  0.93047491049E+02 -0.30777550938E+02  0.17357554200E+04  0.17583081553E+04  0.26305056155E+03 0.  0.
         25    1    4    4    0    0  0.21580652546E+02 -0.33409351661E+02  0.65811197443E+03  0.67107435381E+03  0.12509000000E+03 0.  0.
         25    1    3    3    0    0 -0.93047491049E+02  0.30777550938E+02  0.58284421044E+03  0.60411917282E+03  0.12509000000E+03 0.  0.
         25    1    4    4    0    0  0.71466838503E+02  0.26318007237E+01  0.10776434455E+04  0.10872338015E+04  0.12509000000E+03 0.  0.
<mgrwt>
<rscale>  2 0.45294441E+03</rscale>
<asrwt>0</asrwt>
<pdfrwt beam="1">  1       21 0.34419299E+00 0.45294441E+03</pdfrwt>
<pdfrwt beam="2">  1       21 0.32226264E-02 0.45294441E+03</pdfrwt>
<totfact> 0.87832659E+03</totfact>
</mgrwt>
</event>
<event>
 7    0  0.4750554E-002  0.4587423E+03  0.7546771E-02  0.1025147E+00
         21   -1    0    0  502  501  0.00000000000E+00  0.00000000000E+00  0.37405234983E+03  0.37405234983E+03  0.00000000000E+00 0.  1.
         21   -1    0    0  501  502 -0.00000000000E+00 -0.00000000000E+00 -0.14065174763E+03  0.14065174763E+03  0.00000000000E+00 0.  1.
      99926    2    1    2    0    0  0.00000000000E+00  0.00000000000E+00  0.23340060220E+03  0.51470409746E+03  0.45874226623E+03 0.  0.
      99925    2    3    3    0    0  0.78750516283E+02 -0.85761716883E+02  0.14999963169E+03  0.32454641058E+03  0.26319910185E+03 0.  0.
         25    1    4    4    0    0  0.33649969896E+01 -0.23188541475E+02  0.84040179445E+02  0.15250997188E+03  0.12509000000E+03 0.  0.
         25    1    4    4    0    0  0.75385519294E+02 -0.62573175407E+02  0.65959452247E+02  0.17203643870E+03  0.12509000000E+03 0.  0.
         25    1    3    3    0    0 -0.78750516283E+02  0.85761716883E+02  0.83400970509E+02  0.19015768688E+03  0.12509000000E+03 0.  0.
<mgrwt>
<rscale>  2 0.45874227E+03</rscale>
<asrwt>0</asrwt>
<pdfrwt beam="1">  1       21 0.55007698E-01 0.45874227E+03</pdfrwt>
<pdfrwt beam="2">  1       21 0.20684081E-01 0.45874227E+03</pdfrwt>
<totfact> 0.62376408E+04</totfact>
</mgrwt>
</event>
<event>
 7    0  0.4750554E-002  0.4424923E+03  0.7546771E-02  0.1029985E+00
         21   -1    0    0  502  501  0.00000000000E+00  0.00000000000E+00  0.73549073422E+03  0.73549073422E+03  0.00000000000E+00 0. -1.
         21   -1    0    0  501  502 -0.00000000000E+00 -0.00000000000E+00 -0.66554026202E+02  0.66554026202E+02  0.00000000000E+00 0. -1.
      99926    2    1    2    0    0  0.00000000000E+00  0.88817841970E-15  0.66893670802E+03  0.80204476043E+03  0.44249234840E+03 0.  0.
      99925    2    3    3    0    0 -0.86708336461E+02  0.77924338252E+01  0.33327301384E+03  0.43340308979E+03  0.26303664925E+03 0.  0.
         25    1    4    4    0    0 -0.42087995217E+02 -0.36122662252E+01  0.22831792767E+03  0.26374425493E+03  0.12509000000E+03 0.  0.
         25    1    3    3    0    0  0.86708336461E+02 -0.77924338252E+01  0.33566369418E+03  0.36864167064E+03  0.12509000000E+03 0.  0.
         25    1    4    4    0    0 -0.44620341244E+02  0.11404700050E+02  0.10495508616E+03  0.16965883486E+03  0.12509000000E+03 0.  0.
<mgrwt>
<rscale>  2 0.44249235E+03</rscale>
<asrwt>0</asrwt>
<pdfrwt beam="1">  1       21 0.10816040E+00 0.44249235E+03</pdfrwt>
<pdfrwt beam="2">  1       21 0.97873572E-02 0.44249235E+03</pdfrwt>
<totfact> 0.52646601E+04</totfact>
</mgrwt>
</event>
<event>
 7    0  0.4750554E-002  0.4585201E+03  0.7546771E-02  0.1025211E+00
         21   -1    0    0  502  501  0.00000000000E+00  0.00000000000E+00  0.15588063656E+04  0.15588063656E+04  0.00000000000E+00 0.  1.
         21   -1    0    0  501  502 -0.00000000000E+00 -0.00000000000E+00 -0.33718217404E+02  0.33718217404E+02  0.00000000000E+00 0.  1.
      99926    2    1    2    0    0  0.71054273576E-14  0.00000000000E+00  0.15250881482E+04  0.15925245830E+04  0.45852010611E+03 0.  0.
      99925    2    3    3    0    0  0.41050057297E+02  0.79079420865E+02  0.12135142799E+04  0.12451567009E+04  0.26430974307E+03 0.  0.
         25    1    4    4    0    0  0.39663886303E+02  0.66466097402E+02  0.78124607803E+03  0.79497415588E+03  0.12509000000E+03 0.  0.
         25    1    4    4    0    0  0.13861709940E+01  0.12613323463E+02  0.43226820191E+03  0.45018254507E+03  0.12509000000E+03 0.  0.
         25    1    3    3    0    0 -0.41050057297E+02 -0.79079420865E+02  0.31157386829E+03  0.34736788209E+03  0.12509000000E+03 0.  0.
<mgrwt>
<rscale>  2 0.45852011E+03</rscale>
<asrwt>0</asrwt>
<pdfrwt beam="1">  1       21 0.22923618E+00 0.45852011E+03</pdfrwt>
<pdfrwt beam="2">  1       21 0.49585624E-02 0.45852011E+03</pdfrwt>
<totfact> 0.21018820E+04</totfact>
</mgrwt>
</event>
<event>
 7    0  0.4750554E-002  0.4568590E+03  0.7546771E-02  0.1025696E+00
         21   -1    0    0  502  501  0.00000000000E+00  0.00000000000E+00  0.74044393585E+03  0.74044393585E+03  0.00000000000E+00 0. -1.
         21   -1    0    0  501  502 -0.00000000000E+00 -0.00000000000E+00 -0.70471285358E+02  0.70471285358E+02  0.00000000000E+00 0. -1.
      99926    2    1    2    0    0  0.00000000000E+00  0.00000000000E+00  0.66997265050E+03  0.81091522121E+03  0.45685899748E+03 0.  0.
      99925    2    3    3    0    0  0.10278420566E+03 -0.37599732862E+02  0.47627329412E+03  0.55567948389E+03  0.26450917806E+03 0.  0.
         25    1    3    3    0    0 -0.10278420566E+03  0.37599732862E+02  0.19369935637E+03  0.25523573732E+03  0.12509000000E+03 0.  0.
         25    1    4    4    0    0  0.92533485174E+02 -0.40223401353E+02  0.26974516986E+03  0.31399097544E+03  0.12509000000E+03 0.  0.
         25    1    4    4    0    0  0.10250720487E+02  0.26236684914E+01  0.20652812426E+03  0.24168850845E+03  0.12509000000E+03 0.  0.
<mgrwt>
<rscale>  2 0.45685900E+03</rscale>
<asrwt>0</asrwt>
<pdfrwt beam="1">  1       21 0.10888881E+00 0.45685900E+03</pdfrwt>
<pdfrwt beam="2">  1       21 0.10363425E-01 0.45685900E+03</pdfrwt>
<totfact> 0.46558468E+04</totfact>
</mgrwt>
</event>
<event>
 7    0  0.4750554E-002  0.4552202E+03  0.7546771E-02  0.1026177E+00
         21   -1    0    0  502  501  0.00000000000E+00  0.00000000000E+00  0.32109307516E+03  0.32109307516E+03  0.00000000000E+00 0. -1.
         21   -1    0    0  501  502 -0.00000000000E+00 -0.00000000000E+00 -0.16134372158E+03  0.16134372158E+03  0.00000000000E+00 0. -1.
      99926    2    1    2    0    0  0.00000000000E+00  0.00000000000E+00  0.15974935358E+03  0.48243679674E+03  0.45522017407E+03 0.  0.
      99925    2    3    3    0    0 -0.57177534321E+02  0.70692213389E+02  0.28455164834E+02  0.27957642218E+03  0.26284333731E+03 0.  0.
         25    1    4    4    0    0 -0.62916227529E+01 -0.94184867546E+00  0.13720904603E+02  0.12600096396E+03  0.12509000000E+03 0.  0.
         25    1    3    3    0    0  0.57177534321E+02 -0.70692213389E+02  0.13129418875E+03  0.20286037455E+03  0.12509000000E+03 0.  0.
         25    1    4    4    0    0 -0.50885911569E+02  0.71634062065E+02  0.14734260230E+02  0.15357545822E+03  0.12509000000E+03 0.  0.
<mgrwt>
<rscale>  2 0.45522017E+03</rscale>
<asrwt>0</asrwt>
<pdfrwt beam="1">  1       21 0.47219570E-01 0.45522017E+03</pdfrwt>
<pdfrwt beam="2">  1       21 0.23727018E-01 0.45522017E+03</pdfrwt>
<totfact> 0.66407007E+04</totfact>
</mgrwt>
</event>
<event>
 7    0  0.4750554E-002  0.4554922E+03  0.7546771E-02  0.1026097E+00
         21   -1    0    0  502  501  0.00000000000E+00  0.00000000000E+00  0.65617195923E+02  0.65617195923E+02  0.00000000000E+00 0.  1.
         21   -1    0    0  501  502 -0.00000000000E+00 -0.00000000000E+00 -0.79046795599E+03  0.79046795599E+03  0.00000000000E+00 0.  1.
      99926    2    1    2    0    0  0.00000000000E+00  0.00000000000E+00 -0.72485076007E+03  0.85608515191E+03  0.45549222052E+03 0.  0.
      99925    2    3    3    0    0  0.10438206441E+03 -0.25793932978E+02 -0.52489765598E+03  0.59687540232E+03  0.26302424659E+03 0.  0.
         25    1    3    3    0    0 -0.10438206441E+03  0.25793932978E+02 -0.19995310409E+03  0.25920974959E+03  0.12509000000E+03 0.  0.
         25    1    4    4    0    0  0.50640638331E+02 -0.10852305911E+02 -0.17593862883E+03  0.22200035137E+03  0.12509000000E+03 0.  0.
         25    1    4    4    0    0  0.53741426079E+02 -0.14941627067E+02 -0.34895902715E+03  0.37487505095E+03  0.12509000000E+03 0.  0.
<mgrwt>
<rscale>  2 0.45549222E+03</rscale>
<asrwt>0</asrwt>
<pdfrwt beam="1">  1       21 0.96495878E-02 0.45549222E+03</pdfrwt>
<pdfrwt beam="2">  1       21 0.11624529E+00 0.45549222E+03</pdfrwt>
<totfact> 0.44994399E+04</totfact>
</mgrwt>
</event>
<event>
 7    0  0.4750554E-002  0.4206450E+03  0.7546771E-02  0.1036857E+00
         21   -1    0    0  502  501  0.00000000000E+00  0.00000000000E+00  0.16934969225E+03  0.16934969225E+03  0.00000000000E+00 0. -1.
         21   -1    0    0  501  502 -0.00000000000E+00 -0.00000000000E+00 -0.26120839496E+03  0.26120839496E+03  0.00000000000E+00 0. -1.
      99926    2    1    2    0    0  0.00000000000E+00  0.00000000000E+00 -0.91858702708E+02  0.43055808722E+03  0.42064503468E+03 0.  0.
      99925    2    3    3    0    0  0.44372420696E+02  0.51346901327E+02 -0.96454848060E+02  0.28817111925E+03  0.26293276757E+03 0.  0.
         25    1    4    4    0    0  0.10748869221E+02  0.55764910135E+02 -0.75884577113E+02  0.15694343100E+03  0.12509000000E+03 0.  0.
         25    1    4    4    0    0  0.33623551475E+02 -0.44180088080E+01 -0.20570270947E+02  0.13122768825E+03  0.12509000000E+03 0.  0.
         25    1    3    3    0    0 -0.44372420696E+02 -0.51346901327E+02  0.45961453526E+01  0.14238696797E+03  0.12509000000E+03 0.  0.
<mgrwt>
<rscale>  2 0.42064503E+03</rscale>
<asrwt>0</asrwt>
<pdfrwt beam="1">  1       21 0.24904367E-01 0.42064503E+03</pdfrwt>
<pdfrwt beam="2">  1       21 0.38412999E-01 0.42064503E+03</pdfrwt>
<totfact> 0.93469195E+04</totfact>
</mgrwt>
</event>
<event>
 7    0  0.4750554E-002  0.4506043E+03  0.7546771E-02  0.1027542E+00
         21   -1    0    0  502  501  0.00000000000E+00  0.00000000000E+00  0.66783065199E+02  0.66783065199E+02  0.00000000000E+00 0. -1.
         21   -1    0    0  501  502 -0.00000000000E+00 -0.00000000000E+00 -0.76008867789E+03  0.76008867789E+03  0.00000000000E+00 0. -1.
      99926    2    1    2    0    0  0.00000000000E+00  0.00000000000E+00 -0.69330561269E+03  0.82687174308E+03  0.45060426865E+03 0.  0.
      99925    2    3    3    0    0 -0.32703389897E+02  0.89529141832E+02 -0.53593289459E+03  0.60438880116E+03  0.26263430186E+03 0.  0.
         25    1    3    3    0    0  0.32703389897E+02 -0.89529141832E+02 -0.15737271809E+03  0.22248294192E+03  0.12509000000E+03 0.  0.
         25    1    4    4    0    0 -0.49151185702E+02  0.24074411211E+02 -0.24091809527E+03  0.27691957869E+03  0.12509000000E+03 0.  0.
         25    1    4    4    0    0  0.16447795805E+02  0.65454730620E+02 -0.29501479932E+03  0.32746922247E+03  0.12509000000E+03 0.  0.
<mgrwt>
<rscale>  2 0.45060427E+03</rscale>
<asrwt>0</asrwt>
<pdfrwt beam="1">  1       21 0.98210396E-02 0.45060427E+03</pdfrwt>
<pdfrwt beam="2">  1       21 0.11177774E+00 0.45060427E+03</pdfrwt>
<totfact> 0.48131057E+04</totfact>
</mgrwt>
</event>
<event>
 7    0  0.4750554E-002  0.4521593E+03  0.7546771E-02  0.1027080E+00
         21   -1    0    0  502  501  0.00000000000E+00  0.00000000000E+00  0.58886100163E+03  0.58886100163E+03  0.00000000000E+00 0.  1.
         21   -1    0    0  501  502 -0.00000000000E+00 -0.00000000000E+00 -0.86798072308E+02  0.86798072308E+02  0.00000000000E+00 0.  1.
      99926    2    1    2    0    0  0.00000000000E+00  0.00000000000E+00  0.50206292932E+03  0.67565907394E+03  0.45215926309E+03 0.  0.
      99925    2    3    3    0    0 -0.87943542839E+02 -0.61631043845E+02  0.35579094497E+03  0.45526067603E+03  0.26294987037E+03 0.  0.
         25    1    4    4    0    0 -0.82951045276E+01 -0.49553094043E+02  0.15643347369E+03  0.20650243989E+03  0.12509000000E+03 0.  0.
         25    1    4    4    0    0 -0.79648438311E+02 -0.12077949803E+02  0.19935747127E+03  0.24875823614E+03  0.12509000000E+03 0.  0.
         25    1    3    3    0    0  0.87943542839E+02  0.61631043845E+02  0.14627198436E+03  0.22039839791E+03  0.12509000000E+03 0.  0.
<mgrwt>
<rscale>  2 0.45215926E+03</rscale>
<asrwt>0</asrwt>
<pdfrwt beam="1">  1       21 0.86597205E-01 0.45215926E+03</pdfrwt>
<pdfrwt beam="2">  1       21 0.12764423E-01 0.45215926E+03</pdfrwt>
<totfact> 0.55475867E+04</totfact>
</mgrwt>
</event>
<event>
 7    0  0.4750554E-002  0.4510815E+03  0.7546771E-02  0.1027400E+00
         21   -1    0    0  502  501  0.00000000000E+00  0.00000000000E+00  0.44709288208E+03  0.44709288208E+03  0.00000000000E+00 0. -1.
         21   -1    0    0  501  502 -0.00000000000E+00 -0.00000000000E+00 -0.11377640568E+03  0.11377640568E+03  0.00000000000E+00 0. -1.
      99926    2    1    2    0    0  0.00000000000E+00  0.00000000000E+00  0.33331647640E+03  0.56086928776E+03  0.45108146106E+03 0.  0.
      99925    2    3    3    0    0  0.69533240901E+02  0.56610680530E+02  0.13246062897E+03  0.30782735391E+03  0.26300612321E+03 0.  0.
         25    1    4    4    0    0  0.62895540065E+02  0.53159205706E+02  0.93681581886E+02  0.17665077695E+03  0.12509000000E+03 0.  0.
         25    1    4    4    0    0  0.66377008363E+01  0.34514748242E+01  0.38779047079E+02  0.13117657696E+03  0.12509000000E+03 0.  0.
         25    1    3    3    0    0 -0.69533240901E+02 -0.56610680530E+02  0.20085584743E+03  0.25304193385E+03  0.12509000000E+03 0.  0.
<mgrwt>
<rscale>  2 0.45108146E+03</rscale>
<asrwt>0</asrwt>
<pdfrwt beam="1">  1       21 0.65748953E-01 0.45108146E+03</pdfrwt>
<pdfrwt beam="2">  1       21 0.16731824E-01 0.45108146E+03</pdfrwt>
<totfact> 0.63086627E+04</totfact>
</mgrwt>
</event>
<event>
 7    0  0.4750554E-002  0.4577649E+03  0.7546771E-02  0.1025431E+00
         21   -1    0    0  502  501  0.00000000000E+00  0.00000000000E+00  0.94655218592E+02  0.94655218592E+02  0.00000000000E+00 0. -1.
         21   -1    0    0  501  502 -0.00000000000E+00 -0.00000000000E+00 -0.55345255195E+03  0.55345255195E+03  0.00000000000E+00 0. -1.
      99926    2    1    2    0    0  0.00000000000E+00  0.00000000000E+00 -0.45879733336E+03  0.64810777054E+03  0.45776488413E+03 0.  0.
      99925    2    3    3    0    0 -0.26620425138E+02  0.75348101350E+02 -0.40530960084E+03  0.49032808541E+03  0.26412075911E+03 0.  0.
         25    1    4    4    0    0 -0.43691404976E+02  0.40217612397E+02 -0.15538547725E+03  0.20813108816E+03  0.12509000000E+03 0.  0.
         25    1    4    4    0    0  0.17070979838E+02  0.35130488953E+02 -0.24992412359E+03  0.28219699725E+03  0.12509000000E+03 0.  0.
         25    1    3    3    0    0  0.26620425138E+02 -0.75348101350E+02 -0.53487732518E+02  0.15777968514E+03  0.12509000000E+03 0.  0.
<mgrwt>
<rscale>  2 0.45776488E+03</rscale>
<asrwt>0</asrwt>
<pdfrwt beam="1">  1       21 0.13919885E-01 0.45776488E+03</pdfrwt>
<pdfrwt beam="2">  1       21 0.81390080E-01 0.45776488E+03</pdfrwt>
<totfact> 0.54609597E+04</totfact>
</mgrwt>
</event>
<event>
 7    0  0.4750554E-002  0.4565805E+03  0.7546771E-02  0.1025778E+00
         21   -1    0    0  502  501  0.00000000000E+00  0.00000000000E+00  0.39048108522E+03  0.39048108522E+03  0.00000000000E+00 0.  1.
         21   -1    0    0  501  502 -0.00000000000E+00 -0.00000000000E+00 -0.13346723354E+03  0.13346723354E+03  0.00000000000E+00 0.  1.
      99926    2    1    2    0    0  0.00000000000E+00  0.00000000000E+00  0.25701385167E+03  0.52394831876E+03  0.45658046473E+03 0.  0.
      99925    2    3    3    0    0 -0.95945236197E+02  0.51747623912E+02  0.20344457598E+03  0.34959098359E+03  0.26256590673E+03 0.  0.
         25    1    4    4    0    0 -0.56628524802E+02  0.60735292100E+02  0.84278082872E+02  0.17217975746E+03  0.12509000000E+03 0.  0.
         25    1    3    3    0    0  0.95945236197E+02 -0.51747623912E+02  0.53569275695E+02  0.17435733517E+03  0.12509000000E+03 0.  0.
         25    1    4    4    0    0 -0.39316711395E+02 -0.89876681880E+01  0.11916649311E+03  0.17741122612E+03  0.12509000000E+03 0.  0.
<mgrwt>
<rscale>  2 0.45658046E+03</rscale>
<asrwt>0</asrwt>
<pdfrwt beam="1">  1       21 0.57423689E-01 0.45658046E+03</pdfrwt>
<pdfrwt beam="2">  1       21 0.19627534E-01 0.45658046E+03</pdfrwt>
<totfact> 0.62827113E+04</totfact>
</mgrwt>
</event>
<event>
 7    0  0.4750554E-002  0.4545919E+03  0.7546771E-02  0.1026361E+00
         21   -1    0    0  502  501  0.00000000000E+00  0.00000000000E+00  0.15380614914E+04  0.15380614914E+04  0.00000000000E+00 0. -1.
         21   -1    0    0  501  502 -0.00000000000E+00 -0.00000000000E+00 -0.33589974834E+02  0.33589974834E+02  0.00000000000E+00 0. -1.
      99926    2    1    2    0    0  0.00000000000E+00  0.00000000000E+00  0.15044715166E+04  0.15716514663E+04  0.45459189078E+03 0.  0.
      99925    2    3    3    0    0 -0.44516217192E+02 -0.80266781064E+02  0.72208155921E+03  0.77402623894E+03  0.26323067962E+03 0.  0.
         25    1    4    4    0    0 -0.26743604236E+01 -0.73892165146E+02  0.41692734650E+03  0.44152363994E+03  0.12509000000E+03 0.  0.
         25    1    3    3    0    0  0.44516217192E+02  0.80266781064E+02  0.78238995740E+03  0.79762522733E+03  0.12509000000E+03 0.  0.
         25    1    4    4    0    0 -0.41841856768E+02 -0.63746159176E+01  0.30515421271E+03  0.33250259900E+03  0.12509000000E+03 0.  0.
<mgrwt>
<rscale>  2 0.45459189E+03</rscale>
<asrwt>0</asrwt>
<pdfrwt beam="1">  1       21 0.22618547E+00 0.45459189E+03</pdfrwt>
<pdfrwt beam="2">  1       21 0.49397032E-02 0.45459189E+03</pdfrwt>
<totfact> 0.22146548E+04</totfact>
</mgrwt>
</event>
<event>
 7    0  0.4750554E-002  0.4546049E+03  0.7546771E-02  0.1026358E+00
         21   -1    0    0  502  501  0.00000000000E+00  0.00000000000E+00  0.16674783611E+03  0.16674783611E+03  0.00000000000E+00 0.  1.
         21   -1    0    0  501  502 -0.00000000000E+00 -0.00000000000E+00 -0.30984745816E+03  0.30984745816E+03  0.00000000000E+00 0.  1.
      99926    2    1    2    0    0  0.00000000000E+00 -0.71054273576E-14 -0.14309962205E+03  0.47659529427E+03  0.45460485334E+03 0.  0.
      99925    2    3    3    0    0 -0.49051666477E+02  0.43403205296E+02  0.61147748419E+01  0.27116319221E+03  0.26306307632E+03 0.  0.
         25    1    3    3    0    0  0.49051666477E+02 -0.43403205296E+02 -0.14921439689E+03  0.20543210205E+03  0.12509000000E+03 0.  0.
         25    1    4    4    0    0 -0.43415725753E+02  0.58775744569E+02  0.23313795491E+00  0.14486916803E+03  0.12509000000E+03 0.  0.
         25    1    4    4    0    0 -0.56359407242E+01 -0.15372539272E+02  0.58816368870E+01  0.12629402418E+03  0.12509000000E+03 0.  0.
<mgrwt>
<rscale>  2 0.45460485E+03</rscale>
<asrwt>0</asrwt>
<pdfrwt beam="1">  1       21 0.24521741E-01 0.45460485E+03</pdfrwt>
<pdfrwt beam="2">  1       21 0.45565802E-01 0.45460485E+03</pdfrwt>
<totfact> 0.67159150E+04</totfact>
</mgrwt>
</event>
<event>
 7    0  0.4750554E-002  0.4261746E+03  0.7546771E-02  0.1035075E+00
         21   -1    0    0  502  501  0.00000000000E+00  0.00000000000E+00  0.15897317337E+03  0.15897317337E+03  0.00000000000E+00 0.  1.
         21   -1    0    0  501  502 -0.00000000000E+00 -0.00000000000E+00 -0.28562172984E+03  0.28562172984E+03  0.00000000000E+00 0.  1.
      99926    2    1    2    0    0  0.00000000000E+00  0.14210854715E-13 -0.12664855647E+03  0.44459490321E+03  0.42617457820E+03 0.  0.
      99925    2    3    3    0    0 -0.72712191958E+01  0.80466834110E+02 -0.60275019687E+02  0.28155890563E+03  0.26289647644E+03 0.  0.
         25    1    3    3    0    0  0.72712191958E+01 -0.80466834110E+02 -0.66373536782E+02  0.16303599757E+03  0.12509000000E+03 0.  0.
         25    1    4    4    0    0  0.28132466703E+02  0.19265390032E+02 -0.44165248980E+02  0.13696958879E+03  0.12509000000E+03 0.  0.
         25    1    4    4    0    0 -0.35403685899E+02  0.61201444078E+02 -0.16109770707E+02  0.14458931684E+03  0.12509000000E+03 0.  0.
<mgrwt>
<rscale>  2 0.42617458E+03</rscale>
<asrwt>0</asrwt>
<pdfrwt beam="1">  1       21 0.23378408E-01 0.42617458E+03</pdfrwt>
<pdfrwt beam="2">  1       21 0.42003195E-01 0.42617458E+03</pdfrwt>
<totfact> 0.87795226E+04</totfact>
</mgrwt>
</event>
<event>
 7    0  0.4750554E-002  0.4792039E+03  0.7546771E-02  0.1019354E+00
         21   -1    0    0  502  501  0.00000000000E+00  0.00000000000E+00  0.69236811205E+03  0.69236811205E+03  0.00000000000E+00 0. -1.
         21   -1    0    0  501  502 -0.00000000000E+00 -0.00000000000E+00 -0.82917021285E+02  0.82917021285E+02  0.00000000000E+00 0. -1.
      99926    2    1    2    0    0  0.14210854715E-13  0.00000000000E+00  0.60945109076E+03  0.77528513333E+03  0.47920392938E+03 0.  0.
      99925    2    3    3    0    0 -0.80286888700E+02 -0.10795609023E+03  0.38581930957E+03  0.48587334440E+03  0.26289896394E+03 0.  0.
         25    1    3    3    0    0  0.80286888700E+02  0.10795609023E+03  0.22363178119E+03  0.28941178893E+03  0.12509000000E+03 0.  0.
         25    1    4    4    0    0 -0.46471126434E+02 -0.59042569620E+02  0.26294136521E+03  0.30071790811E+03  0.12509000000E+03 0.  0.
         25    1    4    4    0    0 -0.33815762265E+02 -0.48913520613E+02  0.12287794436E+03  0.18515543628E+03  0.12509000000E+03 0.  0.
<mgrwt>
<rscale>  2 0.47920393E+03</rscale>
<asrwt>0</asrwt>
<pdfrwt beam="1">  1       21 0.10181884E+00 0.47920393E+03</pdfrwt>
<pdfrwt beam="2">  1       21 0.12193680E-01 0.47920393E+03</pdfrwt>
<totfact> 0.40685274E+04</totfact>
</mgrwt>
</event>
<event>
 7    0  0.4750554E-002  0.4585369E+03  0.7546771E-02  0.1025206E+00
         21   -1    0    0  502  501  0.00000000000E+00  0.00000000000E+00  0.53951794541E+02  0.53951794541E+02  0.00000000000E+00 0.  1.
         21   -1    0    0  501  502 -0.00000000000E+00 -0.00000000000E+00 -0.97427771014E+03  0.97427771014E+03  0.00000000000E+00 0.  1.
      99926    2    1    2    0    0  0.14210854715E-13 -0.14210854715E-13 -0.92032591560E+03  0.10282295047E+04  0.45853693785E+03 0.  0.
      99925    2    3    3    0    0 -0.94208762812E+02  0.67673777879E+02 -0.56553332869E+03  0.63455410663E+03  0.26339312288E+03 0.  0.
         25    1    4    4    0    0 -0.18667993199E+02  0.58351423650E+02 -0.31395599312E+03  0.34346652869E+03  0.12509000000E+03 0.  0.
         25    1    4    4    0    0 -0.75540769613E+02  0.93223542282E+01 -0.25157733557E+03  0.29108757795E+03  0.12509000000E+03 0.  0.
         25    1    3    3    0    0  0.94208762812E+02 -0.67673777879E+02 -0.35479258691E+03  0.39367539805E+03  0.12509000000E+03 0.  0.
<mgrwt>
<rscale>  2 0.45853694E+03</rscale>
<asrwt>0</asrwt>
<pdfrwt beam="1">  1       21 0.79340878E-02 0.45853694E+03</pdfrwt>
<pdfrwt beam="2">  1       21 0.14327613E+00 0.45853694E+03</pdfrwt>
<totfact> 0.37052731E+04</totfact>
</mgrwt>
</event>
<event>
 7    0  0.4750554E-002  0.4597167E+03  0.7546771E-02  0.1024863E+00
         21   -1    0    0  502  501  0.00000000000E+00  0.00000000000E+00  0.24591386779E+02  0.24591386779E+02  0.00000000000E+00 0.  1.
         21   -1    0    0  501  502 -0.00000000000E+00 -0.00000000000E+00 -0.21485112629E+04  0.21485112629E+04  0.00000000000E+00 0.  1.
      99926    2    1    2    0    0 -0.46629367034E-14  0.00000000000E+00 -0.21239198762E+04  0.21731026497E+04  0.45971674525E+03 0.  0.
      99925    2    3    3    0    0  0.14215148947E+01  0.10877074247E+03 -0.11215775321E+04  0.11571445906E+04  0.26308619859E+03 0.  0.
         25    1    4    4    0    0 -0.33210645721E+02  0.73609402871E+02 -0.53342458057E+03  0.55381457405E+03  0.12509000000E+03 0.  0.
         25    1    3    3    0    0 -0.14215148947E+01 -0.10877074247E+03 -0.10023423440E+04  0.10159580591E+04  0.12509000000E+03 0.  0.
         25    1    4    4    0    0  0.34632160615E+02  0.35161339599E+02 -0.58815295158E+03  0.60333001657E+03  0.12509000000E+03 0.  0.
<mgrwt>
<rscale>  2 0.45971675E+03</rscale>
<asrwt>0</asrwt>
<pdfrwt beam="1">  1       21 0.36163792E-02 0.45971675E+03</pdfrwt>
<pdfrwt beam="2">  1       21 0.31595764E+00 0.45971675E+03</pdfrwt>
<totfact> 0.10687091E+04</totfact>
</mgrwt>
</event>
<event>
 7    0  0.4750554E-002  0.4578747E+03  0.7546771E-02  0.1025399E+00
         21   -1    0    0  502  501  0.00000000000E+00  0.00000000000E+00  0.61646692124E+03  0.61646692124E+03  0.00000000000E+00 0.  1.
         21   -1    0    0  501  502 -0.00000000000E+00 -0.00000000000E+00 -0.85020486697E+02  0.85020486697E+02  0.00000000000E+00 0.  1.
      99926    2    1    2    0    0  0.71054273576E-14  0.14210854715E-13  0.53144643455E+03  0.70148740794E+03  0.45787473255E+03 0.  0.
      99925    2    3    3    0    0  0.38827744668E+02  0.10903404108E+03  0.32697662001E+03  0.43530809051E+03  0.26302738975E+03 0.  0.
         25    1    3    3    0    0 -0.38827744668E+02 -0.10903404108E+03  0.20446981453E+03  0.26617931743E+03  0.12509000000E+03 0.  0.
         25    1    4    4    0    0  0.48437274940E+02  0.34241944711E+02  0.18983732186E+03  0.23495616027E+03  0.12509000000E+03 0.  0.
         25    1    4    4    0    0 -0.96095302728E+01  0.74792096371E+02  0.13713929816E+03  0.20035193024E+03  0.12509000000E+03 0.  0.
<mgrwt>
<rscale>  2 0.45787473E+03</rscale>
<asrwt>0</asrwt>
<pdfrwt beam="1">  1       21 0.90656898E-01 0.45787473E+03</pdfrwt>
<pdfrwt beam="2">  1       21 0.12503013E-01 0.45787473E+03</pdfrwt>
<totfact> 0.51643984E+04</totfact>
</mgrwt>
</event>
<event>
 7    0  0.4750554E-002  0.4587985E+03  0.7546771E-02  0.1025130E+00
         21   -1    0    0  502  501  0.00000000000E+00  0.00000000000E+00  0.18434202571E+02  0.18434202571E+02  0.00000000000E+00 0. -1.
         21   -1    0    0  501  502 -0.00000000000E+00 -0.00000000000E+00 -0.28546944399E+04  0.28546944399E+04  0.00000000000E+00 0. -1.
      99926    2    1    2    0    0  0.00000000000E+00  0.00000000000E+00 -0.28362602374E+04  0.28731286425E+04  0.45879849863E+03 0.  0.
      99925    2    3    3    0    0 -0.87945252675E+02  0.48770430314E+02 -0.14089034478E+04  0.14367763754E+04  0.26306749212E+03 0.  0.
         25    1    4    4    0    0 -0.49495041763E+02  0.20020238191E+02 -0.50491494188E+03  0.52291220652E+03  0.12509000000E+03 0.  0.
         25    1    4    4    0    0 -0.38450210911E+02  0.28750192123E+02 -0.90398850592E+03  0.91386416890E+03  0.12509000000E+03 0.  0.
         25    1    3    3    0    0  0.87945252675E+02 -0.48770430314E+02 -0.14273567896E+04  0.14363522671E+04  0.12509000000E+03 0.  0.
<mgrwt>
<rscale>  2 0.45879850E+03</rscale>
<asrwt>0</asrwt>
<pdfrwt beam="1">  1       21 0.27109123E-02 0.45879850E+03</pdfrwt>
<pdfrwt beam="2">  1       21 0.41980799E+00 0.45879850E+03</pdfrwt>
<totfact> 0.39013063E+03</totfact>
</mgrwt>
</event>
<event>
 7    0  0.4750554E-002  0.4567165E+03  0.7546771E-02  0.1025738E+00
         21   -1    0    0  502  501  0.00000000000E+00  0.00000000000E+00  0.13520077826E+04  0.13520077826E+04  0.00000000000E+00 0. -1.
         21   -1    0    0  501  502 -0.00000000000E+00 -0.00000000000E+00 -0.38570399435E+02  0.38570399435E+02  0.00000000000E+00 0. -1.
      99926    2    1    2    0    0  0.00000000000E+00  0.00000000000E+00  0.13134373832E+04  0.13905781821E+04  0.45671645565E+03 0.  0.
      99925    2    3    3    0    0  0.33659011309E+02  0.46789700390E+02  0.11273223476E+04  0.11590430451E+04  0.26306444025E+03 0.  0.
         25    1    3    3    0    0 -0.33659011309E+02 -0.46789700390E+02  0.18611503555E+03  0.23153513699E+03  0.12509000000E+03 0.  0.
         25    1    4    4    0    0  0.43947154017E+00  0.29269741412E+02  0.71755763433E+03  0.72896733643E+03  0.12509000000E+03 0.  0.
         25    1    4    4    0    0  0.33219539768E+02  0.17519958979E+02  0.40976471332E+03  0.43007570864E+03  0.12509000000E+03 0.  0.
<mgrwt>
<rscale>  2 0.45671646E+03</rscale>
<asrwt>0</asrwt>
<pdfrwt beam="1">  1       21 0.19882464E+00 0.45671646E+03</pdfrwt>
<pdfrwt beam="2">  1       21 0.56721185E-02 0.45671646E+03</pdfrwt>
<totfact> 0.26232488E+04</totfact>
</mgrwt>
</event>
<event>
 7    0  0.4750554E-002  0.4659297E+03  0.7546771E-02  0.1023075E+00
         21   -1    0    0  502  501  0.00000000000E+00  0.00000000000E+00  0.23560813342E+03  0.23560813342E+03  0.00000000000E+00 0. -1.
         21   -1    0    0  501  502 -0.00000000000E+00 -0.00000000000E+00 -0.23035121031E+03  0.23035121031E+03  0.00000000000E+00 0. -1.
      99926    2    1    2    0    0  0.00000000000E+00  0.14210854715E-13  0.52569231112E+01  0.46595934374E+03  0.46592968866E+03 0.  0.
      99925    2    3    3    0    0 -0.17124723192E+02 -0.66972388600E+02 -0.98364407657E+02  0.28942763194E+03  0.26327597775E+03 0.  0.
         25    1    3    3    0    0  0.17124723192E+02  0.66972388600E+02  0.10362133077E+03  0.17653171180E+03  0.12509000000E+03 0.  0.
         25    1    4    4    0    0  0.15862495785E+02 -0.29541459159E+02 -0.13410570714E+02  0.13019857176E+03  0.12509000000E+03 0.  0.
         25    1    4    4    0    0 -0.32987218977E+02 -0.37430929441E+02 -0.84953836943E+02  0.15922906018E+03  0.12509000000E+03 0.  0.
<mgrwt>
<rscale>  2 0.46592969E+03</rscale>
<asrwt>0</asrwt>
<pdfrwt beam="1">  1       21 0.34648255E-01 0.46592969E+03</pdfrwt>
<pdfrwt beam="2">  1       21 0.33875178E-01 0.46592969E+03</pdfrwt>
<totfact> 0.62150821E+04</totfact>
</mgrwt>
</event>
<event>
 7    0  0.4750554E-002  0.4542047E+03  0.7546771E-02  0.1026476E+00
         21   -1    0    0  502  501  0.00000000000E+00  0.00000000000E+00  0.62072085275E+02  0.62072085275E+02  0.00000000000E+00 0. -1.
         21   -1    0    0  501  502 -0.00000000000E+00 -0.00000000000E+00 -0.83089645920E+03  0.83089645920E+03  0.00000000000E+00 0. -1.
      99926    2    1    2    0    0  0.00000000000E+00  0.00000000000E+00 -0.76882437393E+03  0.89296854448E+03  0.45420469337E+03 0.  0.
      99925    2    3    3    0    0  0.24874289320E+02  0.95478527901E+02 -0.37672497750E+03  0.46973772762E+03  0.26267269466E+03 0.  0.
         25    1    4    4    0    0  0.57942848463E+01  0.16114519889E+02 -0.12926708392E+03  0.18069515370E+03  0.12509000000E+03 0.  0.
         25    1    4    4    0    0  0.19080004473E+02  0.79364008013E+02 -0.24745789359E+03  0.28904257392E+03  0.12509000000E+03 0.  0.
         25    1    3    3    0    0 -0.24874289320E+02 -0.95478527901E+02 -0.39209939643E+03  0.42323081686E+03  0.12509000000E+03 0.  0.
<mgrwt>
<rscale>  2 0.45420469E+03</rscale>
<asrwt>0</asrwt>
<pdfrwt beam="1">  1       21 0.91282482E-02 0.45420469E+03</pdfrwt>
<pdfrwt beam="2">  1       21 0.12219065E+00 0.45420469E+03</pdfrwt>
<totfact> 0.43811295E+04</totfact>
</mgrwt>
</event>
<event>
 7    0  0.4750554E-002  0.4506235E+03  0.7546771E-02  0.1027536E+00
         21   -1    0    0  502  501  0.00000000000E+00  0.00000000000E+00  0.17171805707E+03  0.17171805707E+03  0.00000000000E+00 0. -1.
         21   -1    0    0  501  502 -0.00000000000E+00 -0.00000000000E+00 -0.29563215406E+03  0.29563215406E+03  0.00000000000E+00 0. -1.
      99926    2    1    2    0    0  0.00000000000E+00  0.00000000000E+00 -0.12391409699E+03  0.46735021113E+03  0.45062347521E+03 0.  0.
      99925    2    3    3    0    0 -0.24917827557E+02 -0.18052834984E+02 -0.18761541861E+03  0.32364158419E+03  0.26191129554E+03 0.  0.
         25    1    3    3    0    0  0.24917827557E+02  0.18052834984E+02  0.63701321623E+02  0.14370862694E+03  0.12509000000E+03 0.  0.
         25    1    4    4    0    0 -0.39810146827E+02 -0.33871079568E+01 -0.62285613868E+02  0.14533865998E+03  0.12509000000E+03 0.  0.
         25    1    4    4    0    0  0.14892319270E+02 -0.14665727027E+02 -0.12532980474E+03  0.17830292420E+03  0.12509000000E+03 0.  0.
<mgrwt>
<rscale>  2 0.45062348E+03</rscale>
<asrwt>0</asrwt>
<pdfrwt beam="1">  1       21 0.25252656E-01 0.45062348E+03</pdfrwt>
<pdfrwt beam="2">  1       21 0.43475317E-01 0.45062348E+03</pdfrwt>
<totfact> 0.70033451E+04</totfact>
</mgrwt>
</event>
<event>
 7    0  0.4750554E-002  0.4531896E+03  0.7546771E-02  0.1026775E+00
         21   -1    0    0  502  501  0.00000000000E+00  0.00000000000E+00  0.21229471089E+03  0.21229471089E+03  0.00000000000E+00 0. -1.
         21   -1    0    0  501  502 -0.00000000000E+00 -0.00000000000E+00 -0.24185809688E+03  0.24185809688E+03  0.00000000000E+00 0. -1.
      99926    2    1    2    0    0  0.00000000000E+00  0.00000000000E+00 -0.29563385998E+02  0.45415280777E+03  0.45318956190E+03 0.  0.
      99925    2    3    3    0    0 -0.24510672804E+02  0.72082707564E+02  0.63014578791E+02  0.28090478476E+03  0.26294480628E+03 0.  0.
         25    1    4    4    0    0  0.14721790845E+02  0.56792711786E+02  0.54886731749E+02  0.14866810236E+03  0.12509000000E+03 0.  0.
         25    1    3    3    0    0  0.24510672804E+02 -0.72082707564E+02 -0.92577964790E+02  0.17324802301E+03  0.12509000000E+03 0.  0.
         25    1    4    4    0    0 -0.39232463649E+02  0.15289995778E+02  0.81278470426E+01  0.13223668240E+03  0.12509000000E+03 0.  0.
<mgrwt>
<rscale>  2 0.45318956E+03</rscale>
<asrwt>0</asrwt>
<pdfrwt beam="1">  1       21 0.31219811E-01 0.45318956E+03</pdfrwt>
<pdfrwt beam="2">  1       21 0.35567367E-01 0.45318956E+03</pdfrwt>
<totfact> 0.69608011E+04</totfact>
</mgrwt>
</event>
<event>
 7    0  0.4750554E-002  0.4563279E+03  0.7546771E-02  0.1025852E+00
         21   -1    0    0  502  501  0.00000000000E+00  0.00000000000E+00  0.37599019190E+03  0.37599019190E+03  0.00000000000E+00 0.  1.
         21   -1    0    0  501  502 -0.00000000000E+00 -0.00000000000E+00 -0.13845785319E+03  0.13845785319E+03  0.00000000000E+00 0.  1.
      99926    2    1    2    0    0 -0.35527136788E-14  0.14210854715E-13  0.23753233870E+03  0.51444804509E+03  0.45632792942E+03 0.  0.
      99925    2    3    3    0    0 -0.23952210042E+02  0.83211203313E+02  0.23360946318E+03  0.36226161411E+03  0.26298722982E+03 0.  0.
         25    1    4    4    0    0  0.17147053126E+02  0.29839289844E+02  0.14614185777E+03  0.19542096955E+03  0.12509000000E+03 0.  0.
         25    1    3    3    0    0  0.23952210042E+02 -0.83211203313E+02  0.39228755259E+01  0.15218643098E+03  0.12509000000E+03 0.  0.
         25    1    4    4    0    0 -0.41099263168E+02  0.53371913470E+02  0.87467605409E+02  0.16684064456E+03  0.12509000000E+03 0.  0.
<mgrwt>
<rscale>  2 0.45632793E+03</rscale>
<asrwt>0</asrwt>
<pdfrwt beam="1">  1       21 0.55292675E-01 0.45632793E+03</pdfrwt>
<pdfrwt beam="2">  1       21 0.20361449E-01 0.45632793E+03</pdfrwt>
<totfact> 0.63594320E+04</totfact>
</mgrwt>
</event>
<event>
 7    0  0.4750554E-002  0.4636830E+03  0.7546771E-02  0.1023718E+00
         21   -1    0    0  502  501  0.00000000000E+00  0.00000000000E+00  0.10495348380E+04  0.10495348380E+04  0.00000000000E+00 0.  1.
         21   -1    0    0  501  502 -0.00000000000E+00 -0.00000000000E+00 -0.51213629506E+02  0.51213629506E+02  0.00000000000E+00 0.  1.
      99926    2    1    2    0    0  0.00000000000E+00  0.00000000000E+00  0.99832120851E+03  0.11007484675E+04  0.46368303116E+03 0.  0.
      99925    2    3    3    0    0  0.80925099783E+02 -0.85982829848E+02  0.56085755253E+03  0.63068051796E+03  0.26316307244E+03 0.  0.
         25    1    4    4    0    0  0.62510819958E+02 -0.58574587952E+02  0.37249474436E+03  0.40216716380E+03  0.12509000000E+03 0.  0.
         25    1    4    4    0    0  0.18414279825E+02 -0.27408241895E+02  0.18836280817E+03  0.22851335416E+03  0.12509000000E+03 0.  0.
         25    1    3    3    0    0 -0.80925099783E+02  0.85982829848E+02  0.43746365598E+03  0.47006794956E+03  0.12509000000E+03 0.  0.
<mgrwt>
<rscale>  2 0.46368303E+03</rscale>
<asrwt>0</asrwt>
<pdfrwt beam="1">  1       21 0.15434334E+00 0.46368303E+03</pdfrwt>
<pdfrwt beam="2">  1       21 0.75314168E-02 0.46368303E+03</pdfrwt>
<totfact> 0.33164253E+04</totfact>
</mgrwt>
</event>
<event>
 7    0  0.4750554E-002  0.4515154E+03  0.7546771E-02  0.1027271E+00
         21   -1    0    0  502  501  0.00000000000E+00  0.00000000000E+00  0.54702975548E+03  0.54702975548E+03  0.00000000000E+00 0.  1.
         21   -1    0    0  501  502 -0.00000000000E+00 -0.00000000000E+00 -0.93169603425E+02  0.93169603425E+02  0.00000000000E+00 0.  1.
      99926    2    1    2    0    0  0.11102230246E-14  0.00000000000E+00  0.45386015205E+03  0.64019935890E+03  0.45151542777E+03 0.  0.
      99925    2    3    3    0    0 -0.64885154852E+00  0.85624329505E+02  0.18887273941E+03  0.33491623823E+03  0.26299054759E+03 0.  0.
         25    1    3    3    0    0  0.64885154852E+00 -0.85624329505E+02  0.26498741264E+03  0.30528312068E+03  0.12509000000E+03 0.  0.
         25    1    4    4    0    0 -0.16158858944E+02  0.42281137108E+02  0.49162304877E+02  0.14182116767E+03  0.12509000000E+03 0.  0.
         25    1    4    4    0    0  0.15510007396E+02  0.43343192397E+02  0.13971043453E+03  0.19309507056E+03  0.12509000000E+03 0.  0.
<mgrwt>
<rscale>  2 0.45151543E+03</rscale>
<asrwt>0</asrwt>
<pdfrwt beam="1">  1       21 0.80445551E-01 0.45151543E+03</pdfrwt>
<pdfrwt beam="2">  1       21 0.13701412E-01 0.45151543E+03</pdfrwt>
<totfact> 0.57843903E+04</totfact>
</mgrwt>
</event>
<event>
 7    0  0.4750554E-002  0.4567043E+03  0.7546771E-02  0.1025741E+00
         21   -1    0    0  502  501  0.00000000000E+00  0.00000000000E+00  0.39549751997E+03  0.39549751997E+03  0.00000000000E+00 0. -1.
         21   -1    0    0  501  502 -0.00000000000E+00 -0.00000000000E+00 -0.13184584791E+03  0.13184584791E+03  0.00000000000E+00 0. -1.
      99926    2    1    2    0    0  0.14210854715E-13 -0.17763568394E-14  0.26365167206E+03  0.52734336788E+03  0.45670430638E+03 0.  0.
      99925    2    3    3    0    0 -0.86124153698E+02  0.14128246848E+02  0.25171674401E+03  0.37435013987E+03  0.26298237735E+03 0.  0.
         25    1    3    3    0    0  0.86124153698E+02 -0.14128246848E+02  0.11934928046E+02  0.15299322801E+03  0.12509000000E+03 0.  0.
         25    1    4    4    0    0 -0.60967246184E+02  0.38133066765E+02  0.15963140554E+03  0.21517627570E+03  0.12509000000E+03 0.  0.
         25    1    4    4    0    0 -0.25156907514E+02 -0.24004819917E+02  0.92085338470E+02  0.15917386417E+03  0.12509000000E+03 0.  0.
<mgrwt>
<rscale>  2 0.45670431E+03</rscale>
<asrwt>0</asrwt>
<pdfrwt beam="1">  1       21 0.58161400E-01 0.45670431E+03</pdfrwt>
<pdfrwt beam="2">  1       21 0.19389095E-01 0.45670431E+03</pdfrwt>
<totfact> 0.62537574E+04</totfact>
</mgrwt>
</event>
<event>
 7    0  0.4750554E-002  0.4563623E+03  0.7546771E-02  0.1025842E+00
         21   -1    0    0  502  501  0.00000000000E+00  0.00000000000E+00  0.20357923709E+03  0.20357923709E+03  0.00000000000E+00 0.  1.
         21   -1    0    0  501  502 -0.00000000000E+00 -0.00000000000E+00 -0.25575617766E+03  0.25575617766E+03  0.00000000000E+00 0.  1.
      99926    2    1    2    0    0 -0.17763568394E-14  0.00000000000E+00 -0.52176940564E+02  0.45933541475E+03  0.45636234520E+03 0.  0.
      99925    2    3    3    0    0  0.14107713951E+02 -0.10842565112E+03  0.11445694658E+01  0.28484804860E+03  0.26302462116E+03 0.  0.
         25    1    4    4    0    0  0.37641236230E+01 -0.97085648239E+02  0.83903399797E+01  0.15861178274E+03  0.12509000000E+03 0.  0.
         25    1    4    4    0    0  0.10343590328E+02 -0.11340002883E+02 -0.72457705139E+01  0.12623626585E+03  0.12509000000E+03 0.  0.
         25    1    3    3    0    0 -0.14107713951E+02  0.10842565112E+03 -0.53321510030E+02  0.17448736615E+03  0.12509000000E+03 0.  0.
<mgrwt>
<rscale>  2 0.45636235E+03</rscale>
<asrwt>0</asrwt>
<pdfrwt beam="1">  1       21 0.29938123E-01 0.45636235E+03</pdfrwt>
<pdfrwt beam="2">  1       21 0.37611202E-01 0.45636235E+03</pdfrwt>
<totfact> 0.67492671E+04</totfact>
</mgrwt>
</event>
<event>
 7    0  0.4750554E-002  0.4578875E+03  0.7546771E-02  0.1025396E+00
         21   -1    0    0  502  501  0.00000000000E+00  0.00000000000E+00  0.22288472156E+03  0.22288472156E+03  0.00000000000E+00 0.  1.
         21   -1    0    0  501  502 -0.00000000000E+00 -0.00000000000E+00 -0.23516751548E+03  0.23516751548E+03  0.00000000000E+00 0.  1.
      99926    2    1    2    0    0 -0.29143354396E-15 -0.35527136788E-14 -0.12282793924E+02  0.45805223704E+03  0.45788752422E+03 0.  0.
      99925    2    3    3    0    0 -0.11247005495E+00  0.88700303116E+01 -0.12352267501E+03  0.29042017170E+03  0.26269247191E+03 0.  0.
         25    1    4    4    0    0 -0.28808696754E+02 -0.16335520473E+02 -0.82010659367E+02  0.15319936876E+03  0.12509000000E+03 0.  0.
         25    1    3    3    0    0  0.11247005495E+00 -0.88700303116E+01  0.11123988109E+03  0.16763206534E+03  0.12509000000E+03 0.  0.
         25    1    4    4    0    0  0.28696226699E+02  0.25205550784E+02 -0.41512015644E+02  0.13722080294E+03  0.12509000000E+03 0.  0.
<mgrwt>
<rscale>  2 0.45788752E+03</rscale>
<asrwt>0</asrwt>
<pdfrwt beam="1">  1       21 0.32777165E-01 0.45788752E+03</pdfrwt>
<pdfrwt beam="2">  1       21 0.34583458E-01 0.45788752E+03</pdfrwt>
<totfact> 0.66771098E+04</totfact>
</mgrwt>
</event>
<event>
 7    0  0.4750554E-002  0.4591355E+03  0.7546771E-02  0.1025032E+00
         21   -1    0    0  502  501  0.00000000000E+00  0.00000000000E+00  0.85059133344E+03  0.85059133344E+03  0.00000000000E+00 0.  1.
         21   -1    0    0  501  502 -0.00000000000E+00 -0.00000000000E+00 -0.61958485917E+02  0.61958485917E+02  0.00000000000E+00 0.  1.
      99926    2    1    2    0    0  0.00000000000E+00  0.00000000000E+00  0.78863284752E+03  0.91254981935E+03  0.45913549701E+03 0.  0.
      99925    2    3    3    0    0 -0.10973195969E+03 -0.29389149117E+02  0.55017872100E+03  0.62029530080E+03  0.26299203426E+03 0.  0.
         25    1    3    3    0    0  0.10973195969E+03  0.29389149117E+02  0.23845412652E+03  0.29225451856E+03  0.12509000000E+03 0.  0.
         25    1    4    4    0    0 -0.10970087827E+02 -0.11344208381E+02  0.24212967343E+03  0.27298959823E+03  0.12509000000E+03 0.  0.
         25    1    4    4    0    0 -0.98761871864E+02 -0.18044940735E+02  0.30804904757E+03  0.34730570256E+03  0.12509000000E+03 0.  0.
<mgrwt>
<rscale>  2 0.45913550E+03</rscale>
<asrwt>0</asrwt>
<pdfrwt beam="1">  1       21 0.12508695E+00 0.45913550E+03</pdfrwt>
<pdfrwt beam="2">  1       21 0.91115426E-02 0.45913550E+03</pdfrwt>
<totfact> 0.41340918E+04</totfact>
</mgrwt>
</event>
<event>
 7    0  0.4750554E-002  0.4454849E+03  0.7546771E-02  0.1029077E+00
         21   -1    0    0  502  501  0.00000000000E+00  0.00000000000E+00  0.11026643753E+03  0.11026643753E+03  0.00000000000E+00 0. -1.
         21   -1    0    0  501  502 -0.00000000000E+00 -0.00000000000E+00 -0.44994823182E+03  0.44994823182E+03  0.00000000000E+00 0. -1.
      99926    2    1    2    0    0  0.00000000000E+00  0.00000000000E+00 -0.33968179429E+03  0.56021466935E+03  0.44548485315E+03 0.  0.
      99925    2    3    3    0    0  0.90007652510E+02 -0.46372460370E+02 -0.18592887041E+03  0.33764051925E+03  0.26302051782E+03 0.  0.
         25    1    4    4    0    0  0.68647519185E+02 -0.52020439938E+02 -0.76871947934E+02  0.17022165709E+03  0.12509000000E+03 0.  0.
         25    1    4    4    0    0  0.21360133325E+02  0.56479795679E+01 -0.10905692247E+03  0.16741886216E+03  0.12509000000E+03 0.  0.
         25    1    3    3    0    0 -0.90007652510E+02  0.46372460370E+02 -0.15375292388E+03  0.22257415010E+03  0.12509000000E+03 0.  0.
<mgrwt>
<rscale>  2 0.44548485E+03</rscale>
<asrwt>0</asrwt>
<pdfrwt beam="1">  1       21 0.16215652E-01 0.44548485E+03</pdfrwt>
<pdfrwt beam="2">  1       21 0.66168860E-01 0.44548485E+03</pdfrwt>
<totfact> 0.66027312E+04</totfact>
</mgrwt>
</event>
<event>
 7    0  0.4750554E-002  0.4633922E+03  0.7546771E-02  0.1023802E+00
         21   -1    0    0  502  501  0.00000000000E+00  0.00000000000E+00  0.12321516581E+04  0.12321516581E+04  0.00000000000E+00 0.  1.
         21   -1    0    0  501  502 -0.00000000000E+00 -0.00000000000E+00 -0.43568569679E+02  0.43568569679E+02  0.00000000000E+00 0.  1.
      99926    2    1    2    0    0  0.00000000000E+00  0.35527136788E-14  0.11885830884E+04  0.12757202278E+04  0.46339221130E+03 0.  0.
      99925    2    3    3    0    0  0.91767273065E+02 -0.15317424139E+02  0.52912471975E+03  0.59808558876E+03  0.26282607661E+03 0.  0.
         25    1    4    4    0    0  0.41944468178E+02  0.59071723608E+01  0.34170782471E+03  0.36634134173E+03  0.12509000000E+03 0.  0.
         25    1    3    3    0    0 -0.91767273065E+02  0.15317424139E+02  0.65945836870E+03  0.67763463904E+03  0.12509000000E+03 0.  0.
         25    1    4    4    0    0  0.49822804887E+02 -0.21224596500E+02  0.18741689504E+03  0.23174424703E+03  0.12509000000E+03 0.  0.
<mgrwt>
<rscale>  2 0.46339221E+03</rscale>
<asrwt>0</asrwt>
<pdfrwt beam="1">  1       21 0.18119875E+00 0.46339221E+03</pdfrwt>
<pdfrwt beam="2">  1       21 0.64071434E-02 0.46339221E+03</pdfrwt>
<totfact> 0.27957018E+04</totfact>
</mgrwt>
</event>
<event>
 7    0  0.4750554E-002  0.4605182E+03  0.7546771E-02  0.1024631E+00
         21   -1    0    0  502  501  0.00000000000E+00  0.00000000000E+00  0.50093322789E+02  0.50093322789E+02  0.00000000000E+00 0.  1.
         21   -1    0    0  501  502 -0.00000000000E+00 -0.00000000000E+00 -0.10584097897E+04  0.10584097897E+04  0.00000000000E+00 0.  1.
      99926    2    1    2    0    0 -0.35527136788E-14  0.00000000000E+00 -0.10083164669E+04  0.11085031125E+04  0.46051824389E+03 0.  0.
      99925    2    3    3    0    0 -0.29992758450E+02  0.11235891143E+03 -0.58280535312E+03  0.64999323626E+03  0.26325849849E+03 0.  0.
         25    1    4    4    0    0  0.47477898280E+01  0.91672744905E+02 -0.34460152105E+03  0.37792082514E+03  0.12509000000E+03 0.  0.
         25    1    4    4    0    0 -0.34740548278E+02  0.20686166527E+02 -0.23820383207E+03  0.27207241112E+03  0.12509000000E+03 0.  0.
         25    1    3    3    0    0  0.29992758450E+02 -0.11235891143E+03 -0.42551111380E+03  0.45850987624E+03  0.12509000000E+03 0.  0.
<mgrwt>
<rscale>  2 0.46051824E+03</rscale>
<asrwt>0</asrwt>
<pdfrwt beam="1">  1       21 0.73666649E-02 0.46051824E+03</pdfrwt>
<pdfrwt beam="2">  1       21 0.15564850E+00 0.46051824E+03</pdfrwt>
<totfact> 0.33723763E+04</totfact>
</mgrwt>
</event>
<event>
 7    0  0.4750554E-002  0.4562754E+03  0.7546771E-02  0.1025867E+00
         21   -1    0    0  502  501  0.00000000000E+00  0.00000000000E+00  0.56609811565E+03  0.56609811565E+03  0.00000000000E+00 0. -1.
         21   -1    0    0  501  502 -0.00000000000E+00 -0.00000000000E+00 -0.91939549578E+02  0.91939549578E+02  0.00000000000E+00 0. -1.
      99926    2    1    2    0    0  0.00000000000E+00  0.00000000000E+00  0.47415856607E+03  0.65803766522E+03  0.45627538075E+03 0.  0.
      99925    2    3    3    0    0 -0.56416734884E+02  0.12833552551E+02  0.15585826732E+03  0.31118014933E+03  0.26304702584E+03 0.  0.
         25    1    3    3    0    0  0.56416734884E+02 -0.12833552551E+02  0.31830029875E+03  0.34685751589E+03  0.12509000000E+03 0.  0.
         25    1    4    4    0    0 -0.67524562625E+02 -0.20872396766E+01  0.71249264660E+02  0.15902166186E+03  0.12509000000E+03 0.  0.
         25    1    4    4    0    0  0.11107827742E+02  0.14920792228E+02  0.84609002657E+02  0.15215848747E+03  0.12509000000E+03 0.  0.
<mgrwt>
<rscale>  2 0.45627538E+03</rscale>
<asrwt>0</asrwt>
<pdfrwt beam="1">  1       21 0.83249721E-01 0.45627538E+03</pdfrwt>
<pdfrwt beam="2">  1       21 0.13520522E-01 0.45627538E+03</pdfrwt>
<totfact> 0.54688475E+04</totfact>
</mgrwt>
</event>
<event>
 7    0  0.4750554E-002  0.4542592E+03  0.7546771E-02  0.1026459E+00
         21   -1    0    0  502  501  0.00000000000E+00  0.00000000000E+00  0.11044191099E+03  0.11044191099E+03  0.00000000000E+00 0. -1.
         21   -1    0    0  501  502 -0.00000000000E+00 -0.00000000000E+00 -0.46710402640E+03  0.46710402640E+03  0.00000000000E+00 0. -1.
      99926    2    1    2    0    0 -0.71054273576E-14  0.00000000000E+00 -0.35666211541E+03  0.57754593739E+03  0.45425922691E+03 0.  0.
      99925    2    3    3    0    0 -0.38590163962E+02 -0.54341657088E+02 -0.10932483690E+03  0.29247497449E+03  0.26295907341E+03 0.  0.
         25    1    4    4    0    0 -0.53622362143E+02 -0.35354035846E+02 -0.79818377351E+02  0.16169028120E+03  0.12509000000E+03 0.  0.
         25    1    3    3    0    0  0.38590163962E+02  0.54341657088E+02 -0.24733727851E+03  0.28507096291E+03  0.12509000000E+03 0.  0.
         25    1    4    4    0    0  0.15032198181E+02 -0.18987621242E+02 -0.29506459546E+02  0.13078469328E+03  0.12509000000E+03 0.  0.
<mgrwt>
<rscale>  2 0.45425923E+03</rscale>
<asrwt>0</asrwt>
<pdfrwt beam="1">  1       21 0.16241458E-01 0.45425923E+03</pdfrwt>
<pdfrwt beam="2">  1       21 0.68691768E-01 0.45425923E+03</pdfrwt>
<totfact> 0.60435282E+04</totfact>
</mgrwt>
</event>
<event>
 7    0  0.4750554E-002  0.4730783E+03  0.7546771E-02  0.1021055E+00
         21   -1    0    0  502  501  0.00000000000E+00  0.00000000000E+00  0.41314599507E+02  0.41314599507E+02  0.00000000000E+00 0.  1.
         21   -1    0    0  501  502 -0.00000000000E+00 -0.00000000000E+00 -0.13542616644E+04  0.13542616644E+04  0.00000000000E+00 0.  1.
      99926    2    1    2    0    0  0.00000000000E+00  0.00000000000E+00 -0.13129470649E+04  0.13955762639E+04  0.47307833725E+03 0.  0.
      99925    2    3    3    0    0  0.11352595506E+03 -0.44756584329E+02 -0.93902565683E+03  0.98283418728E+03  0.26325379615E+03 0.  0.
         25    1    3    3    0    0 -0.11352595506E+03  0.44756584329E+02 -0.37392140810E+03  0.41274207666E+03  0.12509000000E+03 0.  0.
         25    1    4    4    0    0  0.69498334316E+02 -0.41270649606E+02 -0.37669203059E+03  0.40506503058E+03  0.12509000000E+03 0.  0.
         25    1    4    4    0    0  0.44027620745E+02 -0.34859347233E+01 -0.56233362624E+03  0.57776915670E+03  0.12509000000E+03 0.  0.
<mgrwt>
<rscale>  2 0.47307834E+03</rscale>
<asrwt>0</asrwt>
<pdfrwt beam="1">  1       21 0.60756779E-02 0.47307834E+03</pdfrwt>
<pdfrwt beam="2">  1       21 0.19915608E+00 0.47307834E+03</pdfrwt>
<totfact> 0.23039264E+04</totfact>
</mgrwt>
</event>
<event>
 7    0  0.4750554E-002  0.4597351E+03  0.7546771E-02  0.1024858E+00
         21   -1    0    0  502  501  0.00000000000E+00  0.00000000000E+00  0.13299493771E+04  0.13299493771E+04  0.00000000000E+00 0. -1.
         21   -1    0    0  501  502 -0.00000000000E+00 -0.00000000000E+00 -0.39730150745E+02  0.39730150745E+02  0.00000000000E+00 0. -1.
      99926    2    1    2    0    0  0.00000000000E+00  0.00000000000E+00  0.12902192264E+04  0.13696795279E+04  0.45973509431E+03 0.  0.
      99925    2    3    3    0    0 -0.59152937783E+02  0.11614958912E+02  0.11090237925E+04  0.11413962156E+04  0.26309232457E+03 0.  0.
         25    1    3    3    0    0  0.59152937783E+02 -0.11614958912E+02  0.18119543388E+03  0.22828331230E+03  0.12509000000E+03 0.  0.
         25    1    4    4    0    0 -0.50938893144E+02  0.50227207976E+01  0.72140730680E+03  0.73395913303E+03  0.12509000000E+03 0.  0.
         25    1    4    4    0    0 -0.82140446395E+01  0.65922381144E+01  0.38761648571E+03  0.40743708253E+03  0.12509000000E+03 0.  0.
<mgrwt>
<rscale>  2 0.45973509E+03</rscale>
<asrwt>0</asrwt>
<pdfrwt beam="1">  1       21 0.19558076E+00 0.45973509E+03</pdfrwt>
<pdfrwt beam="2">  1       21 0.58426701E-02 0.45973509E+03</pdfrwt>
<totfact> 0.26174689E+04</totfact>
</mgrwt>
</event>
<event>
 7    0  0.4750554E-002  0.4586841E+03  0.7546771E-02  0.1025164E+00
         21   -1    0    0  502  501  0.00000000000E+00  0.00000000000E+00  0.17617251983E+04  0.17617251983E+04  0.00000000000E+00 0. -1.
         21   -1    0    0  501  502 -0.00000000000E+00 -0.00000000000E+00 -0.29855833569E+02  0.29855833569E+02  0.00000000000E+00 0. -1.
      99926    2    1    2    0    0 -0.26645352591E-14 -0.71054273576E-14  0.17318693648E+04  0.17915810319E+04  0.45868409310E+03 0.  0.
      99925    2    3    3    0    0  0.76203755380E+01  0.53830724764E+02  0.68369827069E+03  0.73457300563E+03  0.26305580816E+03 0.  0.
         25    1    4    4    0    0 -0.35403576549E+02  0.21152483610E+02  0.36148142667E+03  0.38472999717E+03  0.12509000000E+03 0.  0.
         25    1    3    3    0    0 -0.76203755380E+01 -0.53830724764E+02  0.10481710941E+04  0.10570080263E+04  0.12509000000E+03 0.  0.
         25    1    4    4    0    0  0.43023952087E+02  0.32678241154E+02  0.32221684402E+03  0.34984300846E+03  0.12509000000E+03 0.  0.
<mgrwt>
<rscale>  2 0.45868409E+03</rscale>
<asrwt>0</asrwt>
<pdfrwt beam="1">  1       21 0.25907716E+00 0.45868409E+03</pdfrwt>
<pdfrwt beam="2">  1       21 0.43905650E-02 0.45868409E+03</pdfrwt>
<totfact> 0.16932291E+04</totfact>
</mgrwt>
</event>
<event>
 7    0  0.4750554E-002  0.4523703E+03  0.7546771E-02  0.1027018E+00
         21   -1    0    0  502  501  0.00000000000E+00  0.00000000000E+00  0.12269959258E+03  0.12269959258E+03  0.00000000000E+00 0.  1.
         21   -1    0    0  501  502 -0.00000000000E+00 -0.00000000000E+00 -0.41695108171E+03  0.41695108171E+03  0.00000000000E+00 0.  1.
      99926    2    1    2    0    0  0.00000000000E+00  0.00000000000E+00 -0.29425148913E+03  0.53965067429E+03  0.45237032552E+03 0.  0.
      99925    2    3    3    0    0  0.73195914848E+02  0.79850104243E+02 -0.21275366373E+03  0.35519719847E+03  0.26299666780E+03 0.  0.
         25    1    4    4    0    0  0.44706218974E+02  0.66734982912E+02 -0.15210254406E+03  0.21268496883E+03  0.12509000000E+03 0.  0.
         25    1    4    4    0    0  0.28489695874E+02  0.13115121331E+02 -0.60651119669E+02  0.14251222964E+03  0.12509000000E+03 0.  0.
         25    1    3    3    0    0 -0.73195914848E+02 -0.79850104243E+02 -0.81497825401E+02  0.18445347582E+03  0.12509000000E+03 0.  0.
<mgrwt>
<rscale>  2 0.45237033E+03</rscale>
<asrwt>0</asrwt>
<pdfrwt beam="1">  1       21 0.18044058E-01 0.45237033E+03</pdfrwt>
<pdfrwt beam="2">  1       21 0.61316335E-01 0.45237033E+03</pdfrwt>
<totfact> 0.63874586E+04</totfact>
</mgrwt>
</event>
<event>
 7    0  0.4750554E-002  0.4404148E+03  0.7546771E-02  0.1030620E+00
         21   -1    0    0  502  501  0.00000000000E+00  0.00000000000E+00  0.35458774222E+03  0.35458774222E+03  0.00000000000E+00 0. -1.
         21   -1    0    0  501  502 -0.00000000000E+00 -0.00000000000E+00 -0.13675399684E+03  0.13675399684E+03  0.00000000000E+00 0. -1.
      99926    2    1    2    0    0  0.00000000000E+00  0.71054273576E-14  0.21783374538E+03  0.49134173906E+03  0.44041476350E+03 0.  0.
      99925    2    3    3    0    0  0.39307907972E+02  0.51055490738E+02  0.22277717437E+03  0.35054500488E+03  0.26286946620E+03 0.  0.
         25    1    3    3    0    0 -0.39307907972E+02 -0.51055490738E+02 -0.49434289899E+01  0.14079673417E+03  0.12509000000E+03 0.  0.
         25    1    4    4    0    0  0.49725105853E+02  0.52503752351E+02  0.13111450532E+03  0.19510958913E+03  0.12509000000E+03 0.  0.
         25    1    4    4    0    0 -0.10417197881E+02 -0.14482616131E+01  0.91662669050E+02  0.15543541575E+03  0.12509000000E+03 0.  0.
<mgrwt>
<rscale>  2 0.44041476E+03</rscale>
<asrwt>0</asrwt>
<pdfrwt beam="1">  1       21 0.52145256E-01 0.44041476E+03</pdfrwt>
<pdfrwt beam="2">  1       21 0.20110882E-01 0.44041476E+03</pdfrwt>
<totfact> 0.74097681E+04</totfact>
</mgrwt>
</event>
<event>
 7    0  0.4750554E-002  0.3928564E+03  0.7546771E-02  0.1046282E+00
         21   -1    0    0  502  501  0.00000000000E+00  0.00000000000E+00  0.81880873663E+02  0.81880873663E+02  0.00000000000E+00 0.  1.
         21   -1    0    0  501  502 -0.00000000000E+00 -0.00000000000E+00 -0.47122162715E+03  0.47122162715E+03  0.00000000000E+00 0.  1.
      99926    2    1    2    0    0 -0.26645352591E-14 -0.35527136788E-14 -0.38934075349E+03  0.55310250081E+03  0.39285640389E+03 0.  0.
      99925    2    3    3    0    0 -0.59086902554E+01 -0.24894530368E+02 -0.28009961850E+03  0.38506743324E+03  0.26299521211E+03 0.  0.
         25    1    3    3    0    0  0.59086902554E+01  0.24894530368E+02 -0.10924113498E+03  0.16803506758E+03  0.12509000000E+03 0.  0.
         25    1    4    4    0    0 -0.40519269771E+02 -0.19567106625E+02 -0.16144989158E+03  0.20913693714E+03  0.12509000000E+03 0.  0.
         25    1    4    4    0    0  0.34610579516E+02 -0.53274237436E+01 -0.11864972692E+03  0.17593049610E+03  0.12509000000E+03 0.  0.
<mgrwt>
<rscale>  2 0.39285640E+03</rscale>
<asrwt>0</asrwt>
<pdfrwt beam="1">  1       21 0.12041305E-01 0.39285640E+03</pdfrwt>
<pdfrwt beam="2">  1       21 0.69297298E-01 0.39285640E+03</pdfrwt>
<totfact> 0.10418391E+05</totfact>
</mgrwt>
</event>
<event>
 7    0  0.4750554E-002  0.4612301E+03  0.7546771E-02  0.1024425E+00
         21   -1    0    0  502  501  0.00000000000E+00  0.00000000000E+00  0.10276809796E+03  0.10276809796E+03  0.00000000000E+00 0. -1.
         21   -1    0    0  501  502 -0.00000000000E+00 -0.00000000000E+00 -0.51750779701E+03  0.51750779701E+03  0.00000000000E+00 0. -1.
      99926    2    1    2    0    0 -0.14710455076E-14  0.00000000000E+00 -0.41473969904E+03  0.62027589497E+03  0.46123005964E+03 0.  0.
      99925    2    3    3    0    0 -0.23226605676E+00  0.47677622525E+02 -0.11304776164E+03  0.29021719893E+03  0.26300763583E+03 0.  0.
         25    1    4    4    0    0 -0.10012189042E+02  0.21535112552E+01 -0.90778474837E+02  0.15489713081E+03  0.12509000000E+03 0.  0.
         25    1    4    4    0    0  0.97799229855E+01  0.45524111270E+02 -0.22269286800E+02  0.13532006812E+03  0.12509000000E+03 0.  0.
         25    1    3    3    0    0  0.23226605676E+00 -0.47677622525E+02 -0.30169193741E+03  0.33005869604E+03  0.12509000000E+03 0.  0.
<mgrwt>
<rscale>  2 0.46123006E+03</rscale>
<asrwt>0</asrwt>
<pdfrwt beam="1">  1       21 0.15112956E-01 0.46123006E+03</pdfrwt>
<pdfrwt beam="2">  1       21 0.76104085E-01 0.46123006E+03</pdfrwt>
<totfact> 0.54705805E+04</totfact>
</mgrwt>
</event>
<event>
 7    0  0.4750554E-002  0.4504726E+03  0.7546771E-02  0.1027581E+00
         21   -1    0    0  502  501  0.00000000000E+00  0.00000000000E+00  0.11785274812E+04  0.11785274812E+04  0.00000000000E+00 0.  1.
         21   -1    0    0  501  502 -0.00000000000E+00 -0.00000000000E+00 -0.43046426893E+02  0.43046426893E+02  0.00000000000E+00 0.  1.
      99926    2    1    2    0    0  0.00000000000E+00  0.00000000000E+00  0.11354810543E+04  0.12215739081E+04  0.45047262763E+03 0.  0.
      99925    2    3    3    0    0 -0.53212223482E+02 -0.90181316897E+02  0.79920673696E+03  0.84781979741E+03  0.26287409502E+03 0.  0.
         25    1    4    4    0    0 -0.80449546512E+01 -0.26269168080E+02  0.27713494636E+03  0.30529670335E+03  0.12509000000E+03 0.  0.
         25    1    3    3    0    0  0.53212223482E+02  0.90181316897E+02  0.33627431736E+03  0.37375411069E+03  0.12509000000E+03 0.  0.
         25    1    4    4    0    0 -0.45167268831E+02 -0.63912148817E+02  0.52207179060E+03  0.54252309405E+03  0.12509000000E+03 0.  0.
<mgrwt>
<rscale>  2 0.45047263E+03</rscale>
<asrwt>0</asrwt>
<pdfrwt beam="1">  1       21 0.17331284E+00 0.45047263E+03</pdfrwt>
<pdfrwt beam="2">  1       21 0.63303576E-02 0.45047263E+03</pdfrwt>
<totfact> 0.32614441E+04</totfact>
</mgrwt>
</event>
<event>
 7    0  0.4750554E-002  0.4559277E+03  0.7546771E-02  0.1025969E+00
         21   -1    0    0  502  501  0.00000000000E+00  0.00000000000E+00  0.22455948370E+03  0.22455948370E+03  0.00000000000E+00 0.  1.
         21   -1    0    0  501  502 -0.00000000000E+00 -0.00000000000E+00 -0.23141984660E+03  0.23141984660E+03  0.00000000000E+00 0.  1.
      99926    2    1    2    0    0  0.00000000000E+00  0.00000000000E+00 -0.68603628923E+01  0.45597933030E+03  0.45592771914E+03 0.  0.
      99925    2    3    3    0    0  0.49532732858E+02  0.34277084496E+02  0.92601935406E+02  0.28519096118E+03  0.26292652158E+03 0.  0.
         25    1    4    4    0    0  0.20494878233E+02  0.15638714223E+02  0.34699227778E+01  0.12776602788E+03  0.12509000000E+03 0.  0.
         25    1    3    3    0    0 -0.49532732858E+02 -0.34277084496E+02 -0.99462298299E+02  0.17078836913E+03  0.12509000000E+03 0.  0.
         25    1    4    4    0    0  0.29037854624E+02  0.18638370273E+02  0.89132012629E+02  0.15742493329E+03  0.12509000000E+03 0.  0.
<mgrwt>
<rscale>  2 0.45592772E+03</rscale>
<asrwt>0</asrwt>
<pdfrwt beam="1">  1       21 0.33023454E-01 0.45592772E+03</pdfrwt>
<pdfrwt beam="2">  1       21 0.34032330E-01 0.45592772E+03</pdfrwt>
<totfact> 0.67969586E+04</totfact>
</mgrwt>
</event>
<event>
 7    0  0.4750554E-002  0.4475833E+03  0.7546771E-02  0.1028445E+00
         21   -1    0    0  502  501  0.00000000000E+00  0.00000000000E+00  0.77070831488E+03  0.77070831488E+03  0.00000000000E+00 0.  1.
         21   -1    0    0  501  502 -0.00000000000E+00 -0.00000000000E+00 -0.64982705140E+02  0.64982705140E+02  0.00000000000E+00 0.  1.
      99926    2    1    2    0    0  0.00000000000E+00  0.00000000000E+00  0.70572560974E+03  0.83569102002E+03  0.44758333827E+03 0.  0.
      99925    2    3    3    0    0 -0.87052232258E+01 -0.86363018560E+02  0.33487883775E+03  0.43480551481E+03  0.26339637024E+03 0.  0.
         25    1    3    3    0    0  0.87052232258E+01  0.86363018560E+02  0.37084677200E+03  0.40088550521E+03  0.12509000000E+03 0.  0.
         25    1    4    4    0    0 -0.29491049753E+01 -0.85240877403E+02  0.19859044632E+03  0.24972059961E+03  0.12509000000E+03 0.  0.
         25    1    4    4    0    0 -0.57561182505E+01 -0.11221411570E+01  0.13628839143E+03  0.18508491520E+03  0.12509000000E+03 0.  0.
<mgrwt>
<rscale>  2 0.44758334E+03</rscale>
<asrwt>0</asrwt>
<pdfrwt beam="1">  1       21 0.11333945E+00 0.44758334E+03</pdfrwt>
<pdfrwt beam="2">  1       21 0.95562806E-02 0.44758334E+03</pdfrwt>
<totfact> 0.48868528E+04</totfact>
</mgrwt>
</event>
<event>
 7    0  0.4750554E-002  0.4515788E+03  0.7546771E-02  0.1027252E+00
         21   -1    0    0  502  501  0.00000000000E+00  0.00000000000E+00  0.21583483012E+03  0.21583483012E+03  0.00000000000E+00 0.  1.
         21   -1    0    0  501  502 -0.00000000000E+00 -0.00000000000E+00 -0.23620313177E+03  0.23620313177E+03  0.00000000000E+00 0.  1.
      99926    2    1    2    0    0  0.00000000000E+00  0.00000000000E+00 -0.20368301652E+02  0.45203796189E+03  0.45157884282E+03 0.  0.
      99925    2    3    3    0    0 -0.44661128933E+02  0.73152238596E+02 -0.81822860060E+02  0.28842244521E+03  0.26295752513E+03 0.  0.
         25    1    4    4    0    0 -0.42517946652E+02  0.72675387152E+02 -0.34670136332E+02  0.15472237763E+03  0.12509000000E+03 0.  0.
         25    1    3    3    0    0  0.44661128933E+02 -0.73152238596E+02  0.61454558408E+02  0.16361551668E+03  0.12509000000E+03 0.  0.
         25    1    4    4    0    0 -0.21431822804E+01  0.47685144461E+00 -0.47152723728E+02  0.13370006759E+03  0.12509000000E+03 0.  0.
<mgrwt>
<rscale>  2 0.45157884E+03</rscale>
<asrwt>0</asrwt>
<pdfrwt beam="1">  1       21 0.31740416E-01 0.45157884E+03</pdfrwt>
<pdfrwt beam="2">  1       21 0.34735755E-01 0.45157884E+03</pdfrwt>
<totfact> 0.70672904E+04</totfact>
</mgrwt>
</event>
<event>
 7    0  0.4750554E-002  0.4532739E+03  0.7546771E-02  0.1026750E+00
         21   -1    0    0  502  501  0.00000000000E+00  0.00000000000E+00  0.48452388360E+02  0.48452388360E+02  0.00000000000E+00 0.  1.
         21   -1    0    0  501  502 -0.00000000000E+00 -0.00000000000E+00 -0.10600985914E+04  0.10600985914E+04  0.00000000000E+00 0.  1.
      99926    2    1    2    0    0 -0.14210854715E-13  0.00000000000E+00 -0.10116462031E+04  0.11085509798E+04  0.45327390682E+03 0.  0.
      99925    2    3    3    0    0  0.66000142834E+02  0.50726204953E+02 -0.81813292820E+03  0.86355289332E+03  0.26353926583E+03 0.  0.
         25    1    4    4    0    0  0.29627369213E+02  0.56634086013E+02 -0.33805525833E+03  0.36607931721E+03  0.12509000000E+03 0.  0.
         25    1    3    3    0    0 -0.66000142834E+02 -0.50726204953E+02 -0.19351327487E+03  0.24499808647E+03  0.12509000000E+03 0.  0.
         25    1    4    4    0    0  0.36372773621E+02 -0.59078810607E+01 -0.48007766988E+03  0.49747357612E+03  0.12509000000E+03 0.  0.
<mgrwt>
<rscale>  2 0.45327391E+03</rscale>
<asrwt>0</asrwt>
<pdfrwt beam="1">  1       21 0.71253516E-02 0.45327391E+03</pdfrwt>
<pdfrwt beam="2">  1       21 0.15589684E+00 0.45327391E+03</pdfrwt>
<totfact> 0.35674393E+04</totfact>
</mgrwt>
</event>
<event>
 7    0  0.4750554E-002  0.4526422E+03  0.7546771E-02  0.1026937E+00
         21   -1    0    0  502  501  0.00000000000E+00  0.00000000000E+00  0.20620707987E+03  0.20620707987E+03  0.00000000000E+00 0. -1.
         21   -1    0    0  501  502 -0.00000000000E+00 -0.00000000000E+00 -0.24839713957E+03  0.24839713957E+03  0.00000000000E+00 0. -1.
      99926    2    1    2    0    0  0.00000000000E+00  0.71054273576E-14 -0.42190059699E+02  0.45460421944E+03  0.45264223753E+03 0.  0.
      99925    2    3    3    0    0 -0.94835448213E+02  0.56619505814E+02 -0.37024288388E+02  0.28764996232E+03  0.26300603076E+03 0.  0.
         25    1    4    4    0    0 -0.65485368282E+02  0.61063743299E+02 -0.40371757099E+02  0.15904245055E+03  0.12509000000E+03 0.  0.
         25    1    4    4    0    0 -0.29350079930E+02 -0.44442374847E+01  0.33474687106E+01  0.12860751178E+03  0.12509000000E+03 0.  0.
         25    1    3    3    0    0  0.94835448213E+02 -0.56619505814E+02 -0.51657713107E+01  0.16695425712E+03  0.12509000000E+03 0.  0.
<mgrwt>
<rscale>  2 0.45264224E+03</rscale>
<asrwt>0</asrwt>
<pdfrwt beam="1">  1       21 0.30324571E-01 0.45264224E+03</pdfrwt>
<pdfrwt beam="2">  1       21 0.36528991E-01 0.45264224E+03</pdfrwt>
<totfact> 0.69880147E+04</totfact>
</mgrwt>
</event>
<event>
 7    0  0.4750554E-002  0.4419364E+03  0.7546771E-02  0.1030154E+00
         21   -1    0    0  502  501  0.00000000000E+00  0.00000000000E+00  0.62338102486E+03  0.62338102486E+03  0.00000000000E+00 0. -1.
         21   -1    0    0  501  502 -0.00000000000E+00 -0.00000000000E+00 -0.78326022489E+02  0.78326022489E+02  0.00000000000E+00 0. -1.
      99926    2    1    2    0    0 -0.28865798640E-14  0.35527136788E-14  0.54505500237E+03  0.70170704735E+03  0.44193644870E+03 0.  0.
      99925    2    3    3    0    0 -0.30286463594E+00 -0.29747092426E+02  0.49953417442E+03  0.56530823829E+03  0.26297154148E+03 0.  0.
         25    1    4    4    0    0 -0.18529781103E+02 -0.18998123379E+02  0.17406696625E+03  0.21598865322E+03  0.12509000000E+03 0.  0.
         25    1    4    4    0    0  0.18226916467E+02 -0.10748969047E+02  0.32546720817E+03  0.34931958507E+03  0.12509000000E+03 0.  0.
         25    1    3    3    0    0  0.30286463594E+00  0.29747092426E+02  0.45520827944E+02  0.13639880905E+03  0.12509000000E+03 0.  0.
<mgrwt>
<rscale>  2 0.44193645E+03</rscale>
<asrwt>0</asrwt>
<pdfrwt beam="1">  1       21 0.91673677E-01 0.44193645E+03</pdfrwt>
<pdfrwt beam="2">  1       21 0.11518533E-01 0.44193645E+03</pdfrwt>
<totfact> 0.58606774E+04</totfact>
</mgrwt>
</event>
<event>
 7    0  0.4750554E-002  0.4552753E+03  0.7546771E-02  0.1026160E+00
         21   -1    0    0  502  501  0.00000000000E+00  0.00000000000E+00  0.17480294376E+03  0.17480294376E+03  0.00000000000E+00 0. -1.
         21   -1    0    0  501  502 -0.00000000000E+00 -0.00000000000E+00 -0.29644179079E+03  0.29644179079E+03  0.00000000000E+00 0. -1.
      99926    2    1    2    0    0 -0.14210854715E-13  0.00000000000E+00 -0.12163884703E+03  0.47124473455E+03  0.45527529115E+03 0.  0.
      99925    2    3    3    0    0 -0.80305225697E+02  0.43661033675E+02 -0.14608790309E+03  0.31439933431E+03  0.26296397253E+03 0.  0.
         25    1    3    3    0    0  0.80305225697E+02 -0.43661033675E+02  0.24449056051E+02  0.15684540024E+03  0.12509000000E+03 0.  0.
         25    1    4    4    0    0 -0.33961453265E+02 -0.16823870807E+02 -0.54240090696E+02  0.14151296222E+03  0.12509000000E+03 0.  0.
         25    1    4    4    0    0 -0.46343772432E+02  0.60484904482E+02 -0.91847812390E+02  0.17288637209E+03  0.12509000000E+03 0.  0.
<mgrwt>
<rscale>  2 0.45527529E+03</rscale>
<asrwt>0</asrwt>
<pdfrwt beam="1">  1       21 0.25706315E-01 0.45527529E+03</pdfrwt>
<pdfrwt beam="2">  1       21 0.43594381E-01 0.45527529E+03</pdfrwt>
<totfact> 0.67196373E+04</totfact>
</mgrwt>
</event>
<event>
 7    0  0.4750554E-002  0.4156133E+03  0.7546771E-02  0.1038504E+00
         21   -1    0    0  502  501  0.00000000000E+00  0.00000000000E+00  0.81133682091E+02  0.81133682091E+02  0.00000000000E+00 0.  1.
         21   -1    0    0  501  502 -0.00000000000E+00 -0.00000000000E+00 -0.53225247850E+03  0.53225247850E+03  0.00000000000E+00 0.  1.
      99926    2    1    2    0    0  0.00000000000E+00 -0.18873791419E-14 -0.45111879640E+03  0.61338616059E+03  0.41561329807E+03 0.  0.
      99925    2    3    3    0    0 -0.51701644559E+02  0.77151149652E+00 -0.36568614968E+03  0.45332398359E+03  0.26287376960E+03 0.  0.
         25    1    4    4    0    0 -0.26167106749E+02 -0.21576626416E+02 -0.12556655499E+03  0.18045702013E+03  0.12509000000E+03 0.  0.
         25    1    3    3    0    0  0.51701644559E+02 -0.77151149652E+00 -0.85432646723E+02  0.16006217700E+03  0.12509000000E+03 0.  0.
         25    1    4    4    0    0 -0.25534537810E+02  0.22348137912E+02 -0.24011959469E+03  0.27286696345E+03  0.12509000000E+03 0.  0.
<mgrwt>
<rscale>  2 0.41561330E+03</rscale>
<asrwt>0</asrwt>
<pdfrwt beam="1">  1       21 0.11931424E-01 0.41561330E+03</pdfrwt>
<pdfrwt beam="2">  1       21 0.78272424E-01 0.41561330E+03</pdfrwt>
<totfact> 0.79975635E+04</totfact>
</mgrwt>
</event>
<event>
 7    0  0.4750554E-002  0.4535415E+03  0.7546771E-02  0.1026671E+00
         21   -1    0    0  502  501  0.00000000000E+00  0.00000000000E+00  0.19028690544E+03  0.19028690544E+03  0.00000000000E+00 0.  1.
         21   -1    0    0  501  502 -0.00000000000E+00 -0.00000000000E+00 -0.27024964030E+03  0.27024964030E+03  0.00000000000E+00 0.  1.
      99926    2    1    2    0    0  0.00000000000E+00  0.00000000000E+00 -0.79962734863E+02  0.46053654574E+03  0.45354147660E+03 0.  0.
      99925    2    3    3    0    0  0.10075654001E+03 -0.46954797146E+02 -0.38229331810E+02  0.28806678503E+03  0.26299117380E+03 0.  0.
         25    1    4    4    0    0  0.48859470905E+02  0.12502174782E+02  0.16327192531E+01  0.13488412117E+03  0.12509000000E+03 0.  0.
         25    1    3    3    0    0 -0.10075654001E+03  0.46954797146E+02 -0.41733403053E+02  0.17246976071E+03  0.12509000000E+03 0.  0.
         25    1    4    4    0    0  0.51897069100E+02 -0.59456971927E+02 -0.39862051063E+02  0.15318266386E+03  0.12509000000E+03 0.  0.
<mgrwt>
<rscale>  2 0.45354148E+03</rscale>
<asrwt>0</asrwt>
<pdfrwt beam="1">  1       21 0.27983369E-01 0.45354148E+03</pdfrwt>
<pdfrwt beam="2">  1       21 0.39742594E-01 0.45354148E+03</pdfrwt>
<totfact> 0.68938557E+04</totfact>
</mgrwt>
</event>
<event>
 7    0  0.4750554E-002  0.4547949E+03  0.7546771E-02  0.1026302E+00
         21   -1    0    0  502  501  0.00000000000E+00  0.00000000000E+00  0.11215709560E+03  0.11215709560E+03  0.00000000000E+00 0. -1.
         21   -1    0    0  501  502 -0.00000000000E+00 -0.00000000000E+00 -0.46104611938E+03  0.46104611938E+03  0.00000000000E+00 0. -1.
      99926    2    1    2    0    0  0.00000000000E+00  0.00000000000E+00 -0.34888902378E+03  0.57320321498E+03  0.45479487107E+03 0.  0.
      99925    2    3    3    0    0 -0.72351334658E+02  0.78132286075E+02 -0.26732784987E+03  0.38979355618E+03  0.26293624202E+03 0.  0.
         25    1    3    3    0    0  0.72351334658E+02 -0.78132286075E+02 -0.81561173908E+02  0.18340965881E+03  0.12509000000E+03 0.  0.
         25    1    4    4    0    0 -0.39841139284E+02  0.42057247617E+02 -0.19057588450E+03  0.23520800222E+03  0.12509000000E+03 0.  0.
         25    1    4    4    0    0 -0.32510195375E+02  0.36075038458E+02 -0.76751965370E+02  0.15458555395E+03  0.12509000000E+03 0.  0.
<mgrwt>
<rscale>  2 0.45479487E+03</rscale>
<asrwt>0</asrwt>
<pdfrwt beam="1">  1       21 0.16493691E-01 0.45479487E+03</pdfrwt>
<pdfrwt beam="2">  1       21 0.67800897E-01 0.45479487E+03</pdfrwt>
<totfact> 0.60456762E+04</totfact>
</mgrwt>
</event>
<event>
 7    0  0.4750554E-002  0.4542448E+03  0.7546771E-02  0.1026464E+00
         21   -1    0    0  502  501  0.00000000000E+00  0.00000000000E+00  0.57365642157E+03  0.57365642157E+03  0.00000000000E+00 0.  1.
         21   -1    0    0  501  502 -0.00000000000E+00 -0.00000000000E+00 -0.89922445148E+02  0.89922445148E+02  0.00000000000E+00 0.  1.
      99926    2    1    2    0    0  0.00000000000E+00  0.00000000000E+00  0.48373397642E+03  0.66357886672E+03  0.45424481550E+03 0.  0.
      99925    2    3    3    0    0  0.35235051414E+02  0.56206787610E+02  0.43722500506E+03  0.51454429241E+03  0.26303880319E+03 0.  0.
         25    1    3    3    0    0 -0.35235051414E+02 -0.56206787610E+02  0.46508971363E+02  0.14903457431E+03  0.12509000000E+03 0.  0.
         25    1    4    4    0    0  0.16456191285E+02 -0.11689053543E+02  0.22716366589E+03  0.26011205163E+03  0.12509000000E+03 0.  0.
         25    1    4    4    0    0  0.18778860129E+02  0.67895841153E+02  0.21006133917E+03  0.25443224077E+03  0.12509000000E+03 0.  0.
<mgrwt>
<rscale>  2 0.45424482E+03</rscale>
<asrwt>0</asrwt>
<pdfrwt beam="1">  1       21 0.84361237E-01 0.45424482E+03</pdfrwt>
<pdfrwt beam="2">  1       21 0.13223889E-01 0.45424482E+03</pdfrwt>
<totfact> 0.55253369E+04</totfact>
</mgrwt>
</event>
<event>
 7    0  0.4750554E-002  0.4431149E+03  0.7546771E-02  0.1029795E+00
         21   -1    0    0  502  501  0.00000000000E+00  0.00000000000E+00  0.57383670435E+03  0.57383670435E+03  0.00000000000E+00 0. -1.
         21   -1    0    0  501  502 -0.00000000000E+00 -0.00000000000E+00 -0.85542983473E+02  0.85542983473E+02  0.00000000000E+00 0. -1.
      99926    2    1    2    0    0  0.00000000000E+00  0.00000000000E+00  0.48829372088E+03  0.65937968783E+03  0.44311490030E+03 0.  0.
      99925    2    3    3    0    0 -0.85414546718E+02 -0.28141570833E+02  0.23993228191E+03  0.36711524375E+03  0.26290399292E+03 0.  0.
         25    1    3    3    0    0  0.85414546718E+02  0.28141570833E+02  0.24836143898E+03  0.29226444407E+03  0.12509000000E+03 0.  0.
         25    1    4    4    0    0 -0.79246849960E+02 -0.32578443202E+02  0.11643945635E+03  0.19117288847E+03  0.12509000000E+03 0.  0.
         25    1    4    4    0    0 -0.61676967578E+01  0.44368723694E+01  0.12349282555E+03  0.17594235528E+03  0.12509000000E+03 0.  0.
<mgrwt>
<rscale>  2 0.44311490E+03</rscale>
<asrwt>0</asrwt>
<pdfrwt beam="1">  1       21 0.84387749E-01 0.44311490E+03</pdfrwt>
<pdfrwt beam="2">  1       21 0.12579851E-01 0.44311490E+03</pdfrwt>
<totfact> 0.60649128E+04</totfact>
</mgrwt>
</event>
<event>
 7    0  0.4750554E-002  0.4787479E+03  0.7546771E-02  0.1019480E+00
         21   -1    0    0  502  501  0.00000000000E+00  0.00000000000E+00  0.20894332626E+04  0.20894332626E+04  0.00000000000E+00 0.  1.
         21   -1    0    0  501  502 -0.00000000000E+00 -0.00000000000E+00 -0.27423655134E+02  0.27423655134E+02  0.00000000000E+00 0.  1.
      99926    2    1    2    0    0  0.00000000000E+00  0.00000000000E+00  0.20620096075E+04  0.21168569177E+04  0.47874793876E+03 0.  0.
      99925    2    3    3    0    0 -0.99110362686E+02 -0.58206705191E+02  0.96492712649E+03  0.10067000087E+04  0.26296323612E+03 0.  0.
         25    1    4    4    0    0 -0.58600097738E+02  0.21176173432E+01  0.38620732389E+03  0.41017320840E+03  0.12509000000E+03 0.  0.
         25    1    3    3    0    0  0.99110362686E+02  0.58206705191E+02  0.10970824810E+04  0.11101569090E+04  0.12509000000E+03 0.  0.
         25    1    4    4    0    0 -0.40510264948E+02 -0.60324322534E+02  0.57871980260E+03  0.59652680030E+03  0.12509000000E+03 0.  0.
<mgrwt>
<rscale>  2 0.47874794E+03</rscale>
<asrwt>0</asrwt>
<pdfrwt beam="1">  1       21 0.30726949E+00 0.47874794E+03</pdfrwt>
<pdfrwt beam="2">  1       21 0.40328919E-02 0.47874794E+03</pdfrwt>
<totfact> 0.99326278E+03</totfact>
</mgrwt>
</event>
<event>
 7    0  0.4750554E-002  0.4566524E+03  0.7546771E-02  0.1025757E+00
         21   -1    0    0  502  501  0.00000000000E+00  0.00000000000E+00  0.35622493175E+03  0.35622493175E+03  0.00000000000E+00 0. -1.
         21   -1    0    0  501  502 -0.00000000000E+00 -0.00000000000E+00 -0.14634811210E+03  0.14634811210E+03  0.00000000000E+00 0. -1.
      99926    2    1    2    0    0  0.00000000000E+00  0.00000000000E+00  0.20987681965E+03  0.50257304385E+03  0.45665236776E+03 0.  0.
      99925    2    3    3    0    0 -0.45231515696E+02  0.10530629420E+03  0.13751289208E+03  0.31812968744E+03  0.26298554511E+03 0.  0.
         25    1    4    4    0    0 -0.55001929169E+02  0.28024225108E+02  0.68750279678E+02  0.15551423877E+03  0.12509000000E+03 0.  0.
         25    1    4    4    0    0  0.97704134724E+01  0.77282069091E+02  0.68762612403E+02  0.16261544867E+03  0.12509000000E+03 0.  0.
         25    1    3    3    0    0  0.45231515696E+02 -0.10530629420E+03  0.72363927567E+02  0.18444335641E+03  0.12509000000E+03 0.  0.
<mgrwt>
<rscale>  2 0.45665237E+03</rscale>
<asrwt>0</asrwt>
<pdfrwt beam="1">  1       21 0.52386019E-01 0.45665237E+03</pdfrwt>
<pdfrwt beam="2">  1       21 0.21521781E-01 0.45665237E+03</pdfrwt>
<totfact> 0.64243498E+04</totfact>
</mgrwt>
</event>
<event>
 7    0  0.4750554E-002  0.4528475E+03  0.7546771E-02  0.1026876E+00
         21   -1    0    0  502  501  0.00000000000E+00  0.00000000000E+00  0.46801658916E+03  0.46801658916E+03  0.00000000000E+00 0. -1.
         21   -1    0    0  501  502 -0.00000000000E+00 -0.00000000000E+00 -0.10954253980E+03  0.10954253980E+03  0.00000000000E+00 0. -1.
      99926    2    1    2    0    0  0.14210854715E-13  0.00000000000E+00  0.35847404936E+03  0.57755912896E+03  0.45284754983E+03 0.  0.
      99925    2    3    3    0    0  0.10075580062E+03 -0.85660812270E+01  0.28519959855E+03  0.40080573480E+03  0.26283324929E+03 0.  0.
         25    1    3    3    0    0 -0.10075580062E+03  0.85660812270E+01  0.73274450811E+02  0.17675339416E+03  0.12509000000E+03 0.  0.
         25    1    4    4    0    0  0.68546940487E+02 -0.34455329499E+02  0.12034761810E+03  0.18978121631E+03  0.12509000000E+03 0.  0.
         25    1    4    4    0    0  0.32208860132E+02  0.25889248272E+02  0.16485198045E+03  0.21102451850E+03  0.12509000000E+03 0.  0.
<mgrwt>
<rscale>  2 0.45284755E+03</rscale>
<asrwt>0</asrwt>
<pdfrwt beam="1">  1       21 0.68825968E-01 0.45284755E+03</pdfrwt>
<pdfrwt beam="2">  1       21 0.16109197E-01 0.45284755E+03</pdfrwt>
<totfact> 0.61114676E+04</totfact>
</mgrwt>
</event>
<event>
 7    0  0.4750554E-002  0.4501262E+03  0.7546771E-02  0.1027684E+00
         21   -1    0    0  502  501  0.00000000000E+00  0.00000000000E+00  0.80646363368E+03  0.80646363368E+03  0.00000000000E+00 0. -1.
         21   -1    0    0  501  502 -0.00000000000E+00 -0.00000000000E+00 -0.62809288394E+02  0.62809288394E+02  0.00000000000E+00 0. -1.
      99926    2    1    2    0    0  0.00000000000E+00  0.00000000000E+00  0.74365434528E+03  0.86927292207E+03  0.45012623539E+03 0.  0.
      99925    2    3    3    0    0  0.68824923584E+02  0.63319489757E+01  0.63235765136E+03  0.68813367767E+03  0.26244007969E+03 0.  0.
         25    1    3    3    0    0 -0.68824923584E+02 -0.63319489757E+01  0.11129669392E+03  0.18113924440E+03  0.12509000000E+03 0.  0.
         25    1    4    4    0    0 -0.45921212071E+01 -0.89727148964E+01  0.28625238525E+03  0.31255324883E+03  0.12509000000E+03 0.  0.
         25    1    4    4    0    0  0.73417044791E+02  0.15304663872E+02  0.34610526611E+03  0.37558042884E+03  0.12509000000E+03 0.  0.
<mgrwt>
<rscale>  2 0.45012624E+03</rscale>
<asrwt>0</asrwt>
<pdfrwt beam="1">  1       21 0.11859759E+00 0.45012624E+03</pdfrwt>
<pdfrwt beam="2">  1       21 0.92366605E-02 0.45012624E+03</pdfrwt>
<totfact> 0.46332609E+04</totfact>
</mgrwt>
</event>
<event>
 7    0  0.4750554E-002  0.4484844E+03  0.7546771E-02  0.1028175E+00
         21   -1    0    0  502  501  0.00000000000E+00  0.00000000000E+00  0.20118456208E+03  0.20118456208E+03  0.00000000000E+00 0.  1.
         21   -1    0    0  501  502 -0.00000000000E+00 -0.00000000000E+00 -0.24994246555E+03  0.24994246555E+03  0.00000000000E+00 0.  1.
      99926    2    1    2    0    0  0.00000000000E+00  0.14210854715E-13 -0.48757903471E+02  0.45112702764E+03  0.44848440543E+03 0.  0.
      99925    2    3    3    0    0  0.67452327380E+02  0.73612348006E+02  0.77015113289E+01  0.28141029933E+03  0.26299020712E+03 0.  0.
         25    1    4    4    0    0  0.57026655121E+00  0.30287915413E+02 -0.20813116875E+02  0.13037782387E+03  0.12509000000E+03 0.  0.
         25    1    3    3    0    0 -0.67452327380E+02 -0.73612348006E+02 -0.56459414800E+02  0.16971672831E+03  0.12509000000E+03 0.  0.
         25    1    4    4    0    0  0.66882060828E+02  0.43324432593E+02  0.28514628204E+02  0.15103247545E+03  0.12509000000E+03 0.  0.
<mgrwt>
<rscale>  2 0.44848441E+03</rscale>
<asrwt>0</asrwt>
<pdfrwt beam="1">  1       21 0.29585965E-01 0.44848441E+03</pdfrwt>
<pdfrwt beam="2">  1       21 0.36756245E-01 0.44848441E+03</pdfrwt>
<totfact> 0.72528053E+04</totfact>
</mgrwt>
</event>
<event>
 7    0  0.4750554E-002  0.4564686E+03  0.7546771E-02  0.1025810E+00
         21   -1    0    0  502  501  0.00000000000E+00  0.00000000000E+00  0.13098559523E+04  0.13098559523E+04  0.00000000000E+00 0. -1.
         21   -1    0    0  501  502 -0.00000000000E+00 -0.00000000000E+00 -0.39768422537E+02  0.39768422537E+02  0.00000000000E+00 0. -1.
      99926    2    1    2    0    0  0.00000000000E+00  0.00000000000E+00  0.12700875298E+04  0.13496243749E+04  0.45646864065E+03 0.  0.
      99925    2    3    3    0    0 -0.24302061911E+02  0.75986496483E+02  0.10409694318E+04  0.10766643984E+04  0.26310517067E+03 0.  0.
         25    1    4    4    0    0  0.15059067465E+01  0.75574702571E+02  0.50825422368E+03  0.52885127154E+03  0.12509000000E+03 0.  0.
         25    1    3    3    0    0  0.24302061911E+02 -0.75986496483E+02  0.22911809797E+03  0.27295997652E+03  0.12509000000E+03 0.  0.
         25    1    4    4    0    0 -0.25807968657E+02  0.41179391211E+00  0.53271520814E+03  0.54781312681E+03  0.12509000000E+03 0.  0.
<mgrwt>
<rscale>  2 0.45646864E+03</rscale>
<asrwt>0</asrwt>
<pdfrwt beam="1">  1       21 0.19262585E+00 0.45646864E+03</pdfrwt>
<pdfrwt beam="2">  1       21 0.58482983E-02 0.45646864E+03</pdfrwt>
<totfact> 0.27391829E+04</totfact>
</mgrwt>
</event>
<event>
 7    0  0.4750554E-002  0.4534477E+03  0.7546771E-02  0.1026699E+00
         21   -1    0    0  502  501  0.00000000000E+00  0.00000000000E+00  0.45407789259E+03  0.45407789259E+03  0.00000000000E+00 0. -1.
         21   -1    0    0  501  502 -0.00000000000E+00 -0.00000000000E+00 -0.11320459894E+03  0.11320459894E+03  0.00000000000E+00 0. -1.
      99926    2    1    2    0    0  0.00000000000E+00 -0.14210854715E-13  0.34087329365E+03  0.56728249153E+03  0.45344770688E+03 0.  0.
      99925    2    3    3    0    0 -0.24835161823E+02  0.10622632488E+03  0.19613243184E+03  0.34705932622E+03  0.26472897035E+03 0.  0.
         25    1    3    3    0    0  0.24835161823E+02 -0.10622632488E+03  0.14474086181E+03  0.22022316531E+03  0.12509000000E+03 0.  0.
         25    1    4    4    0    0 -0.52583557899E+02  0.71184289655E+02  0.11239602679E+03  0.19003317761E+03  0.12509000000E+03 0.  0.
         25    1    4    4    0    0  0.27748396076E+02  0.35042035224E+02  0.83736405044E+02  0.15702614861E+03  0.12509000000E+03 0.  0.
<mgrwt>
<rscale>  2 0.45344771E+03</rscale>
<asrwt>0</asrwt>
<pdfrwt beam="1">  1       21 0.66776160E-01 0.45344771E+03</pdfrwt>
<pdfrwt beam="2">  1       21 0.16647735E-01 0.45344771E+03</pdfrwt>
<totfact> 0.61490100E+04</totfact>
</mgrwt>
</event>
<event>
 7    0  0.4750554E-002  0.4557468E+03  0.7546771E-02  0.1026022E+00
         21   -1    0    0  502  501  0.00000000000E+00  0.00000000000E+00  0.34573321068E+03  0.34573321068E+03  0.00000000000E+00 0.  1.
         21   -1    0    0  501  502 -0.00000000000E+00 -0.00000000000E+00 -0.15019180907E+03  0.15019180907E+03  0.00000000000E+00 0.  1.
      99926    2    1    2    0    0  0.14210854715E-13 -0.35527136788E-14  0.19554140161E+03  0.49592501975E+03  0.45574684362E+03 0.  0.
      99925    2    3    3    0    0  0.64771004345E+02 -0.31766283660E+02  0.27066985864E+02  0.27403424337E+03  0.26297863988E+03 0.  0.
         25    1    4    4    0    0  0.93349264712E+01 -0.47315514438E+01 -0.19423604783E+02  0.12702091542E+03  0.12509000000E+03 0.  0.
         25    1    3    3    0    0 -0.64771004345E+02  0.31766283660E+02  0.16847441575E+03  0.22189077638E+03  0.12509000000E+03 0.  0.
         25    1    4    4    0    0  0.55436077874E+02 -0.27034732216E+02  0.46490590646E+02  0.14701332795E+03  0.12509000000E+03 0.  0.
<mgrwt>
<rscale>  2 0.45574684E+03</rscale>
<asrwt>0</asrwt>
<pdfrwt beam="1">  1       21 0.50843119E-01 0.45574684E+03</pdfrwt>
<pdfrwt beam="2">  1       21 0.22087031E-01 0.45574684E+03</pdfrwt>
<totfact> 0.65170652E+04</totfact>
</mgrwt>
</event>
<event>
 7    0  0.4750554E-002  0.4423498E+03  0.7546771E-02  0.1030028E+00
         21   -1    0    0  502  501  0.00000000000E+00  0.00000000000E+00  0.23614649480E+04  0.23614649480E+04  0.00000000000E+00 0. -1.
         21   -1    0    0  501  502 -0.00000000000E+00 -0.00000000000E+00 -0.20715245581E+02  0.20715245581E+02  0.00000000000E+00 0. -1.
      99926    2    1    2    0    0 -0.17763568394E-14  0.17763568394E-14  0.23407497024E+04  0.23821801936E+04  0.44234975451E+03 0.  0.
      99925    2    3    3    0    0  0.11755981967E+02  0.12788034766E+02  0.95579693939E+03  0.99148130422E+03  0.26303165271E+03 0.  0.
         25    1    4    4    0    0  0.35169918147E+02 -0.17126453903E+02  0.42050849790E+03  0.44046014970E+03  0.12509000000E+03 0.  0.
         25    1    3    3    0    0 -0.11755981967E+02 -0.12788034766E+02  0.13849527630E+04  0.13906988893E+04  0.12509000000E+03 0.  0.
         25    1    4    4    0    0 -0.23413936180E+02  0.29914488669E+02  0.53528844149E+03  0.55102115453E+03  0.12509000000E+03 0.  0.
<mgrwt>
<rscale>  2 0.44234975E+03</rscale>
<asrwt>0</asrwt>
<pdfrwt beam="1">  1       21 0.34727407E+00 0.44234975E+03</pdfrwt>
<pdfrwt beam="2">  1       21 0.30463613E-02 0.44234975E+03</pdfrwt>
<totfact> 0.92943188E+03</totfact>
</mgrwt>
</event>
<event>
 7    0  0.4750554E-002  0.4464295E+03  0.7546771E-02  0.1028792E+00
         21   -1    0    0  502  501  0.00000000000E+00  0.00000000000E+00  0.70636464027E+02  0.70636464027E+02  0.00000000000E+00 0.  1.
         21   -1    0    0  501  502 -0.00000000000E+00 -0.00000000000E+00 -0.70536979117E+03  0.70536979117E+03  0.00000000000E+00 0.  1.
      99926    2    1    2    0    0  0.14210854715E-13  0.00000000000E+00 -0.63473332714E+03  0.77600625519E+03  0.44642951461E+03 0.  0.
      99925    2    3    3    0    0  0.86920318805E+02 -0.21398903968E+02 -0.49777977000E+03  0.57005276572E+03  0.26298745479E+03 0.  0.
         25    1    3    3    0    0 -0.86920318805E+02  0.21398903968E+02 -0.13695355714E+03  0.20595348947E+03  0.12509000000E+03 0.  0.
         25    1    4    4    0    0  0.74591166783E+02  0.16133835166E+02 -0.26998333919E+03  0.30718504902E+03  0.12509000000E+03 0.  0.
         25    1    4    4    0    0  0.12329152022E+02 -0.37532739134E+02 -0.22779643081E+03  0.26286771670E+03  0.12509000000E+03 0.  0.
<mgrwt>
<rscale>  2 0.44642951E+03</rscale>
<asrwt>0</asrwt>
<pdfrwt beam="1">  1       21 0.10387715E-01 0.44642951E+03</pdfrwt>
<pdfrwt beam="2">  1       21 0.10373085E+00 0.44642951E+03</pdfrwt>
<totfact> 0.52383494E+04</totfact>
</mgrwt>
</event>
<event>
 7    0  0.4750554E-002  0.4539511E+03  0.7546771E-02  0.1026550E+00
         21   -1    0    0  502  501  0.00000000000E+00  0.00000000000E+00  0.15808028807E+03  0.15808028807E+03  0.00000000000E+00 0. -1.
         21   -1    0    0  501  502 -0.00000000000E+00 -0.00000000000E+00 -0.32589704792E+03  0.32589704792E+03  0.00000000000E+00 0. -1.
      99926    2    1    2    0    0  0.00000000000E+00  0.00000000000E+00 -0.16781675984E+03  0.48397733599E+03  0.45395109524E+03 0.  0.
      99925    2    3    3    0    0  0.35296628444E+02  0.10375575071E+03 -0.12856226787E+03  0.31309863332E+03  0.26361219563E+03 0.  0.
         25    1    4    4    0    0  0.33272922904E+02  0.92543122905E+02 -0.60472341910E+02  0.17022258731E+03  0.12509000000E+03 0.  0.
         25    1    4    4    0    0  0.20237055410E+01  0.11212627805E+02 -0.68089925961E+02  0.14287604601E+03  0.12509000000E+03 0.  0.
         25    1    3    3    0    0 -0.35296628444E+02 -0.10375575071E+03 -0.39254491971E+02  0.17087870267E+03  0.12509000000E+03 0.  0.
<mgrwt>
<rscale>  2 0.45395110E+03</rscale>
<asrwt>0</asrwt>
<pdfrwt beam="1">  1       21 0.23247101E-01 0.45395110E+03</pdfrwt>
<pdfrwt beam="2">  1       21 0.47926036E-01 0.45395110E+03</pdfrwt>
<totfact> 0.66967576E+04</totfact>
</mgrwt>
</event>
<event>
 7    0  0.4750554E-002  0.4555184E+03  0.7546771E-02  0.1026089E+00
         21   -1    0    0  502  501  0.00000000000E+00  0.00000000000E+00  0.14274669657E+03  0.14274669657E+03  0.00000000000E+00 0. -1.
         21   -1    0    0  501  502 -0.00000000000E+00 -0.00000000000E+00 -0.36340075362E+03  0.36340075362E+03  0.00000000000E+00 0. -1.
      99926    2    1    2    0    0 -0.17763568394E-14 -0.88817841970E-15 -0.22065405705E+03  0.50614745019E+03  0.45551841724E+03 0.  0.
      99925    2    3    3    0    0 -0.98326951523E+01 -0.34745536399E+01 -0.13022362090E+02  0.26352184711E+03  0.26299320823E+03 0.  0.
         25    1    4    4    0    0  0.13446278180E+02  0.21291778457E+02  0.21452104866E+02  0.12939027448E+03  0.12509000000E+03 0.  0.
         25    1    3    3    0    0  0.98326951523E+01  0.34745536399E+01 -0.20763169496E+03  0.24262560308E+03  0.12509000000E+03 0.  0.
         25    1    4    4    0    0 -0.23278973332E+02 -0.24766332097E+02 -0.34474466956E+02  0.13413157263E+03  0.12509000000E+03 0.  0.
<mgrwt>
<rscale>  2 0.45551842E+03</rscale>
<asrwt>0</asrwt>
<pdfrwt beam="1">  1       21 0.20992161E-01 0.45551842E+03</pdfrwt>
<pdfrwt beam="2">  1       21 0.53441287E-01 0.45551842E+03</pdfrwt>
<totfact> 0.64574789E+04</totfact>
</mgrwt>
</event>
<event>
 7    0  0.4750554E-002  0.4530995E+03  0.7546771E-02  0.1026802E+00
         21   -1    0    0  502  501  0.00000000000E+00  0.00000000000E+00  0.48060365303E+03  0.48060365303E+03  0.00000000000E+00 0.  1.
         21   -1    0    0  501  502 -0.00000000000E+00 -0.00000000000E+00 -0.10679235200E+03  0.10679235200E+03  0.00000000000E+00 0.  1.
      99926    2    1    2    0    0  0.14210854715E-13  0.00000000000E+00  0.37381130103E+03  0.58739600503E+03  0.45309952322E+03 0.  0.
      99925    2    3    3    0    0  0.72013236392E+02 -0.19313458199E+02  0.34271144815E+03  0.43848789634E+03  0.26317595381E+03 0.  0.
         25    1    3    3    0    0 -0.72013236392E+02  0.19313458199E+02  0.31099852880E+02  0.14890810869E+03  0.12509000000E+03 0.  0.
         25    1    4    4    0    0  0.13226601766E+02 -0.17021025096E+02  0.11073171573E+03  0.16844488493E+03  0.12509000000E+03 0.  0.
         25    1    4    4    0    0  0.58786634626E+02 -0.22924331026E+01  0.23197973242E+03  0.27004301141E+03  0.12509000000E+03 0.  0.
<mgrwt>
<rscale>  2 0.45309952E+03</rscale>
<asrwt>0</asrwt>
<pdfrwt beam="1">  1       21 0.70677007E-01 0.45309952E+03</pdfrwt>
<pdfrwt beam="2">  1       21 0.15704758E-01 0.45309952E+03</pdfrwt>
<totfact> 0.60362494E+04</totfact>
</mgrwt>
</event>
<event>
 7    0  0.4750554E-002  0.4440180E+03  0.7546771E-02  0.1029521E+00
         21   -1    0    0  502  501  0.00000000000E+00  0.00000000000E+00  0.42869919625E+02  0.42869919625E+02  0.00000000000E+00 0.  1.
         21   -1    0    0  501  502 -0.00000000000E+00 -0.00000000000E+00 -0.11497105895E+04  0.11497105895E+04  0.00000000000E+00 0.  1.
      99926    2    1    2    0    0  0.00000000000E+00  0.00000000000E+00 -0.11068406698E+04  0.11925805091E+04  0.44401802018E+03 0.  0.
      99925    2    3    3    0    0 -0.73426834140E+02  0.68845706710E+02 -0.75346509644E+03  0.80444002514E+03  0.26321639613E+03 0.  0.
         25    1    4    4    0    0 -0.42950072052E+02  0.69071483241E+02 -0.46977306074E+03  0.49289939662E+03  0.12509000000E+03 0.  0.
         25    1    3    3    0    0  0.73426834140E+02 -0.68845706710E+02 -0.35337557339E+03  0.38814048394E+03  0.12509000000E+03 0.  0.
         25    1    4    4    0    0 -0.30476762088E+02 -0.22577653095E+00 -0.28369203570E+03  0.31154062853E+03  0.12509000000E+03 0.  0.
<mgrwt>
<rscale>  2 0.44401802E+03</rscale>
<asrwt>0</asrwt>
<pdfrwt beam="1">  1       21 0.63044012E-02 0.44401802E+03</pdfrwt>
<pdfrwt beam="2">  1       21 0.16907505E+00 0.44401802E+03</pdfrwt>
<totfact> 0.35318249E+04</totfact>
</mgrwt>
</event>
<event>
 7    0  0.4750554E-002  0.4549221E+03  0.7546771E-02  0.1026264E+00
         21   -1    0    0  502  501  0.00000000000E+00  0.00000000000E+00  0.17444586752E+03  0.17444586752E+03  0.00000000000E+00 0.  1.
         21   -1    0    0  501  502 -0.00000000000E+00 -0.00000000000E+00 -0.29658787913E+03  0.29658787913E+03  0.00000000000E+00 0.  1.
      99926    2    1    2    0    0  0.26645352591E-14  0.00000000000E+00 -0.12214201161E+03  0.47103374665E+03  0.45492210266E+03 0.  0.
      99925    2    3    3    0    0 -0.38805158237E+01  0.11108707693E+03 -0.99972630528E+02  0.30223094270E+03  0.26266636406E+03 0.  0.
         25    1    4    4    0    0  0.20343848635E+02  0.43815142570E+02 -0.14929541527E+02  0.13492234139E+03  0.12509000000E+03 0.  0.
         25    1    3    3    0    0  0.38805158237E+01 -0.11108707693E+03 -0.22169381081E+02  0.16880280395E+03  0.12509000000E+03 0.  0.
         25    1    4    4    0    0 -0.24224364459E+02  0.67271934363E+02 -0.85043089001E+02  0.16730860131E+03  0.12509000000E+03 0.  0.
<mgrwt>
<rscale>  2 0.45492210E+03</rscale>
<asrwt>0</asrwt>
<pdfrwt beam="1">  1       21 0.25653804E-01 0.45492210E+03</pdfrwt>
<pdfrwt beam="2">  1       21 0.43615864E-01 0.45492210E+03</pdfrwt>
<totfact> 0.67400550E+04</totfact>
</mgrwt>
</event>
<event>
 7    0  0.4750554E-002  0.4661874E+03  0.7546771E-02  0.1023002E+00
         21   -1    0    0  502  501  0.00000000000E+00  0.00000000000E+00  0.20793558293E+02  0.20793558293E+02  0.00000000000E+00 0. -1.
         21   -1    0    0  501  502 -0.00000000000E+00 -0.00000000000E+00 -0.26129570029E+04  0.26129570029E+04  0.00000000000E+00 0. -1.
      99926    2    1    2    0    0  0.00000000000E+00 -0.71054273576E-14 -0.25921634446E+04  0.26337505612E+04  0.46618740334E+03 0.  0.
      99925    2    3    3    0    0  0.10527339739E+03 -0.53265653990E+02 -0.14113176223E+04  0.14404508996E+04  0.26298601708E+03 0.  0.
         25    1    4    4    0    0  0.45548111357E+02 -0.66392583585E+02 -0.75829466553E+03  0.77274893301E+03  0.12509000000E+03 0.  0.
         25    1    3    3    0    0 -0.10527339739E+03  0.53265653990E+02 -0.11808458223E+04  0.11932996615E+04  0.12509000000E+03 0.  0.
         25    1    4    4    0    0  0.59725286036E+02  0.13126929595E+02 -0.65302295674E+03  0.66770196660E+03  0.12509000000E+03 0.  0.
<mgrwt>
<rscale>  2 0.46618740E+03</rscale>
<asrwt>0</asrwt>
<pdfrwt beam="1">  1       21 0.30578768E-02 0.46618740E+03</pdfrwt>
<pdfrwt beam="2">  1       21 0.38425831E+00 0.46618740E+03</pdfrwt>
<totfact> 0.53748548E+03</totfact>
</mgrwt>
</event>
<event>
 6    0  0.4750554E-002  0.4612855E+03  0.7546771E-02  0.1024409E+00
         21   -1    0    0  502  501  0.00000000000E+00  0.00000000000E+00  0.69028498006E+03  0.69028498006E+03  0.00000000000E+00 0.  1.
         21   -1    0    0  501  502 -0.00000000000E+00 -0.00000000000E+00 -0.77063953341E+02  0.77063953341E+02  0.00000000000E+00 0.  1.
      99926    2    1    2    0    0  0.00000000000E+00  0.00000000000E+00  0.61322102672E+03  0.76734893340E+03  0.46128554929E+03 0.  0.
         25    1    3    3    0    0 -0.14037321072E+02 -0.88037936527E+02  0.36654800934E+03  0.39743260549E+03  0.12509000000E+03 0.  0.
         25    1    3    3    0    0 -0.51969642166E+01  0.75434745276E+02  0.10791920500E+03  0.18169059453E+03  0.12509000000E+03 0.  0.
         25    1    3    3    0    0  0.19234285289E+02  0.12603191251E+02  0.13875381238E+03  0.18822573339E+03  0.12509000000E+03 0.  0.
<mgrwt>
<rscale>  2 0.46128555E+03</rscale>
<asrwt>0</asrwt>
<pdfrwt beam="1">  1       21 0.10151249E+00 0.46128555E+03</pdfrwt>
<pdfrwt beam="2">  1       21 0.11332935E-01 0.46128555E+03</pdfrwt>
<totfact> 0.47021043E+04</totfact>
</mgrwt>
</event>
<event>
 7    0  0.4750554E-002  0.4541626E+03  0.7546771E-02  0.1026488E+00
         21   -1    0    0  502  501  0.00000000000E+00  0.00000000000E+00  0.28208853934E+04  0.28208853934E+04  0.00000000000E+00 0. -1.
         21   -1    0    0  501  502 -0.00000000000E+00 -0.00000000000E+00 -0.18280045217E+02  0.18280045217E+02  0.00000000000E+00 0. -1.
      99926    2    1    2    0    0  0.00000000000E+00  0.00000000000E+00  0.28026053482E+04  0.28391654387E+04  0.45416258121E+03 0.  0.
      99925    2    3    3    0    0 -0.31764226148E+02 -0.69485995824E+02  0.22800220517E+04  0.22964149623E+04  0.26302823644E+03 0.  0.
         25    1    4    4    0    0 -0.78634870883E+01 -0.38849529756E+02  0.14728638092E+04  0.14786975447E+04  0.12509000000E+03 0.  0.
         25    1    4    4    0    0 -0.23900739060E+02 -0.30636466067E+02  0.80715824255E+03  0.81771741757E+03  0.12509000000E+03 0.  0.
         25    1    3    3    0    0  0.31764226148E+02  0.69485995824E+02  0.52258329651E+03  0.54275047635E+03  0.12509000000E+03 0.  0.
<mgrwt>
<rscale>  2 0.45416258E+03</rscale>
<asrwt>0</asrwt>
<pdfrwt beam="1">  1       21 0.41483579E+00 0.45416258E+03</pdfrwt>
<pdfrwt beam="2">  1       21 0.26882439E-02 0.45416258E+03</pdfrwt>
<totfact> 0.42747627E+03</totfact>
</mgrwt>
</event>
<event>
 7    0  0.4750554E-002  0.4576584E+03  0.7546771E-02  0.1025463E+00
         21   -1    0    0  502  501  0.00000000000E+00  0.00000000000E+00  0.73942976610E+03  0.73942976610E+03  0.00000000000E+00 0.  1.
         21   -1    0    0  501  502 -0.00000000000E+00 -0.00000000000E+00 -0.70815115422E+02  0.70815115422E+02  0.00000000000E+00 0.  1.
      99926    2    1    2    0    0  0.00000000000E+00  0.00000000000E+00  0.66861465068E+03  0.81024488152E+03  0.45765840638E+03 0.  0.
      99925    2    3    3    0    0  0.17799579566E+02  0.10413539076E+03  0.50334706897E+03  0.57760377100E+03  0.26288179814E+03 0.  0.
         25    1    4    4    0    0  0.31336844206E+02  0.30512153116E+02  0.29417853197E+03  0.32264765002E+03  0.12509000000E+03 0.  0.
         25    1    4    4    0    0 -0.13537264640E+02  0.73623237639E+02  0.20916853701E+03  0.25495612099E+03  0.12509000000E+03 0.  0.
         25    1    3    3    0    0 -0.17799579566E+02 -0.10413539076E+03  0.16526758170E+03  0.23264111052E+03  0.12509000000E+03 0.  0.
<mgrwt>
<rscale>  2 0.45765841E+03</rscale>
<asrwt>0</asrwt>
<pdfrwt beam="1">  1       21 0.10873967E+00 0.45765841E+03</pdfrwt>
<pdfrwt beam="2">  1       21 0.10413988E-01 0.45765841E+03</pdfrwt>
<totfact> 0.46299820E+04</totfact>
</mgrwt>
</event>
<event>
 7    0  0.4750554E-002  0.4602940E+03  0.7546771E-02  0.1024696E+00
         21   -1    0    0  502  501  0.00000000000E+00  0.00000000000E+00  0.15792881354E+03  0.15792881354E+03  0.00000000000E+00 0. -1.
         21   -1    0    0  501  502 -0.00000000000E+00 -0.00000000000E+00 -0.33538937198E+03  0.33538937198E+03  0.00000000000E+00 0. -1.
      99926    2    1    2    0    0  0.00000000000E+00  0.00000000000E+00 -0.17746055844E+03  0.49331818552E+03  0.46029401730E+03 0.  0.
      99925    2    3    3    0    0 -0.84800750151E+02  0.72121838084E+02 -0.15318880454E+03  0.32411607888E+03  0.26304314474E+03 0.  0.
         25    1    4    4    0    0 -0.24199900848E+01  0.47090302076E+02 -0.75793209389E+02  0.15367326245E+03  0.12509000000E+03 0.  0.
         25    1    4    4    0    0 -0.82380760066E+02  0.25031536008E+02 -0.77395595151E+02  0.17044281643E+03  0.12509000000E+03 0.  0.
         25    1    3    3    0    0  0.84800750151E+02 -0.72121838084E+02 -0.24271753905E+02  0.16920210664E+03  0.12509000000E+03 0.  0.
<mgrwt>
<rscale>  2 0.46029402E+03</rscale>
<asrwt>0</asrwt>
<pdfrwt beam="1">  1       21 0.23224825E-01 0.46029402E+03</pdfrwt>
<pdfrwt beam="2">  1       21 0.49321967E-01 0.46029402E+03</pdfrwt>
<totfact> 0.63050852E+04</totfact>
</mgrwt>
</event>
<event>
 7    0  0.4750554E-002  0.4527618E+03  0.7546771E-02  0.1026902E+00
         21   -1    0    0  502  501  0.00000000000E+00  0.00000000000E+00  0.46865708386E+02  0.46865708386E+02  0.00000000000E+00 0.  1.
         21   -1    0    0  501  502 -0.00000000000E+00 -0.00000000000E+00 -0.10935139872E+04  0.10935139872E+04  0.00000000000E+00 0.  1.
      99926    2    1    2    0    0  0.00000000000E+00  0.00000000000E+00 -0.10466482788E+04  0.11403796956E+04  0.45276178126E+03 0.  0.
      99925    2    3    3    0    0 -0.98767924804E+02  0.21259972742E+02 -0.77617164189E+03  0.82571764094E+03  0.26298310874E+03 0.  0.
         25    1    3    3    0    0  0.98767924804E+02 -0.21259972742E+02 -0.27047663696E+03  0.31466205467E+03  0.12509000000E+03 0.  0.
         25    1    4    4    0    0 -0.74539922139E+02  0.95263185376E+01 -0.50868971495E+03  0.52920665617E+03  0.12509000000E+03 0.  0.
         25    1    4    4    0    0 -0.24228002665E+02  0.11733654205E+02 -0.26748192693E+03  0.29651098477E+03  0.12509000000E+03 0.  0.
<mgrwt>
<rscale>  2 0.45276178E+03</rscale>
<asrwt>0</asrwt>
<pdfrwt beam="1">  1       21 0.68920173E-02 0.45276178E+03</pdfrwt>
<pdfrwt beam="2">  1       21 0.16081085E+00 0.45276178E+03</pdfrwt>
<totfact> 0.34706744E+04</totfact>
</mgrwt>
</event>
<event>
 7    0  0.4750554E-002  0.4585664E+03  0.7546771E-02  0.1025198E+00
         21   -1    0    0  502  501  0.00000000000E+00  0.00000000000E+00  0.14476305626E+04  0.14476305626E+04  0.00000000000E+00 0.  1.
         21   -1    0    0  501  502 -0.00000000000E+00 -0.00000000000E+00 -0.36315057705E+02  0.36315057705E+02  0.00000000000E+00 0.  1.
      99926    2    1    2    0    0  0.00000000000E+00  0.00000000000E+00  0.14113155049E+04  0.14839456203E+04  0.45856640705E+03 0.  0.
      99925    2    3    3    0    0 -0.76406415958E+02 -0.72571098518E+02  0.10464216350E+04  0.10840712036E+04  0.26288330410E+03 0.  0.
         25    1    4    4    0    0 -0.46981518913E+02 -0.47632091137E+02  0.39687676920E+03  0.42146738575E+03  0.12509000000E+03 0.  0.
         25    1    3    3    0    0  0.76406415958E+02  0.72571098518E+02  0.36489386997E+03  0.39987441676E+03  0.12509000000E+03 0.  0.
         25    1    4    4    0    0 -0.29424897045E+02 -0.24939007382E+02  0.64954486578E+03  0.66260381784E+03  0.12509000000E+03 0.  0.
<mgrwt>
<rscale>  2 0.45856641E+03</rscale>
<asrwt>0</asrwt>
<pdfrwt beam="1">  1       21 0.21288681E+00 0.45856641E+03</pdfrwt>
<pdfrwt beam="2">  1       21 0.53404506E-02 0.45856641E+03</pdfrwt>
<totfact> 0.23517091E+04</totfact>
</mgrwt>
</event>
<event>
 7    0  0.4750554E-002  0.4607837E+03  0.7546771E-02  0.1024554E+00
         21   -1    0    0  502  501  0.00000000000E+00  0.00000000000E+00  0.57226819874E+03  0.57226819874E+03  0.00000000000E+00 0. -1.
         21   -1    0    0  501  502 -0.00000000000E+00 -0.00000000000E+00 -0.92754413047E+02  0.92754413047E+02  0.00000000000E+00 0. -1.
      99926    2    1    2    0    0  0.00000000000E+00  0.00000000000E+00  0.47951378570E+03  0.66502261179E+03  0.46078368409E+03 0.  0.
      99925    2    3    3    0    0  0.65574345100E+02  0.90015366857E+02  0.35860335827E+03  0.45845639828E+03  0.26302687990E+03 0.  0.
         25    1    4    4    0    0  0.65394493063E+02  0.74399723586E+02  0.19825954767E+03  0.25449187597E+03  0.12509000000E+03 0.  0.
         25    1    4    4    0    0  0.17985203692E+00  0.15615643271E+02  0.16034381060E+03  0.20396452230E+03  0.12509000000E+03 0.  0.
         25    1    3    3    0    0 -0.65574345100E+02 -0.90015366857E+02  0.12091042743E+03  0.20656621352E+03  0.12509000000E+03 0.  0.
<mgrwt>
<rscale>  2 0.46078368E+03</rscale>
<asrwt>0</asrwt>
<pdfrwt beam="1">  1       21 0.84157086E-01 0.46078368E+03</pdfrwt>
<pdfrwt beam="2">  1       21 0.13640355E-01 0.46078368E+03</pdfrwt>
<totfact> 0.52411954E+04</totfact>
</mgrwt>
</event>
<event>
 7    0  0.4750554E-002  0.4534773E+03  0.7546771E-02  0.1026690E+00
         21   -1    0    0  502  501  0.00000000000E+00  0.00000000000E+00  0.73058620906E+02  0.73058620906E+02  0.00000000000E+00 0.  1.
         21   -1    0    0  501  502 -0.00000000000E+00 -0.00000000000E+00 -0.70368719500E+03  0.70368719500E+03  0.00000000000E+00 0.  1.
      99926    2    1    2    0    0  0.00000000000E+00  0.00000000000E+00 -0.63062857410E+03  0.77674581591E+03  0.45347730270E+03 0.  0.
      99925    2    3    3    0    0 -0.50603632618E+02 -0.97212146790E+02 -0.43364655949E+03  0.51894676374E+03  0.26314535133E+03 0.  0.
         25    1    3    3    0    0  0.50603632618E+02  0.97212146790E+02 -0.19698201461E+03  0.25779905216E+03  0.12509000000E+03 0.  0.
         25    1    4    4    0    0 -0.10306028418E+02 -0.77378578732E+02 -0.27455034582E+03  0.31163930939E+03  0.12509000000E+03 0.  0.
         25    1    4    4    0    0 -0.40297604200E+02 -0.19833568057E+02 -0.15909621367E+03  0.20730745435E+03  0.12509000000E+03 0.  0.
<mgrwt>
<rscale>  2 0.45347730E+03</rscale>
<asrwt>0</asrwt>
<pdfrwt beam="1">  1       21 0.10743915E-01 0.45347730E+03</pdfrwt>
<pdfrwt beam="2">  1       21 0.10348341E+00 0.45347730E+03</pdfrwt>
<totfact> 0.49499171E+04</totfact>
</mgrwt>
</event>
<event>
 7    0  0.4750554E-002  0.4571062E+03  0.7546771E-02  0.1025624E+00
         21   -1    0    0  502  501  0.00000000000E+00  0.00000000000E+00  0.41776399974E+03  0.41776399974E+03  0.00000000000E+00 0.  1.
         21   -1    0    0  501  502 -0.00000000000E+00 -0.00000000000E+00 -0.12503835780E+03  0.12503835780E+03  0.00000000000E+00 0.  1.
      99926    2    1    2    0    0 -0.71054273576E-14  0.00000000000E+00  0.29272564193E+03  0.54280235754E+03  0.45710622169E+03 0.  0.
      99925    2    3    3    0    0  0.48321987541E+02  0.13949266160E+02  0.30676348932E+03  0.40725101758E+03  0.26309685751E+03 0.  0.
         25    1    4    4    0    0  0.28353898447E+01  0.47869338902E+01  0.20181065829E+03  0.23749948226E+03  0.12509000000E+03 0.  0.
         25    1    4    4    0    0  0.45486597696E+02  0.91623322700E+01  0.10495283103E+03  0.16975153532E+03  0.12509000000E+03 0.  0.
         25    1    3    3    0    0 -0.48321987541E+02 -0.13949266160E+02 -0.14037847386E+02  0.13555133996E+03  0.12509000000E+03 0.  0.
<mgrwt>
<rscale>  2 0.45710622E+03</rscale>
<asrwt>0</asrwt>
<pdfrwt beam="1">  1       21 0.61435882E-01 0.45710622E+03</pdfrwt>
<pdfrwt beam="2">  1       21 0.18387994E-01 0.45710622E+03</pdfrwt>
<totfact> 0.61316270E+04</totfact>
</mgrwt>
</event>
<event>
 7    0  0.4750554E-002  0.4490477E+03  0.7546771E-02  0.1028006E+00
         21   -1    0    0  502  501  0.00000000000E+00  0.00000000000E+00  0.12007594525E+03  0.12007594525E+03  0.00000000000E+00 0. -1.
         21   -1    0    0  501  502 -0.00000000000E+00 -0.00000000000E+00 -0.41982564980E+03  0.41982564980E+03  0.00000000000E+00 0. -1.
      99926    2    1    2    0    0  0.00000000000E+00  0.00000000000E+00 -0.29974970455E+03  0.53990159505E+03  0.44904771124E+03 0.  0.
      99925    2    3    3    0    0 -0.10522061306E+03  0.10077513175E+02 -0.16615114167E+03  0.32855113306E+03  0.26299564915E+03 0.  0.
         25    1    4    4    0    0 -0.65939720758E+02  0.69524039084E+01 -0.13072957645E+03  0.19270213531E+03  0.12509000000E+03 0.  0.
         25    1    4    4    0    0 -0.39280892297E+02  0.31251092666E+01 -0.35421565228E+02  0.13584899775E+03  0.12509000000E+03 0.  0.
         25    1    3    3    0    0  0.10522061306E+03 -0.10077513175E+02 -0.13359856287E+03  0.21135046199E+03  0.12509000000E+03 0.  0.
<mgrwt>
<rscale>  2 0.44904771E+03</rscale>
<asrwt>0</asrwt>
<pdfrwt beam="1">  1       21 0.17658227E-01 0.44904771E+03</pdfrwt>
<pdfrwt beam="2">  1       21 0.61739065E-01 0.44904771E+03</pdfrwt>
<totfact> 0.65573512E+04</totfact>
</mgrwt>
</event>
<event>
 7    0  0.4750554E-002  0.4461606E+03  0.7546771E-02  0.1028873E+00
         21   -1    0    0  502  501  0.00000000000E+00  0.00000000000E+00  0.64720841406E+02  0.64720841406E+02  0.00000000000E+00 0. -1.
         21   -1    0    0  501  502 -0.00000000000E+00 -0.00000000000E+00 -0.76891486664E+03  0.76891486664E+03  0.00000000000E+00 0. -1.
      99926    2    1    2    0    0 -0.14210854715E-13  0.00000000000E+00 -0.70419402523E+03  0.83363570804E+03  0.44616058606E+03 0.  0.
      99925    2    3    3    0    0 -0.85015437161E+02  0.55884103823E+02 -0.40781479439E+03  0.49623562774E+03  0.26379202811E+03 0.  0.
         25    1    4    4    0    0 -0.28635864089E+02  0.11530360662E+02 -0.12890854058E+03  0.18225773471E+03  0.12509000000E+03 0.  0.
         25    1    3    3    0    0  0.85015437161E+02 -0.55884103823E+02 -0.29637923084E+03  0.33740008031E+03  0.12509000000E+03 0.  0.
         25    1    4    4    0    0 -0.56379573072E+02  0.44353743161E+02 -0.27890625381E+03  0.31397789302E+03  0.12509000000E+03 0.  0.
<mgrwt>
<rscale>  2 0.44616059E+03</rscale>
<asrwt>0</asrwt>
<pdfrwt beam="1">  1       21 0.95177708E-02 0.44616059E+03</pdfrwt>
<pdfrwt beam="2">  1       21 0.11307572E+00 0.44616059E+03</pdfrwt>
<totfact> 0.49526997E+04</totfact>
</mgrwt>
</event>
<event>
 7    0  0.4750554E-002  0.4583853E+03  0.7546771E-02  0.1025251E+00
         21   -1    0    0  502  501  0.00000000000E+00  0.00000000000E+00  0.34538515570E+03  0.34538515570E+03  0.00000000000E+00 0.  1.
         21   -1    0    0  501  502 -0.00000000000E+00 -0.00000000000E+00 -0.15208899745E+03  0.15208899745E+03  0.00000000000E+00 0.  1.
      99926    2    1    2    0    0  0.00000000000E+00  0.00000000000E+00  0.19329615824E+03  0.49747415315E+03  0.45838534909E+03 0.  0.
      99925    2    3    3    0    0  0.33799822850E+02  0.11120344354E+03  0.12511405188E+03  0.31361295113E+03  0.26304167590E+03 0.  0.
         25    1    3    3    0    0 -0.33799822850E+02 -0.11120344354E+03  0.68182106367E+02  0.18386120202E+03  0.12509000000E+03 0.  0.
         25    1    4    4    0    0 -0.71386694032E+01  0.59531831020E+02  0.26506512277E+02  0.14122713195E+03  0.12509000000E+03 0.  0.
         25    1    4    4    0    0  0.40938492253E+02  0.51671612524E+02  0.98607539601E+02  0.17238581918E+03  0.12509000000E+03 0.  0.
<mgrwt>
<rscale>  2 0.45838535E+03</rscale>
<asrwt>0</asrwt>
<pdfrwt beam="1">  1       21 0.50791935E-01 0.45838535E+03</pdfrwt>
<pdfrwt beam="2">  1       21 0.22366029E-01 0.45838535E+03</pdfrwt>
<totfact> 0.63718765E+04</totfact>
</mgrwt>
</event>
<event>
 7    0  0.4750554E-002  0.4524807E+03  0.7546771E-02  0.1026985E+00
         21   -1    0    0  502  501  0.00000000000E+00  0.00000000000E+00  0.37039126202E+03  0.37039126202E+03  0.00000000000E+00 0.  1.
         21   -1    0    0  501  502 -0.00000000000E+00 -0.00000000000E+00 -0.13819090575E+03  0.13819090575E+03  0.00000000000E+00 0.  1.
      99926    2    1    2    0    0  0.00000000000E+00 -0.14210854715E-13  0.23220035627E+03  0.50858216776E+03  0.45248073541E+03 0.  0.
      99925    2    3    3    0    0  0.17266818215E+02 -0.90838412973E+02  0.78047660298E+02  0.28958371558E+03  0.26309224764E+03 0.  0.
         25    1    4    4    0    0  0.97229860495E+01 -0.83668171897E+02  0.23113036505E+02  0.15256677228E+03  0.12509000000E+03 0.  0.
         25    1    3    3    0    0 -0.17266818215E+02  0.90838412973E+02  0.15415269598E+03  0.21899845218E+03  0.12509000000E+03 0.  0.
         25    1    4    4    0    0  0.75438321660E+01 -0.71702410758E+01  0.54934623793E+02  0.13701694330E+03  0.12509000000E+03 0.  0.
<mgrwt>
<rscale>  2 0.45248074E+03</rscale>
<asrwt>0</asrwt>
<pdfrwt beam="1">  1       21 0.54469303E-01 0.45248074E+03</pdfrwt>
<pdfrwt beam="2">  1       21 0.20322192E-01 0.45248074E+03</pdfrwt>
<totfact> 0.65981211E+04</totfact>
</mgrwt>
</event>
<event>
 7    0  0.4750554E-002  0.4544192E+03  0.7546771E-02  0.1026412E+00
         21   -1    0    0  502  501  0.00000000000E+00  0.00000000000E+00  0.23321343863E+03  0.23321343863E+03  0.00000000000E+00 0. -1.
         21   -1    0    0  501  502 -0.00000000000E+00 -0.00000000000E+00 -0.22136035909E+03  0.22136035909E+03  0.00000000000E+00 0. -1.
      99926    2    1    2    0    0  0.71054273576E-14  0.00000000000E+00  0.11853079531E+02  0.45457379772E+03  0.45441923604E+03 0.  0.
      99925    2    3    3    0    0 -0.62842645537E+02 -0.47693416361E+02 -0.73213488719E+02  0.28396404068E+03  0.26277652370E+03 0.  0.
         25    1    4    4    0    0 -0.42854286070E+02  0.67512606760E+01 -0.11487807852E+02  0.13289675385E+03  0.12509000000E+03 0.  0.
         25    1    3    3    0    0  0.62842645537E+02  0.47693416361E+02  0.85066568250E+02  0.17060975704E+03  0.12509000000E+03 0.  0.
         25    1    4    4    0    0 -0.19988359467E+02 -0.54444677037E+02 -0.61725680867E+02  0.15106728683E+03  0.12509000000E+03 0.  0.
<mgrwt>
<rscale>  2 0.45441924E+03</rscale>
<asrwt>0</asrwt>
<pdfrwt beam="1">  1       21 0.34296094E-01 0.45441924E+03</pdfrwt>
<pdfrwt beam="2">  1       21 0.32552994E-01 0.45441924E+03</pdfrwt>
<totfact> 0.68895735E+04</totfact>
</mgrwt>
</event>
<event>
 7    0  0.4750554E-002  0.4627093E+03  0.7546771E-02  0.1023998E+00
         21   -1    0    0  502  501  0.00000000000E+00  0.00000000000E+00  0.18990900548E+03  0.18990900548E+03  0.00000000000E+00 0.  1.
         21   -1    0    0  501  502 -0.00000000000E+00 -0.00000000000E+00 -0.28184536768E+03  0.28184536768E+03  0.00000000000E+00 0.  1.
      99926    2    1    2    0    0  0.14210854715E-13  0.00000000000E+00 -0.91936362204E+02  0.47175437317E+03  0.46270929741E+03 0.  0.
      99925    2    3    3    0    0  0.65189300096E+02 -0.93811001318E+02 -0.95651865699E+02  0.30230980441E+03  0.26304332269E+03 0.  0.
         25    1    4    4    0    0  0.64675967962E+02 -0.74193652653E+02 -0.40778540148E+02  0.16431091370E+03  0.12509000000E+03 0.  0.
         25    1    3    3    0    0 -0.65189300096E+02  0.93811001318E+02  0.37155034944E+01  0.16944456876E+03  0.12509000000E+03 0.  0.
         25    1    4    4    0    0  0.51333213414E+00 -0.19617348665E+02 -0.54873325550E+02  0.13799889070E+03  0.12509000000E+03 0.  0.
<mgrwt>
<rscale>  2 0.46270930E+03</rscale>
<asrwt>0</asrwt>
<pdfrwt beam="1">  1       21 0.27927795E-01 0.46270930E+03</pdfrwt>
<pdfrwt beam="2">  1       21 0.41447847E-01 0.46270930E+03</pdfrwt>
<totfact> 0.63340204E+04</totfact>
</mgrwt>
</event>
<event>
 7    0  0.4750554E-002  0.4605875E+03  0.7546771E-02  0.1024611E+00
         21   -1    0    0  502  501  0.00000000000E+00  0.00000000000E+00  0.10243163374E+03  0.10243163374E+03  0.00000000000E+00 0.  1.
         21   -1    0    0  501  502 -0.00000000000E+00 -0.00000000000E+00 -0.51776213308E+03  0.51776213308E+03  0.00000000000E+00 0.  1.
      99926    2    1    2    0    0  0.00000000000E+00 -0.14210854715E-13 -0.41533049934E+03  0.62019376682E+03  0.46058754295E+03 0.  0.
      99925    2    3    3    0    0  0.41945653718E+02  0.10256142637E+03 -0.20431898028E+03  0.35102531896E+03  0.26304798955E+03 0.  0.
         25    1    4    4    0    0  0.33413372278E+02  0.16192756984E+02 -0.11845801078E+03  0.17623412622E+03  0.12509000000E+03 0.  0.
         25    1    4    4    0    0  0.85322814397E+01  0.86368669384E+02 -0.85860969493E+02  0.17479119274E+03  0.12509000000E+03 0.  0.
         25    1    3    3    0    0 -0.41945653718E+02 -0.10256142637E+03 -0.21101151906E+03  0.26916844786E+03  0.12509000000E+03 0.  0.
<mgrwt>
<rscale>  2 0.46058754E+03</rscale>
<asrwt>0</asrwt>
<pdfrwt beam="1">  1       21 0.15063476E-01 0.46058754E+03</pdfrwt>
<pdfrwt beam="2">  1       21 0.76141489E-01 0.46058754E+03</pdfrwt>
<totfact> 0.54985576E+04</totfact>
</mgrwt>
</event>
<event>
 7    0  0.4750554E-002  0.4537624E+03  0.7546771E-02  0.1026606E+00
         21   -1    0    0  502  501  0.00000000000E+00  0.00000000000E+00  0.20360587280E+03  0.20360587280E+03  0.00000000000E+00 0. -1.
         21   -1    0    0  501  502 -0.00000000000E+00 -0.00000000000E+00 -0.25281731114E+03  0.25281731114E+03  0.00000000000E+00 0. -1.
      99926    2    1    2    0    0  0.17763568394E-14  0.00000000000E+00 -0.49211438337E+02  0.45642318393E+03  0.45376244575E+03 0.  0.
      99925    2    3    3    0    0 -0.15970187675E+02 -0.41899372274E+02  0.72269407568E+02  0.27637955502E+03  0.26296803393E+03 0.  0.
         25    1    3    3    0    0  0.15970187675E+02  0.41899372274E+02 -0.12148084590E+03  0.18004362892E+03  0.12509000000E+03 0.  0.
         25    1    4    4    0    0 -0.43477583777E+02 -0.40589580292E+02  0.42431505844E+02  0.14486460958E+03  0.12509000000E+03 0.  0.
         25    1    4    4    0    0  0.27507396102E+02 -0.13097919820E+01  0.29837901724E+02  0.13151494544E+03  0.12509000000E+03 0.  0.
<mgrwt>
<rscale>  2 0.45376245E+03</rscale>
<asrwt>0</asrwt>
<pdfrwt beam="1">  1       21 0.29942040E-01 0.45376245E+03</pdfrwt>
<pdfrwt beam="2">  1       21 0.37179016E-01 0.45376245E+03</pdfrwt>
<totfact> 0.69121588E+04</totfact>
</mgrwt>
</event>
<event>
 7    0  0.4750554E-002  0.4792527E+03  0.7546771E-02  0.1019341E+00
         21   -1    0    0  502  501  0.00000000000E+00  0.00000000000E+00  0.15478574144E+03  0.15478574144E+03  0.00000000000E+00 0. -1.
         21   -1    0    0  501  502 -0.00000000000E+00 -0.00000000000E+00 -0.37096951488E+03  0.37096951488E+03  0.00000000000E+00 0. -1.
      99926    2    1    2    0    0  0.00000000000E+00  0.00000000000E+00 -0.21618377344E+03  0.52575525632E+03  0.47925271585E+03 0.  0.
      99925    2    3    3    0    0 -0.11374538121E+03  0.69901169365E+02 -0.11443469164E+03  0.31641207164E+03  0.26305344553E+03 0.  0.
         25    1    4    4    0    0 -0.55340250867E+02  0.64801363108E+02 -0.29387039565E+02  0.15418452004E+03  0.12509000000E+03 0.  0.
         25    1    4    4    0    0 -0.58405130339E+02  0.50998062570E+01 -0.85047652080E+02  0.16222755160E+03  0.12509000000E+03 0.  0.
         25    1    3    3    0    0  0.11374538121E+03 -0.69901169365E+02 -0.10174908180E+03  0.20934318468E+03  0.12509000000E+03 0.  0.
<mgrwt>
<rscale>  2 0.47925272E+03</rscale>
<asrwt>0</asrwt>
<pdfrwt beam="1">  1       21 0.22762609E-01 0.47925272E+03</pdfrwt>
<pdfrwt beam="2">  1       21 0.54554340E-01 0.47925272E+03</pdfrwt>
<totfact> 0.52616982E+04</totfact>
</mgrwt>
</event>
<event>
 7    0  0.4750554E-002  0.4568122E+03  0.7546771E-02  0.1025710E+00
         21   -1    0    0  502  501  0.00000000000E+00  0.00000000000E+00  0.64535463409E+02  0.64535463409E+02  0.00000000000E+00 0. -1.
         21   -1    0    0  501  502 -0.00000000000E+00 -0.00000000000E+00 -0.80838272647E+03  0.80838272647E+03  0.00000000000E+00 0. -1.
      99926    2    1    2    0    0  0.00000000000E+00 -0.35527136788E-14 -0.74384726306E+03  0.87291818988E+03  0.45681223217E+03 0.  0.
      99925    2    3    3    0    0 -0.10659012617E+03  0.20725620594E+02 -0.53912474608E+03  0.60957464353E+03  0.26293487378E+03 0.  0.
         25    1    3    3    0    0  0.10659012617E+03 -0.20725620594E+02 -0.20472251698E+03  0.26334354635E+03  0.12509000000E+03 0.  0.
         25    1    4    4    0    0 -0.11878674379E+02  0.20616261153E+02 -0.25404837230E+03  0.28417286411E+03  0.12509000000E+03 0.  0.
         25    1    4    4    0    0 -0.94711451791E+02  0.10935944106E+00 -0.28507637378E+03  0.32540177941E+03  0.12509000000E+03 0.  0.
<mgrwt>
<rscale>  2 0.45681223E+03</rscale>
<asrwt>0</asrwt>
<pdfrwt beam="1">  1       21 0.94905103E-02 0.45681223E+03</pdfrwt>
<pdfrwt beam="2">  1       21 0.11887980E+00 0.45681223E+03</pdfrwt>
<totfact> 0.43800292E+04</totfact>
</mgrwt>
</event>
<event>
 7    0  0.4750554E-002  0.4605995E+03  0.7546771E-02  0.1024607E+00
         21   -1    0    0  502  501  0.00000000000E+00  0.00000000000E+00  0.82469960453E+03  0.82469960453E+03  0.00000000000E+00 0. -1.
         21   -1    0    0  501  502 -0.00000000000E+00 -0.00000000000E+00 -0.64311875509E+02  0.64311875509E+02  0.00000000000E+00 0. -1.
      99926    2    1    2    0    0 -0.71054273576E-14  0.00000000000E+00  0.76038772902E+03  0.88901148004E+03  0.46059951497E+03 0.  0.
      99925    2    3    3    0    0 -0.36474514930E+02 -0.56185091052E+02  0.28801069388E+03  0.39578260201E+03  0.26307138493E+03 0.  0.
         25    1    4    4    0    0 -0.19668128129E+01 -0.65748045461E+02  0.15244129313E+03  0.20787623670E+03  0.12509000000E+03 0.  0.
         25    1    4    4    0    0 -0.34507702117E+02  0.95629544084E+01  0.13556940076E+03  0.18790636531E+03  0.12509000000E+03 0.  0.
         25    1    3    3    0    0  0.36474514930E+02  0.56185091052E+02  0.47237703514E+03  0.49322887803E+03  0.12509000000E+03 0.  0.
<mgrwt>
<rscale>  2 0.46059951E+03</rscale>
<asrwt>0</asrwt>
<pdfrwt beam="1">  1       21 0.12127935E+00 0.46059951E+03</pdfrwt>
<pdfrwt beam="2">  1       21 0.94576292E-02 0.46059951E+03</pdfrwt>
<totfact> 0.41846879E+04</totfact>
</mgrwt>
</event>
<event>
 7    0  0.4750554E-002  0.4528492E+03  0.7546771E-02  0.1026876E+00
         21   -1    0    0  502  501  0.00000000000E+00  0.00000000000E+00  0.19772367969E+03  0.19772367969E+03  0.00000000000E+00 0. -1.
         21   -1    0    0  501  502 -0.00000000000E+00 -0.00000000000E+00 -0.25929164235E+03  0.25929164235E+03  0.00000000000E+00 0. -1.
      99926    2    1    2    0    0  0.00000000000E+00  0.00000000000E+00 -0.61567962660E+02  0.45701532205E+03  0.45284919185E+03 0.  0.
      99925    2    3    3    0    0 -0.59607277865E+02 -0.90862785029E+02 -0.63046963123E+02  0.29130844585E+03  0.26282430973E+03 0.  0.
         25    1    3    3    0    0  0.59607277865E+02  0.90862785029E+02  0.14790004626E+01  0.16570687620E+03  0.12509000000E+03 0.  0.
         25    1    4    4    0    0 -0.30249686727E+01 -0.15982630301E+02 -0.44802921415E+02  0.13386338101E+03  0.12509000000E+03 0.  0.
         25    1    4    4    0    0 -0.56582309192E+02 -0.74880154728E+02 -0.18244041708E+02  0.15744506484E+03  0.12509000000E+03 0.  0.
<mgrwt>
<rscale>  2 0.45284919E+03</rscale>
<asrwt>0</asrwt>
<pdfrwt beam="1">  1       21 0.29077012E-01 0.45284919E+03</pdfrwt>
<pdfrwt beam="2">  1       21 0.38131124E-01 0.45284919E+03</pdfrwt>
<totfact> 0.69584526E+04</totfact>
</mgrwt>
</event>
<event>
 7    0  0.4750554E-002  0.4649680E+03  0.7546771E-02  0.1023350E+00
         21   -1    0    0  502  501  0.00000000000E+00  0.00000000000E+00  0.99496926218E+02  0.99496926218E+02  0.00000000000E+00 0. -1.
         21   -1    0    0  501  502 -0.00000000000E+00 -0.00000000000E+00 -0.54322085140E+03  0.54322085140E+03  0.00000000000E+00 0. -1.
      99926    2    1    2    0    0  0.00000000000E+00  0.14210854715E-13 -0.44372392519E+03  0.64271777762E+03  0.46496797727E+03 0.  0.
      99925    2    3    3    0    0  0.80521415296E+02 -0.87755029547E+02 -0.23870996841E+03  0.37464526112E+03  0.26304368293E+03 0.  0.
         25    1    3    3    0    0 -0.80521415296E+02  0.87755029547E+02 -0.20501395677E+03  0.26807251650E+03  0.12509000000E+03 0.  0.
         25    1    4    4    0    0  0.32668778079E+01 -0.27322154969E+02 -0.12690983017E+03  0.18030747554E+03  0.12509000000E+03 0.  0.
         25    1    4    4    0    0  0.77254537488E+02 -0.60432874579E+02 -0.11180013825E+03  0.19433778558E+03  0.12509000000E+03 0.  0.
<mgrwt>
<rscale>  2 0.46496798E+03</rscale>
<asrwt>0</asrwt>
<pdfrwt beam="1">  1       21 0.14631901E-01 0.46496798E+03</pdfrwt>
<pdfrwt beam="2">  1       21 0.79885419E-01 0.46496798E+03</pdfrwt>
<totfact> 0.51916958E+04</totfact>
</mgrwt>
</event>
<event>
 7    0  0.4750554E-002  0.4542833E+03  0.7546771E-02  0.1026452E+00
         21   -1    0    0  502  501  0.00000000000E+00  0.00000000000E+00  0.46578570780E+02  0.46578570780E+02  0.00000000000E+00 0.  1.
         21   -1    0    0  501  502 -0.00000000000E+00 -0.00000000000E+00 -0.11076624480E+04  0.11076624480E+04  0.00000000000E+00 0.  1.
      99926    2    1    2    0    0  0.00000000000E+00  0.00000000000E+00 -0.10610838772E+04  0.11542410188E+04  0.45428332012E+03 0.  0.
      99925    2    3    3    0    0  0.10584063873E+03 -0.34537036207E+02 -0.67749863419E+03  0.73569568737E+03  0.26428904140E+03 0.  0.
         25    1    3    3    0    0 -0.10584063873E+03  0.34537036207E+02 -0.38358524302E+03  0.41854533140E+03  0.12509000000E+03 0.  0.
         25    1    4    4    0    0  0.61598289719E+02  0.16574201685E+02 -0.27412238438E+03  0.30799292716E+03  0.12509000000E+03 0.  0.
         25    1    4    4    0    0  0.44242349011E+02 -0.51111237892E+02 -0.40337624981E+03  0.42770276021E+03  0.12509000000E+03 0.  0.
<mgrwt>
<rscale>  2 0.45428332E+03</rscale>
<asrwt>0</asrwt>
<pdfrwt beam="1">  1       21 0.68497888E-02 0.45428332E+03</pdfrwt>
<pdfrwt beam="2">  1       21 0.16289156E+00 0.45428332E+03</pdfrwt>
<totfact> 0.33829631E+04</totfact>
</mgrwt>
</event>
<event>
 7    0  0.4750554E-002  0.4484422E+03  0.7546771E-02  0.1028188E+00
         21   -1    0    0  502  501  0.00000000000E+00  0.00000000000E+00  0.14495396447E+04  0.14495396447E+04  0.00000000000E+00 0.  1.
         21   -1    0    0  501  502 -0.00000000000E+00 -0.00000000000E+00 -0.34683501111E+02  0.34683501111E+02  0.00000000000E+00 0.  1.
      99926    2    1    2    0    0  0.00000000000E+00  0.00000000000E+00  0.14148561436E+04  0.14842231458E+04  0.44844223654E+03 0.  0.
      99925    2    3    3    0    0  0.74702886042E+02  0.73425509785E+02  0.82500178635E+03  0.87222028837E+03  0.26299896822E+03 0.  0.
         25    1    4    4    0    0  0.77201149886E+02  0.38349451667E+02  0.48498067202E+03  0.50821694021E+03  0.12509000000E+03 0.  0.
         25    1    4    4    0    0 -0.24982638442E+01  0.35076058118E+02  0.34002111433E+03  0.36400334815E+03  0.12509000000E+03 0.  0.
         25    1    3    3    0    0 -0.74702886042E+02 -0.73425509785E+02  0.58985435727E+03  0.61200285748E+03  0.12509000000E+03 0.  0.
<mgrwt>
<rscale>  2 0.44844224E+03</rscale>
<asrwt>0</asrwt>
<pdfrwt beam="1">  1       21 0.21316755E+00 0.44844224E+03</pdfrwt>
<pdfrwt beam="2">  1       21 0.51005158E-02 0.44844224E+03</pdfrwt>
<totfact> 0.25439889E+04</totfact>
</mgrwt>
</event>
<event>
 7    0  0.4750554E-002  0.4535760E+03  0.7546771E-02  0.1026661E+00
         21   -1    0    0  502  501  0.00000000000E+00  0.00000000000E+00  0.62066737800E+03  0.62066737800E+03  0.00000000000E+00 0.  1.
         21   -1    0    0  501  502 -0.00000000000E+00 -0.00000000000E+00 -0.82866935558E+02  0.82866935558E+02  0.00000000000E+00 0.  1.
      99926    2    1    2    0    0  0.00000000000E+00  0.71054273576E-14  0.53780044244E+03  0.70353431356E+03  0.45357602942E+03 0.  0.
      99925    2    3    3    0    0 -0.39722578858E+02 -0.43657398838E+02  0.48622156495E+03  0.55591405598E+03  0.26295470269E+03 0.  0.
         25    1    4    4    0    0 -0.22243510706E+02 -0.10189962122E+02  0.32023382557E+03  0.34466769538E+03  0.12509000000E+03 0.  0.
         25    1    3    3    0    0  0.39722578858E+02  0.43657398838E+02  0.51578877492E+02  0.14762025758E+03  0.12509000000E+03 0.  0.
         25    1    4    4    0    0 -0.17479068152E+02 -0.33467436716E+02  0.16598773938E+03  0.21124636061E+03  0.12509000000E+03 0.  0.
<mgrwt>
<rscale>  2 0.45357603E+03</rscale>
<asrwt>0</asrwt>
<pdfrwt beam="1">  1       21 0.91274612E-01 0.45357603E+03</pdfrwt>
<pdfrwt beam="2">  1       21 0.12186314E-01 0.45357603E+03</pdfrwt>
<totfact> 0.53306286E+04</totfact>
</mgrwt>
</event>
<event>
 7    0  0.4750554E-002  0.4566340E+03  0.7546771E-02  0.1025762E+00
         21   -1    0    0  502  501  0.00000000000E+00  0.00000000000E+00  0.41082346781E+03  0.41082346781E+03  0.00000000000E+00 0.  1.
         21   -1    0    0  501  502 -0.00000000000E+00 -0.00000000000E+00 -0.12688818937E+03  0.12688818937E+03  0.00000000000E+00 0.  1.
      99926    2    1    2    0    0  0.00000000000E+00  0.00000000000E+00  0.28393527844E+03  0.53771165718E+03  0.45663397150E+03 0.  0.
      99925    2    3    3    0    0  0.68466944694E+02 -0.17080375745E+02  0.28494240695E+03  0.39408720188E+03  0.26293171293E+03 0.  0.
         25    1    4    4    0    0  0.36158724724E+02 -0.72137155349E+01  0.20134314605E+03  0.23988760207E+03  0.12509000000E+03 0.  0.
         25    1    3    3    0    0 -0.68466944694E+02  0.17080375745E+02 -0.10071285031E+01  0.14362445530E+03  0.12509000000E+03 0.  0.
         25    1    4    4    0    0  0.32308219970E+02 -0.98666602099E+01  0.83599260900E+02  0.15419959982E+03  0.12509000000E+03 0.  0.
<mgrwt>
<rscale>  2 0.45663397E+03</rscale>
<asrwt>0</asrwt>
<pdfrwt beam="1">  1       21 0.60415216E-01 0.45663397E+03</pdfrwt>
<pdfrwt beam="2">  1       21 0.18660028E-01 0.45663397E+03</pdfrwt>
<totfact> 0.61881769E+04</totfact>
</mgrwt>
</event>
<event>
 7    0  0.4750554E-002  0.4494486E+03  0.7546771E-02  0.1027887E+00
         21   -1    0    0  502  501  0.00000000000E+00  0.00000000000E+00  0.15946246210E+04  0.15946246210E+04  0.00000000000E+00 0.  1.
         21   -1    0    0  501  502 -0.00000000000E+00 -0.00000000000E+00 -0.31669534454E+02  0.31669534454E+02  0.00000000000E+00 0.  1.
      99926    2    1    2    0    0  0.00000000000E+00  0.00000000000E+00  0.15629550865E+04  0.16262941554E+04  0.44944863722E+03 0.  0.
      99925    2    3    3    0    0 -0.93423500382E+02 -0.21232770619E+02  0.80908577421E+03  0.85613493221E+03  0.26299895654E+03 0.  0.
         25    1    3    3    0    0  0.93423500382E+02  0.21232770619E+02  0.75386931229E+03  0.77015922320E+03  0.12509000000E+03 0.  0.
         25    1    4    4    0    0 -0.22069609914E+02 -0.70688237096E+01  0.27868841335E+03  0.30635237193E+03  0.12509000000E+03 0.  0.
         25    1    4    4    0    0 -0.71353890468E+02 -0.14163946909E+02  0.53039736086E+03  0.54978256028E+03  0.12509000000E+03 0.  0.
<mgrwt>
<rscale>  2 0.44944864E+03</rscale>
<asrwt>0</asrwt>
<pdfrwt beam="1">  1       21 0.23450357E+00 0.44944864E+03</pdfrwt>
<pdfrwt beam="2">  1       21 0.46572856E-02 0.44944864E+03</pdfrwt>
<totfact> 0.21765244E+04</totfact>
</mgrwt>
</event>
<event>
 7    0  0.4750554E-002  0.4230871E+03  0.7546771E-02  0.1036066E+00
         21   -1    0    0  502  501  0.00000000000E+00  0.00000000000E+00  0.40691983945E+03  0.40691983945E+03  0.00000000000E+00 0.  1.
         21   -1    0    0  501  502 -0.00000000000E+00 -0.00000000000E+00 -0.10997415587E+03  0.10997415587E+03  0.00000000000E+00 0.  1.
      99926    2    1    2    0    0  0.00000000000E+00  0.00000000000E+00  0.29694568357E+03  0.51689399532E+03  0.42308706362E+03 0.  0.
      99925    2    3    3    0    0 -0.72643296882E+02 -0.79928165971E+01  0.23200084271E+03  0.35812915616E+03  0.26285198834E+03 0.  0.
         25    1    3    3    0    0  0.72643296882E+02  0.79928165971E+01  0.64944840858E+02  0.15876483916E+03  0.12509000000E+03 0.  0.
         25    1    4    4    0    0 -0.76075804616E+02 -0.58787213199E+01  0.14136842749E+03  0.20360409574E+03  0.12509000000E+03 0.  0.
         25    1    4    4    0    0  0.34325077345E+01 -0.21140952771E+01  0.90632415223E+02  0.15452506042E+03  0.12509000000E+03 0.  0.
<mgrwt>
<rscale>  2 0.42308706E+03</rscale>
<asrwt>0</asrwt>
<pdfrwt beam="1">  1       21 0.59841152E-01 0.42308706E+03</pdfrwt>
<pdfrwt beam="2">  1       21 0.16172670E-01 0.42308706E+03</pdfrwt>
<totfact> 0.83230445E+04</totfact>
</mgrwt>
</event>
<event>
 7    0  0.4750554E-002  0.4559191E+03  0.7546771E-02  0.1025971E+00
         21   -1    0    0  502  501  0.00000000000E+00  0.00000000000E+00  0.82751539843E+02  0.82751539843E+02  0.00000000000E+00 0.  1.
         21   -1    0    0  501  502 -0.00000000000E+00 -0.00000000000E+00 -0.62797089630E+03  0.62797089630E+03  0.00000000000E+00 0.  1.
      99926    2    1    2    0    0  0.14210854715E-13  0.00000000000E+00 -0.54521935645E+03  0.71072243614E+03  0.45591910969E+03 0.  0.
      99925    2    3    3    0    0 -0.79230381344E+02  0.41378875059E+02 -0.45301345163E+03  0.53144861872E+03  0.26310982944E+03 0.  0.
         25    1    3    3    0    0  0.79230381344E+02 -0.41378875059E+02 -0.92205904825E+02  0.17927381742E+03  0.12509000000E+03 0.  0.
         25    1    4    4    0    0 -0.78692027763E+02  0.37887903983E+02 -0.23944355234E+03  0.28391662748E+03  0.12509000000E+03 0.  0.
         25    1    4    4    0    0 -0.53835358060E+00  0.34909710759E+01 -0.21356989928E+03  0.24753199123E+03  0.12509000000E+03 0.  0.
<mgrwt>
<rscale>  2 0.45591911E+03</rscale>
<asrwt>0</asrwt>
<pdfrwt beam="1">  1       21 0.12169344E-01 0.45591911E+03</pdfrwt>
<pdfrwt beam="2">  1       21 0.92348661E-01 0.45591911E+03</pdfrwt>
<totfact> 0.51948012E+04</totfact>
</mgrwt>
</event>
<event>
 7    0  0.4750554E-002  0.4593955E+03  0.7546771E-02  0.1024957E+00
         21   -1    0    0  502  501  0.00000000000E+00  0.00000000000E+00  0.11074841925E+03  0.11074841925E+03  0.00000000000E+00 0.  1.
         21   -1    0    0  501  502 -0.00000000000E+00 -0.00000000000E+00 -0.47640464614E+03  0.47640464614E+03  0.00000000000E+00 0.  1.
      99926    2    1    2    0    0  0.00000000000E+00  0.00000000000E+00 -0.36565622689E+03  0.58715306539E+03  0.45939552233E+03 0.  0.
      99925    2    3    3    0    0  0.66426344400E+02  0.86448530597E+02 -0.28455530410E+03  0.40246230912E+03  0.26290374950E+03 0.  0.
         25    1    4    4    0    0  0.25361935932E+02  0.49037623893E+02 -0.86779123268E+02  0.16194456053E+03  0.12509000000E+03 0.  0.
         25    1    4    4    0    0  0.41064408468E+02  0.37410906704E+02 -0.19777618083E+03  0.24051774859E+03  0.12509000000E+03 0.  0.
         25    1    3    3    0    0 -0.66426344400E+02 -0.86448530597E+02 -0.81100922789E+02  0.18469075627E+03  0.12509000000E+03 0.  0.
<mgrwt>
<rscale>  2 0.45939552E+03</rscale>
<asrwt>0</asrwt>
<pdfrwt beam="1">  1       21 0.16286532E-01 0.45939552E+03</pdfrwt>
<pdfrwt beam="2">  1       21 0.70059506E-01 0.45939552E+03</pdfrwt>
<totfact> 0.57453765E+04</totfact>
</mgrwt>
</event>
<event>
 7    0  0.4750554E-002  0.4073602E+03  0.7546771E-02  0.1041261E+00
         21   -1    0    0  502  501  0.00000000000E+00  0.00000000000E+00  0.22204575425E+03  0.22204575425E+03  0.00000000000E+00 0.  1.
         21   -1    0    0  501  502 -0.00000000000E+00 -0.00000000000E+00 -0.18683344907E+03  0.18683344907E+03  0.00000000000E+00 0.  1.
      99926    2    1    2    0    0 -0.17763568394E-14  0.00000000000E+00  0.35212305173E+02  0.40887920332E+03  0.40736015572E+03 0.  0.
      99925    2    3    3    0    0  0.15041176098E+02  0.49835842146E+02 -0.35382659070E+01  0.26795737038E+03  0.26282843239E+03 0.  0.
         25    1    3    3    0    0 -0.15041176098E+02 -0.49835842146E+02  0.38750571080E+02  0.14092183294E+03  0.12509000000E+03 0.  0.
         25    1    4    4    0    0  0.15019707353E+02  0.38089043936E+02  0.35622338828E+02  0.13635551328E+03  0.12509000000E+03 0.  0.
         25    1    4    4    0    0  0.21468745032E-01  0.11746798210E+02 -0.39160604735E+02  0.13160185710E+03  0.12509000000E+03 0.  0.
<mgrwt>
<rscale>  2 0.40736016E+03</rscale>
<asrwt>0</asrwt>
<pdfrwt beam="1">  1       21 0.32653787E-01 0.40736016E+03</pdfrwt>
<pdfrwt beam="2">  1       21 0.27475507E-01 0.40736016E+03</pdfrwt>
<totfact> 0.10746356E+05</totfact>
</mgrwt>
</event>
<event>
 7    0  0.4750554E-002  0.4462158E+03  0.7546771E-02  0.1028857E+00
         21   -1    0    0  502  501  0.00000000000E+00  0.00000000000E+00  0.51096662155E+02  0.51096662155E+02  0.00000000000E+00 0.  1.
         21   -1    0    0  501  502 -0.00000000000E+00 -0.00000000000E+00 -0.97417579346E+03  0.97417579346E+03  0.00000000000E+00 0.  1.
      99926    2    1    2    0    0  0.00000000000E+00  0.00000000000E+00 -0.92307913130E+03  0.10252724556E+04  0.44621578367E+03 0.  0.
      99925    2    3    3    0    0 -0.69394962343E+02  0.67536497034E+02 -0.67763457165E+03  0.73326666938E+03  0.26289647487E+03 0.  0.
         25    1    4    4    0    0 -0.99901051633E+01  0.65736337545E+02 -0.34556227919E+03  0.37347271008E+03  0.12509000000E+03 0.  0.
         25    1    4    4    0    0 -0.59404857179E+02  0.18001594895E+01 -0.33207229245E+03  0.35979395929E+03  0.12509000000E+03 0.  0.
         25    1    3    3    0    0  0.69394962343E+02 -0.67536497034E+02 -0.24544455966E+03  0.29200578624E+03  0.12509000000E+03 0.  0.
<mgrwt>
<rscale>  2 0.44621578E+03</rscale>
<asrwt>0</asrwt>
<pdfrwt beam="1">  1       21 0.75142152E-02 0.44621578E+03</pdfrwt>
<pdfrwt beam="2">  1       21 0.14326114E+00 0.44621578E+03</pdfrwt>
<totfact> 0.40934064E+04</totfact>
</mgrwt>
</event>
<event>
 7    0  0.4750554E-002  0.4554401E+03  0.7546771E-02  0.1026112E+00
         21   -1    0    0  502  501  0.00000000000E+00  0.00000000000E+00  0.22524758107E+03  0.22524758107E+03  0.00000000000E+00 0. -1.
         21   -1    0    0  501  502 -0.00000000000E+00 -0.00000000000E+00 -0.23021969131E+03  0.23021969131E+03  0.00000000000E+00 0. -1.
      99926    2    1    2    0    0  0.00000000000E+00  0.00000000000E+00 -0.49721102451E+01  0.45546727238E+03  0.45544013254E+03 0.  0.
      99925    2    3    3    0    0  0.53077150883E+02 -0.99964770162E+02 -0.13338330704E+02  0.28656599659E+03  0.26292968664E+03 0.  0.
         25    1    4    4    0    0 -0.40638068458E+01 -0.74861781705E+02 -0.16258649300E+02  0.14674008540E+03  0.12509000000E+03 0.  0.
         25    1    4    4    0    0  0.57140957729E+02 -0.25102988457E+02  0.29203185961E+01  0.13982591119E+03  0.12509000000E+03 0.  0.
         25    1    3    3    0    0 -0.53077150883E+02  0.99964770162E+02  0.83662204585E+01  0.16890127579E+03  0.12509000000E+03 0.  0.
<mgrwt>
<rscale>  2 0.45544013E+03</rscale>
<asrwt>0</asrwt>
<pdfrwt beam="1">  1       21 0.33124644E-01 0.45544013E+03</pdfrwt>
<pdfrwt beam="2">  1       21 0.33855837E-01 0.45544013E+03</pdfrwt>
<totfact> 0.68271502E+04</totfact>
</mgrwt>
</event>
<event>
 7    0  0.4750554E-002  0.4558161E+03  0.7546771E-02  0.1026002E+00
         21   -1    0    0  502  501  0.00000000000E+00  0.00000000000E+00  0.15582698213E+04  0.15582698213E+04  0.00000000000E+00 0. -1.
         21   -1    0    0  501  502 -0.00000000000E+00 -0.00000000000E+00 -0.33333175652E+02  0.33333175652E+02  0.00000000000E+00 0. -1.
      99926    2    1    2    0    0  0.00000000000E+00  0.00000000000E+00  0.15249366457E+04  0.15916029970E+04  0.45581611059E+03 0.  0.
      99925    2    3    3    0    0 -0.85979032729E+02  0.28756777950E+02  0.71804489481E+03  0.77005497521E+03  0.26301491887E+03 0.  0.
         25    1    4    4    0    0 -0.30575245956E+01  0.23022027171E+02  0.35830474607E+03  0.38022251557E+03  0.12509000000E+03 0.  0.
         25    1    3    3    0    0  0.85979032729E+02 -0.28756777950E+02  0.80689175086E+03  0.82154802176E+03  0.12509000000E+03 0.  0.
         25    1    4    4    0    0 -0.82921508133E+02  0.57347507793E+01  0.35974014874E+03  0.38983245964E+03  0.12509000000E+03 0.  0.
<mgrwt>
<rscale>  2 0.45581611E+03</rscale>
<asrwt>0</asrwt>
<pdfrwt beam="1">  1       21 0.22915728E+00 0.45581611E+03</pdfrwt>
<pdfrwt beam="2">  1       21 0.49019386E-02 0.45581611E+03</pdfrwt>
<totfact> 0.21483728E+04</totfact>
</mgrwt>
</event>
<event>
 7    0  0.4750554E-002  0.4526992E+03  0.7546771E-02  0.1026920E+00
         21   -1    0    0  502  501  0.00000000000E+00  0.00000000000E+00  0.15344720849E+03  0.15344720849E+03  0.00000000000E+00 0. -1.
         21   -1    0    0  501  502 -0.00000000000E+00 -0.00000000000E+00 -0.33388767075E+03  0.33388767075E+03  0.00000000000E+00 0. -1.
      99926    2    1    2    0    0  0.00000000000E+00  0.00000000000E+00 -0.18044046226E+03  0.48733487924E+03  0.45269915408E+03 0.  0.
      99925    2    3    3    0    0 -0.24061886252E+02  0.60047243200E+02 -0.16689207304E+02  0.27135657620E+03  0.26300421293E+03 0.  0.
         25    1    3    3    0    0  0.24061886252E+02 -0.60047243200E+02 -0.16375125495E+03  0.21597830304E+03  0.12509000000E+03 0.  0.
         25    1    4    4    0    0 -0.25567499527E+02  0.15272023081E+02 -0.43621494758E+02  0.13578392624E+03  0.12509000000E+03 0.  0.
         25    1    4    4    0    0  0.15056132755E+01  0.44775220118E+02  0.26932287454E+02  0.13557264995E+03  0.12509000000E+03 0.  0.
<mgrwt>
<rscale>  2 0.45269915E+03</rscale>
<asrwt>0</asrwt>
<pdfrwt beam="1">  1       21 0.22565766E-01 0.45269915E+03</pdfrwt>
<pdfrwt beam="2">  1       21 0.49101127E-01 0.45269915E+03</pdfrwt>
<totfact> 0.67392506E+04</totfact>
</mgrwt>
</event>
<event>
 7    0  0.4750554E-002  0.4562649E+03  0.7546771E-02  0.1025870E+00
         21   -1    0    0  502  501  0.00000000000E+00  0.00000000000E+00  0.13924874097E+03  0.13924874097E+03  0.00000000000E+00 0. -1.
         21   -1    0    0  501  502 -0.00000000000E+00 -0.00000000000E+00 -0.37375134848E+03  0.37375134848E+03  0.00000000000E+00 0. -1.
      99926    2    1    2    0    0  0.00000000000E+00  0.88817841970E-15 -0.23450260751E+03  0.51300008945E+03  0.45626485603E+03 0.  0.
      99925    2    3    3    0    0  0.11570036731E+03  0.63922375881E+01 -0.14761936997E+03  0.32162704861E+03  0.26119924255E+03 0.  0.
         25    1    3    3    0    0 -0.11570036731E+03 -0.63922375881E+01 -0.86883237536E+02  0.19137304084E+03  0.12509000000E+03 0.  0.
         25    1    4    4    0    0  0.53841048886E+02  0.11292072116E+02 -0.11410068637E+03  0.17802484144E+03  0.12509000000E+03 0.  0.
         25    1    4    4    0    0  0.61859318425E+02 -0.48998345276E+01 -0.33518683597E+02  0.14360220717E+03  0.12509000000E+03 0.  0.
<mgrwt>
<rscale>  2 0.45626486E+03</rscale>
<asrwt>0</asrwt>
<pdfrwt beam="1">  1       21 0.20477756E-01 0.45626486E+03</pdfrwt>
<pdfrwt beam="2">  1       21 0.54963433E-01 0.45626486E+03</pdfrwt>
<totfact> 0.63724631E+04</totfact>
</mgrwt>
</event>
<event>
 7    0  0.4750554E-002  0.4147665E+03  0.7546771E-02  0.1038783E+00
         21   -1    0    0  502  501  0.00000000000E+00  0.00000000000E+00  0.34004483548E+04  0.34004483548E+04  0.00000000000E+00 0.  1.
         21   -1    0    0  501  502 -0.00000000000E+00 -0.00000000000E+00 -0.12647688065E+02  0.12647688065E+02  0.00000000000E+00 0.  1.
      99926    2    1    2    0    0 -0.26645352591E-14 -0.35527136788E-14  0.33878006667E+04  0.34130960429E+04  0.41476648886E+03 0.  0.
      99925    2    3    3    0    0  0.51286659252E+01  0.20552570894E+02  0.16743118762E+04  0.16949167581E+04  0.26262872376E+03 0.  0.
         25    1    3    3    0    0 -0.51286659252E+01 -0.20552570894E+02  0.17134887905E+04  0.17181792848E+04  0.12509000000E+03 0.  0.
         25    1    4    4    0    0 -0.27986099821E+02  0.33210433811E+02  0.92033380148E+03  0.92981071673E+03  0.12509000000E+03 0.  0.
         25    1    4    4    0    0  0.33114765746E+02 -0.12657862917E+02  0.75397807474E+03  0.76510604134E+03  0.12509000000E+03 0.  0.
<mgrwt>
<rscale>  2 0.41476649E+03</rscale>
<asrwt>0</asrwt>
<pdfrwt beam="1">  1       21 0.50006530E+00 0.41476649E+03</pdfrwt>
<pdfrwt beam="2">  1       21 0.18599565E-02 0.41476649E+03</pdfrwt>
<totfact> 0.21149515E+03</totfact>
</mgrwt>
</event>
<event>
 7    0  0.4750554E-002  0.4538435E+03  0.7546771E-02  0.1026582E+00
         21   -1    0    0  502  501  0.00000000000E+00  0.00000000000E+00  0.82798892660E+02  0.82798892660E+02  0.00000000000E+00 0. -1.
         21   -1    0    0  501  502 -0.00000000000E+00 -0.00000000000E+00 -0.62191019149E+03  0.62191019149E+03  0.00000000000E+00 0. -1.
      99926    2    1    2    0    0  0.00000000000E+00  0.00000000000E+00 -0.53911129883E+03  0.70470908415E+03  0.45384347606E+03 0.  0.
      99925    2    3    3    0    0  0.45199167591E+02 -0.10162154300E+03 -0.32156023863E+03  0.43021705395E+03  0.26327898451E+03 0.  0.
         25    1    3    3    0    0 -0.45199167591E+02  0.10162154300E+03 -0.21755106020E+03  0.27449203021E+03  0.12509000000E+03 0.  0.
         25    1    4    4    0    0 -0.13467778053E+02 -0.60590335458E+02 -0.13264497705E+03  0.19260002033E+03  0.12509000000E+03 0.  0.
         25    1    4    4    0    0  0.58666945644E+02 -0.41031207542E+02 -0.18891526159E+03  0.23761703361E+03  0.12509000000E+03 0.  0.
<mgrwt>
<rscale>  2 0.45384348E+03</rscale>
<asrwt>0</asrwt>
<pdfrwt beam="1">  1       21 0.12176308E-01 0.45384348E+03</pdfrwt>
<pdfrwt beam="2">  1       21 0.91457382E-01 0.45384348E+03</pdfrwt>
<totfact> 0.53129882E+04</totfact>
</mgrwt>
</event>
<event>
 7    0  0.4750554E-002  0.4552505E+03  0.7546771E-02  0.1026168E+00
         21   -1    0    0  502  501  0.00000000000E+00  0.00000000000E+00  0.21672661638E+03  0.21672661638E+03  0.00000000000E+00 0. -1.
         21   -1    0    0  501  502 -0.00000000000E+00 -0.00000000000E+00 -0.23907199085E+03  0.23907199085E+03  0.00000000000E+00 0. -1.
      99926    2    1    2    0    0  0.00000000000E+00  0.35527136788E-14 -0.22345374479E+02  0.45579860723E+03  0.45525054046E+03 0.  0.
      99925    2    3    3    0    0  0.91734192793E+02 -0.22844236328E+02 -0.75366409614E+02  0.29028196297E+03  0.26390623537E+03 0.  0.
         25    1    4    4    0    0  0.74456220681E+02  0.17045609216E+02 -0.25457295295E+02  0.14876109564E+03  0.12509000000E+03 0.  0.
         25    1    3    3    0    0 -0.91734192793E+02  0.22844236328E+02  0.53021035135E+02  0.16551664426E+03  0.12509000000E+03 0.  0.
         25    1    4    4    0    0  0.17277972112E+02 -0.39889845543E+02 -0.49909114319E+02  0.14152086733E+03  0.12509000000E+03 0.  0.
<mgrwt>
<rscale>  2 0.45525054E+03</rscale>
<asrwt>0</asrwt>
<pdfrwt beam="1">  1       21 0.31871561E-01 0.45525054E+03</pdfrwt>
<pdfrwt beam="2">  1       21 0.35157646E-01 0.45525054E+03</pdfrwt>
<totfact> 0.68350616E+04</totfact>
</mgrwt>
</event>
<event>
 7    0  0.4750554E-002  0.4554731E+03  0.7546771E-02  0.1026102E+00
         21   -1    0    0  502  501  0.00000000000E+00  0.00000000000E+00  0.95978111136E+02  0.95978111136E+02  0.00000000000E+00 0. -1.
         21   -1    0    0  501  502 -0.00000000000E+00 -0.00000000000E+00 -0.54037260291E+03  0.54037260291E+03  0.00000000000E+00 0. -1.
      99926    2    1    2    0    0  0.00000000000E+00  0.00000000000E+00 -0.44439449177E+03  0.63635071405E+03  0.45547312429E+03 0.  0.
      99925    2    3    3    0    0  0.50843167644E+02  0.85087174499E+02 -0.35708033304E+03  0.45442730880E+03  0.26300752799E+03 0.  0.
         25    1    4    4    0    0  0.63394297463E+02  0.61291416622E+02 -0.19951054451E+03  0.25145067145E+03  0.12509000000E+03 0.  0.
         25    1    3    3    0    0 -0.50843167644E+02 -0.85087174499E+02 -0.87314158735E+02  0.18192340525E+03  0.12509000000E+03 0.  0.
         25    1    4    4    0    0 -0.12551129819E+02  0.23795757877E+02 -0.15756978852E+03  0.20297663735E+03  0.12509000000E+03 0.  0.
<mgrwt>
<rscale>  2 0.45547312E+03</rscale>
<asrwt>0</asrwt>
<pdfrwt beam="1">  1       21 0.14114428E-01 0.45547312E+03</pdfrwt>
<pdfrwt beam="2">  1       21 0.79466560E-01 0.45547312E+03</pdfrwt>
<totfact> 0.56284287E+04</totfact>
</mgrwt>
</event>
<event>
 7    0  0.4750554E-002  0.4582981E+03  0.7546771E-02  0.1025276E+00
         21   -1    0    0  502  501  0.00000000000E+00  0.00000000000E+00  0.86959180472E+02  0.86959180472E+02  0.00000000000E+00 0. -1.
         21   -1    0    0  501  502 -0.00000000000E+00 -0.00000000000E+00 -0.60383824612E+03  0.60383824612E+03  0.00000000000E+00 0. -1.
      99926    2    1    2    0    0 -0.35527136788E-14  0.11102230246E-14 -0.51687906565E+03  0.69079742659E+03  0.45829806467E+03 0.  0.
      99925    2    3    3    0    0  0.24116461425E+02 -0.40202530033E+00 -0.15239258576E+03  0.30468906427E+03  0.26273591371E+03 0.  0.
         25    1    3    3    0    0 -0.24116461425E+02  0.40202530033E+00 -0.36448647989E+03  0.38610836232E+03  0.12509000000E+03 0.  0.
         25    1    4    4    0    0  0.30657934775E+02  0.33965059618E+02 -0.88666269993E+02  0.16000859281E+03  0.12509000000E+03 0.  0.
         25    1    4    4    0    0 -0.65414733498E+01 -0.34367084918E+02 -0.63726315768E+02  0.14468047146E+03  0.12509000000E+03 0.  0.
<mgrwt>
<rscale>  2 0.45829806E+03</rscale>
<asrwt>0</asrwt>
<pdfrwt beam="1">  1       21 0.12788115E-01 0.45829806E+03</pdfrwt>
<pdfrwt beam="2">  1       21 0.88799742E-01 0.45829806E+03</pdfrwt>
<totfact> 0.52041228E+04</totfact>
</mgrwt>
</event>
<event>
 7    0  0.4750554E-002  0.4391389E+03  0.7546771E-02  0.1031011E+00
         21   -1    0    0  502  501  0.00000000000E+00  0.00000000000E+00  0.12987742598E+03  0.12987742598E+03  0.00000000000E+00 0.  1.
         21   -1    0    0  501  502 -0.00000000000E+00 -0.00000000000E+00 -0.37120178807E+03  0.37120178807E+03  0.00000000000E+00 0.  1.
      99926    2    1    2    0    0  0.00000000000E+00  0.00000000000E+00 -0.24132436209E+03  0.50107921406E+03  0.43913885164E+03 0.  0.
      99925    2    3    3    0    0  0.45661352639E+02  0.14084424305E+02 -0.25117301891E+03  0.36681144326E+03  0.26301980790E+03 0.  0.
         25    1    4    4    0    0  0.18232453201E+02 -0.16381483338E+02 -0.16881624554E+03  0.21153535923E+03  0.12509000000E+03 0.  0.
         25    1    4    4    0    0  0.27428899438E+02  0.30465907643E+02 -0.82356773370E+02  0.15527608403E+03  0.12509000000E+03 0.  0.
         25    1    3    3    0    0 -0.45661352639E+02 -0.14084424305E+02  0.98486568207E+01  0.13426777079E+03  0.12509000000E+03 0.  0.
<mgrwt>
<rscale>  2 0.43913885E+03</rscale>
<asrwt>0</asrwt>
<pdfrwt beam="1">  1       21 0.19099622E-01 0.43913885E+03</pdfrwt>
<pdfrwt beam="2">  1       21 0.54588498E-01 0.43913885E+03</pdfrwt>
<totfact> 0.74091131E+04</totfact>
</mgrwt>
</event>
<event>
 7    0  0.4750554E-002  0.4593699E+03  0.7546771E-02  0.1024964E+00
         21   -1    0    0  502  501  0.00000000000E+00  0.00000000000E+00  0.59579468123E+02  0.59579468123E+02  0.00000000000E+00 0.  1.
         21   -1    0    0  501  502 -0.00000000000E+00 -0.00000000000E+00 -0.88545884036E+03  0.88545884036E+03  0.00000000000E+00 0.  1.
      99926    2    1    2    0    0 -0.14210854715E-13 -0.44408920985E-15 -0.82587937223E+03  0.94503830848E+03  0.45936985863E+03 0.  0.
      99925    2    3    3    0    0  0.78289853814E+02  0.23423369471E+01 -0.69709161990E+03  0.74915931266E+03  0.26299840581E+03 0.  0.
         25    1    4    4    0    0  0.58482955403E+02 -0.10427505908E+02 -0.45550718027E+03  0.47609168059E+03  0.12509000000E+03 0.  0.
         25    1    3    3    0    0 -0.78289853814E+02 -0.23423369471E+01 -0.12878775233E+03  0.19587899582E+03  0.12509000000E+03 0.  0.
         25    1    4    4    0    0  0.19806898411E+02  0.12769842855E+02 -0.24158443963E+03  0.27306763207E+03  0.12509000000E+03 0.  0.
<mgrwt>
<rscale>  2 0.45936986E+03</rscale>
<asrwt>0</asrwt>
<pdfrwt beam="1">  1       21 0.87616870E-02 0.45936986E+03</pdfrwt>
<pdfrwt beam="2">  1       21 0.13021453E+00 0.45936986E+03</pdfrwt>
<totfact> 0.39959242E+04</totfact>
</mgrwt>
</event>
<event>
 7    0  0.4750554E-002  0.4526216E+03  0.7546771E-02  0.1026943E+00
         21   -1    0    0  502  501  0.00000000000E+00  0.00000000000E+00  0.17503468136E+03  0.17503468136E+03  0.00000000000E+00 0. -1.
         21   -1    0    0  501  502 -0.00000000000E+00 -0.00000000000E+00 -0.29260817165E+03  0.29260817165E+03  0.00000000000E+00 0. -1.
      99926    2    1    2    0    0  0.00000000000E+00  0.00000000000E+00 -0.11757349029E+03  0.46764285301E+03  0.45262159952E+03 0.  0.
      99925    2    3    3    0    0  0.25281572805E+02  0.91727561248E+02 -0.15265516900E+02  0.28011276760E+03  0.26301525269E+03 0.  0.
         25    1    3    3    0    0 -0.25281572805E+02 -0.91727561248E+02 -0.10230797339E+03  0.18753008541E+03  0.12509000000E+03 0.  0.
         25    1    4    4    0    0 -0.24543475696E+02  0.28042034503E+02 -0.12725217412E+02  0.13114182078E+03  0.12509000000E+03 0.  0.
         25    1    4    4    0    0  0.49825048501E+02  0.63685526745E+02 -0.25402994887E+01  0.14897094682E+03  0.12509000000E+03 0.  0.
<mgrwt>
<rscale>  2 0.45262160E+03</rscale>
<asrwt>0</asrwt>
<pdfrwt beam="1">  1       21 0.25740395E-01 0.45262160E+03</pdfrwt>
<pdfrwt beam="2">  1       21 0.43030613E-01 0.45262160E+03</pdfrwt>
<totfact> 0.68902306E+04</totfact>
</mgrwt>
</event>
<event>
 7    0  0.4750554E-002  0.4591523E+03  0.7546771E-02  0.1025027E+00
         21   -1    0    0  502  501  0.00000000000E+00  0.00000000000E+00  0.50671382085E+03  0.50671382085E+03  0.00000000000E+00 0. -1.
         21   -1    0    0  501  502 -0.00000000000E+00 -0.00000000000E+00 -0.10401377704E+03  0.10401377704E+03  0.00000000000E+00 0. -1.
      99926    2    1    2    0    0  0.00000000000E+00  0.71054273576E-14  0.40270004381E+03  0.61072759789E+03  0.45915234241E+03 0.  0.
      99925    2    3    3    0    0 -0.48185657368E+02 -0.53145459694E+02  0.37569877029E+03  0.46402083481E+03  0.26271557183E+03 0.  0.
         25    1    4    4    0    0  0.97376742373E+01 -0.48106661226E+02  0.18798845024E+03  0.23107626161E+03  0.12509000000E+03 0.  0.
         25    1    3    3    0    0  0.48185657368E+02  0.53145459694E+02  0.27001273529E+02  0.14670676308E+03  0.12509000000E+03 0.  0.
         25    1    4    4    0    0 -0.57923331605E+02 -0.50387984679E+01  0.18771032004E+03  0.23294457320E+03  0.12509000000E+03 0.  0.
<mgrwt>
<rscale>  2 0.45915234E+03</rscale>
<asrwt>0</asrwt>
<pdfrwt beam="1">  1       21 0.74516737E-01 0.45915234E+03</pdfrwt>
<pdfrwt beam="2">  1       21 0.15296144E-01 0.45915234E+03</pdfrwt>
<totfact> 0.56158045E+04</totfact>
</mgrwt>
</event>
<event>
 7    0  0.4750554E-002  0.4623807E+03  0.7546771E-02  0.1024093E+00
         21   -1    0    0  502  501  0.00000000000E+00  0.00000000000E+00  0.31438499222E+03  0.31438499222E+03  0.00000000000E+00 0.  1.
         21   -1    0    0  501  502 -0.00000000000E+00 -0.00000000000E+00 -0.17001123127E+03  0.17001123127E+03  0.00000000000E+00 0.  1.
      99926    2    1    2    0    0  0.00000000000E+00  0.71054273576E-14  0.14437376094E+03  0.48439622349E+03  0.46238070730E+03 0.  0.
      99925    2    3    3    0    0  0.66782893670E+02 -0.55231813760E+02  0.17750716722E+03  0.32865336217E+03  0.26266657556E+03 0.  0.
         25    1    4    4    0    0  0.14396416549E+02  0.71028631232E+01  0.65987052585E+02  0.14233589387E+03  0.12509000000E+03 0.  0.
         25    1    3    3    0    0 -0.66782893670E+02  0.55231813760E+02 -0.33133406282E+02  0.15574286131E+03  0.12509000000E+03 0.  0.
         25    1    4    4    0    0  0.52386477121E+02 -0.62334676883E+02  0.11152011464E+03  0.18631746831E+03  0.12509000000E+03 0.  0.
<mgrwt>
<rscale>  2 0.46238071E+03</rscale>
<asrwt>0</asrwt>
<pdfrwt beam="1">  1       21 0.46233087E-01 0.46238071E+03</pdfrwt>
<pdfrwt beam="2">  1       21 0.25001652E-01 0.46238071E+03</pdfrwt>
<totfact> 0.62631073E+04</totfact>
</mgrwt>
</event>
<event>
 7    0  0.4750554E-002  0.4496184E+03  0.7546771E-02  0.1027836E+00
         21   -1    0    0  502  501  0.00000000000E+00  0.00000000000E+00  0.10349066104E+03  0.10349066104E+03  0.00000000000E+00 0. -1.
         21   -1    0    0  501  502 -0.00000000000E+00 -0.00000000000E+00 -0.48834524574E+03  0.48834524574E+03  0.00000000000E+00 0. -1.
      99926    2    1    2    0    0  0.00000000000E+00  0.00000000000E+00 -0.38485458470E+03  0.59183590678E+03  0.44961838174E+03 0.  0.
      99925    2    3    3    0    0 -0.46579917363E+02  0.30484059493E+02 -0.12129721267E+03  0.29483596901E+03  0.26289973039E+03 0.  0.
         25    1    3    3    0    0  0.46579917363E+02 -0.30484059493E+02 -0.26355737203E+03  0.29699993777E+03  0.12509000000E+03 0.  0.
         25    1    4    4    0    0 -0.88267061837E+01  0.46778913775E+02 -0.83854844625E+02  0.15794087686E+03  0.12509000000E+03 0.  0.
         25    1    4    4    0    0 -0.37753211179E+02 -0.16294854282E+02 -0.37442368040E+02  0.13689509215E+03  0.12509000000E+03 0.  0.
<mgrwt>
<rscale>  2 0.44961838E+03</rscale>
<asrwt>0</asrwt>
<pdfrwt beam="1">  1       21 0.15219215E-01 0.44961838E+03</pdfrwt>
<pdfrwt beam="2">  1       21 0.71815478E-01 0.44961838E+03</pdfrwt>
<totfact> 0.61769074E+04</totfact>
</mgrwt>
</event>
<event>
 7    0  0.4750554E-002  0.4464950E+03  0.7546771E-02  0.1028772E+00
         21   -1    0    0  502  501  0.00000000000E+00  0.00000000000E+00  0.85784870288E+02  0.85784870288E+02  0.00000000000E+00 0.  1.
         21   -1    0    0  501  502 -0.00000000000E+00 -0.00000000000E+00 -0.58098165678E+03  0.58098165678E+03  0.00000000000E+00 0.  1.
      99926    2    1    2    0    0  0.14210854715E-13 -0.71054273576E-14 -0.49519678649E+03  0.66676652707E+03  0.44649495436E+03 0.  0.
      99925    2    3    3    0    0  0.65466173903E+02 -0.37973754618E+02 -0.20555643442E+03  0.34231796779E+03  0.26305953200E+03 0.  0.
         25    1    4    4    0    0  0.37549307287E+01  0.50460930480E+01 -0.71989945607E+02  0.14446322345E+03  0.12509000000E+03 0.  0.
         25    1    4    4    0    0  0.61711243175E+02 -0.43019847666E+02 -0.13356648881E+03  0.19785474435E+03  0.12509000000E+03 0.  0.
         25    1    3    3    0    0 -0.65466173903E+02  0.37973754618E+02 -0.28964035207E+03  0.32444855927E+03  0.12509000000E+03 0.  0.
<mgrwt>
<rscale>  2 0.44649495E+03</rscale>
<asrwt>0</asrwt>
<pdfrwt beam="1">  1       21 0.12615423E-01 0.44649495E+03</pdfrwt>
<pdfrwt beam="2">  1       21 0.85438475E-01 0.44649495E+03</pdfrwt>
<totfact> 0.58572524E+04</totfact>
</mgrwt>
</event>
<event>
 7    0  0.4750554E-002  0.4706597E+03  0.7546771E-02  0.1021734E+00
         21   -1    0    0  502  501  0.00000000000E+00  0.00000000000E+00  0.11133177767E+04  0.11133177767E+04  0.00000000000E+00 0.  1.
         21   -1    0    0  501  502 -0.00000000000E+00 -0.00000000000E+00 -0.49743325150E+02  0.49743325150E+02  0.00000000000E+00 0.  1.
      99926    2    1    2    0    0  0.00000000000E+00  0.35527136788E-14  0.10635744515E+04  0.11630611018E+04  0.47065965691E+03 0.  0.
      99925    2    3    3    0    0  0.88732308903E+02 -0.29746402983E+02  0.87348105940E+03  0.91700973125E+03  0.26301979953E+03 0.  0.
         25    1    3    3    0    0 -0.88732308903E+02  0.29746402983E+02  0.19009339215E+03  0.24605137059E+03  0.12509000000E+03 0.  0.
         25    1    4    4    0    0  0.39590597470E+02 -0.71883728058E+01  0.29923860858E+03  0.32681851398E+03  0.12509000000E+03 0.  0.
         25    1    4    4    0    0  0.49141711434E+02 -0.22558030177E+02  0.57424245082E+03  0.59019121728E+03  0.12509000000E+03 0.  0.
<mgrwt>
<rscale>  2 0.47065966E+03</rscale>
<asrwt>0</asrwt>
<pdfrwt beam="1">  1       21 0.16372319E+00 0.47065966E+03</pdfrwt>
<pdfrwt beam="2">  1       21 0.73151956E-02 0.47065966E+03</pdfrwt>
<totfact> 0.29572292E+04</totfact>
</mgrwt>
</event>
<event>
 7    0  0.4750554E-002  0.4528403E+03  0.7546771E-02  0.1026878E+00
         21   -1    0    0  502  501  0.00000000000E+00  0.00000000000E+00  0.13564900274E+03  0.13564900274E+03  0.00000000000E+00 0. -1.
         21   -1    0    0  501  502 -0.00000000000E+00 -0.00000000000E+00 -0.37793181063E+03  0.37793181063E+03  0.00000000000E+00 0. -1.
      99926    2    1    2    0    0 -0.14210854715E-13 -0.17763568394E-14 -0.24228280789E+03  0.51358081337E+03  0.45284025093E+03 0.  0.
      99925    2    3    3    0    0  0.79006808721E+02  0.86129618945E+01 -0.64633032682E+02  0.28222997661E+03  0.26298302578E+03 0.  0.
         25    1    4    4    0    0  0.76427921168E+02  0.19474592801E+02 -0.21449657443E+02  0.14942584383E+03  0.12509000000E+03 0.  0.
         25    1    3    3    0    0 -0.79006808721E+02 -0.86129618945E+01 -0.17764977521E+03  0.23135083676E+03  0.12509000000E+03 0.  0.
         25    1    4    4    0    0  0.25788875526E+01 -0.10861630906E+02 -0.43183375239E+02  0.13280413278E+03  0.12509000000E+03 0.  0.
<mgrwt>
<rscale>  2 0.45284025E+03</rscale>
<asrwt>0</asrwt>
<pdfrwt beam="1">  1       21 0.19948383E-01 0.45284025E+03</pdfrwt>
<pdfrwt beam="2">  1       21 0.55578207E-01 0.45284025E+03</pdfrwt>
<totfact> 0.65441069E+04</totfact>
</mgrwt>
</event>
<event>
 7    0  0.4750554E-002  0.4086410E+03  0.7546771E-02  0.1040828E+00
         21   -1    0    0  502  501  0.00000000000E+00  0.00000000000E+00  0.17802026434E+04  0.17802026434E+04  0.00000000000E+00 0.  1.
         21   -1    0    0  501  502 -0.00000000000E+00 -0.00000000000E+00 -0.23450629729E+02  0.23450629729E+02  0.00000000000E+00 0.  1.
      99926    2    1    2    0    0  0.71054273576E-14 -0.35527136788E-14  0.17567520136E+04  0.18036532731E+04  0.40864103089E+03 0.  0.
      99925    2    3    3    0    0 -0.53513268640E+02  0.24856857334E+02  0.11070008678E+04  0.11393449164E+04  0.26301023504E+03 0.  0.
         25    1    4    4    0    0 -0.33781432656E+02 -0.27546634318E+02  0.55252795709E+03  0.56818540435E+03  0.12509000000E+03 0.  0.
         25    1    4    4    0    0 -0.19731835984E+02  0.52403491653E+02  0.55447291076E+03  0.57115951201E+03  0.12509000000E+03 0.  0.
         25    1    3    3    0    0  0.53513268640E+02 -0.24856857334E+02  0.64975114579E+03  0.66430835674E+03  0.12509000000E+03 0.  0.
<mgrwt>
<rscale>  2 0.40864103E+03</rscale>
<asrwt>0</asrwt>
<pdfrwt beam="1">  1       21 0.26179442E+00 0.40864103E+03</pdfrwt>
<pdfrwt beam="2">  1       21 0.34486232E-02 0.40864103E+03</pdfrwt>
<totfact> 0.25068238E+04</totfact>
</mgrwt>
</event>
<event>
 7    0  0.4750554E-002  0.4856996E+03  0.7546771E-02  0.1017580E+00
         21   -1    0    0  502  501  0.00000000000E+00  0.00000000000E+00  0.90225534707E+02  0.90225534707E+02  0.00000000000E+00 0.  1.
         21   -1    0    0  501  502 -0.00000000000E+00 -0.00000000000E+00 -0.65365117157E+03  0.65365117157E+03  0.00000000000E+00 0.  1.
      99926    2    1    2    0    0  0.00000000000E+00  0.00000000000E+00 -0.56342563687E+03  0.74387670628E+03  0.48569960456E+03 0.  0.
      99925    2    3    3    0    0  0.30937037984E+02  0.96878031014E+02 -0.49303306367E+03  0.56796458142E+03  0.26298233907E+03 0.  0.
         25    1    4    4    0    0 -0.34182247570E+01  0.68920896150E+02 -0.19507605167E+03  0.24179319308E+03  0.12509000000E+03 0.  0.
         25    1    4    4    0    0  0.34355262741E+02  0.27957134864E+02 -0.29795701200E+03  0.32617138834E+03  0.12509000000E+03 0.  0.
         25    1    3    3    0    0 -0.30937037984E+02 -0.96878031014E+02 -0.70392573198E+02  0.17591212486E+03  0.12509000000E+03 0.  0.
<mgrwt>
<rscale>  2 0.48569960E+03</rscale>
<asrwt>0</asrwt>
<pdfrwt beam="1">  1       21 0.13268461E-01 0.48569960E+03</pdfrwt>
<pdfrwt beam="2">  1       21 0.96125171E-01 0.48569960E+03</pdfrwt>
<totfact> 0.40014894E+04</totfact>
</mgrwt>
</event>
<event>
 7    0  0.4750554E-002  0.4570503E+03  0.7546771E-02  0.1025640E+00
         21   -1    0    0  502  501  0.00000000000E+00  0.00000000000E+00  0.94092528243E+03  0.94092528243E+03  0.00000000000E+00 0. -1.
         21   -1    0    0  501  502 -0.00000000000E+00 -0.00000000000E+00 -0.55502545708E+02  0.55502545708E+02  0.00000000000E+00 0. -1.
      99926    2    1    2    0    0  0.14210854715E-13  0.00000000000E+00  0.88542273672E+03  0.99642782814E+03  0.45705031887E+03 0.  0.
      99925    2    3    3    0    0  0.11129578630E+03  0.28656022722E+02  0.57045406753E+03  0.63857214444E+03  0.26296125342E+03 0.  0.
         25    1    4    4    0    0  0.19375906378E+02  0.35259792171E+01  0.30162038499E+03  0.32712417064E+03  0.12509000000E+03 0.  0.
         25    1    3    3    0    0 -0.11129578630E+03 -0.28656022722E+02  0.31496866919E+03  0.35785568370E+03  0.12509000000E+03 0.  0.
         25    1    4    4    0    0  0.91919879919E+02  0.25130043504E+02  0.26883368254E+03  0.31144797379E+03  0.12509000000E+03 0.  0.
<mgrwt>
<rscale>  2 0.45705032E+03</rscale>
<asrwt>0</asrwt>
<pdfrwt beam="1">  1       21 0.13837136E+00 0.45705032E+03</pdfrwt>
<pdfrwt beam="2">  1       21 0.81621396E-02 0.45705032E+03</pdfrwt>
<totfact> 0.38682856E+04</totfact>
</mgrwt>
</event>
<event>
 7    0  0.4750554E-002  0.4487155E+03  0.7546771E-02  0.1028106E+00
         21   -1    0    0  502  501  0.00000000000E+00  0.00000000000E+00  0.81375471131E+03  0.81375471131E+03  0.00000000000E+00 0.  1.
         21   -1    0    0  501  502 -0.00000000000E+00 -0.00000000000E+00 -0.61856967388E+02  0.61856967388E+02  0.00000000000E+00 0.  1.
      99926    2    1    2    0    0  0.00000000000E+00 -0.14210854715E-13  0.75189774392E+03  0.87561167870E+03  0.44871549400E+03 0.  0.
      99925    2    3    3    0    0  0.32684175717E+02 -0.83387317461E+02  0.35909757944E+03  0.45375722824E+03  0.26253161822E+03 0.  0.
         25    1    3    3    0    0 -0.32684175717E+02  0.83387317461E+02  0.39280016448E+03  0.42185445046E+03  0.12509000000E+03 0.  0.
         25    1    4    4    0    0  0.28428139119E+02 -0.77760376691E+01  0.19938828151E+03  0.23721682225E+03  0.12509000000E+03 0.  0.
         25    1    4    4    0    0  0.42560365983E+01 -0.75611279792E+02  0.15970929793E+03  0.21654040598E+03  0.12509000000E+03 0.  0.
<mgrwt>
<rscale>  2 0.44871549E+03</rscale>
<asrwt>0</asrwt>
<pdfrwt beam="1">  1       21 0.11966980E+00 0.44871549E+03</pdfrwt>
<pdfrwt beam="2">  1       21 0.90966134E-02 0.44871549E+03</pdfrwt>
<totfact> 0.46554592E+04</totfact>
</mgrwt>
</event>
<event>
 7    0  0.4750554E-002  0.4647546E+03  0.7546771E-02  0.1023411E+00
         21   -1    0    0  502  501  0.00000000000E+00  0.00000000000E+00  0.42512362634E+03  0.42512362634E+03  0.00000000000E+00 0.  1.
         21   -1    0    0  501  502 -0.00000000000E+00 -0.00000000000E+00 -0.12702000136E+03  0.12702000136E+03  0.00000000000E+00 0.  1.
      99926    2    1    2    0    0 -0.35527136788E-14  0.00000000000E+00  0.29810362498E+03  0.55214362769E+03  0.46475457435E+03 0.  0.
      99925    2    3    3    0    0 -0.30664299568E+02  0.29585653646E+02  0.32191263727E+03  0.41786783935E+03  0.26300223374E+03 0.  0.
         25    1    4    4    0    0  0.16199583837E+02  0.38212504032E+02  0.14376837917E+03  0.19503711680E+03  0.12509000000E+03 0.  0.
         25    1    3    3    0    0  0.30664299568E+02 -0.29585653646E+02 -0.23809012294E+02  0.13427578835E+03  0.12509000000E+03 0.  0.
         25    1    4    4    0    0 -0.46863883405E+02 -0.86268503864E+01  0.17814425810E+03  0.22283072254E+03  0.12509000000E+03 0.  0.
<mgrwt>
<rscale>  2 0.46475457E+03</rscale>
<asrwt>0</asrwt>
<pdfrwt beam="1">  1       21 0.62518180E-01 0.46475457E+03</pdfrwt>
<pdfrwt beam="2">  1       21 0.18679412E-01 0.46475457E+03</pdfrwt>
<totfact> 0.57182561E+04</totfact>
</mgrwt>
</event>
<event>
 7    0  0.4750554E-002  0.4372736E+03  0.7546771E-02  0.1031587E+00
         21   -1    0    0  502  501  0.00000000000E+00  0.00000000000E+00  0.26130301712E+03  0.26130301712E+03  0.00000000000E+00 0.  1.
         21   -1    0    0  501  502 -0.00000000000E+00 -0.00000000000E+00 -0.18293725702E+03  0.18293725702E+03  0.00000000000E+00 0.  1.
      99926    2    1    2    0    0  0.00000000000E+00 -0.14210854715E-13  0.78365760100E+02  0.44424027414E+03  0.43727363151E+03 0.  0.
      99925    2    3    3    0    0 -0.42170550234E+02 -0.85243664148E+02  0.44092858760E+02  0.28340813354E+03  0.26330809403E+03 0.  0.
         25    1    3    3    0    0  0.42170550234E+02  0.85243664148E+02  0.34272901340E+02  0.16083214060E+03  0.12509000000E+03 0.  0.
         25    1    4    4    0    0 -0.23164734916E+02 -0.43273492551E+02  0.63629862792E+02  0.14867907600E+03  0.12509000000E+03 0.  0.
         25    1    4    4    0    0 -0.19005815318E+02 -0.41970171596E+02 -0.19537004032E+02  0.13472905754E+03  0.12509000000E+03 0.  0.
<mgrwt>
<rscale>  2 0.43727363E+03</rscale>
<asrwt>0</asrwt>
<pdfrwt beam="1">  1       21 0.38426914E-01 0.43727363E+03</pdfrwt>
<pdfrwt beam="2">  1       21 0.26902538E-01 0.43727363E+03</pdfrwt>
<totfact> 0.80077940E+04</totfact>
</mgrwt>
</event>
<event>
 7    0  0.4750554E-002  0.4554002E+03  0.7546771E-02  0.1026124E+00
         21   -1    0    0  502  501  0.00000000000E+00  0.00000000000E+00  0.52866832154E+03  0.52866832154E+03  0.00000000000E+00 0. -1.
         21   -1    0    0  501  502 -0.00000000000E+00 -0.00000000000E+00 -0.98071562676E+02  0.98071562676E+02  0.00000000000E+00 0. -1.
      99926    2    1    2    0    0  0.00000000000E+00  0.00000000000E+00  0.43059675887E+03  0.62673988422E+03  0.45540016878E+03 0.  0.
      99925    2    3    3    0    0  0.68861414134E+02 -0.40700366729E+02  0.16017877527E+03  0.31824060032E+03  0.26309964926E+03 0.  0.
         25    1    3    3    0    0 -0.68861414134E+02  0.40700366729E+02  0.27041798360E+03  0.30849928389E+03  0.12509000000E+03 0.  0.
         25    1    4    4    0    0 -0.69587961732E+01 -0.25756155533E+02  0.71454170672E+02  0.14650942290E+03  0.12509000000E+03 0.  0.
         25    1    4    4    0    0  0.75820210307E+02 -0.14944211196E+02  0.88724604595E+02  0.17173117743E+03  0.12509000000E+03 0.  0.
<mgrwt>
<rscale>  2 0.45540017E+03</rscale>
<asrwt>0</asrwt>
<pdfrwt beam="1">  1       21 0.77745340E-01 0.45540017E+03</pdfrwt>
<pdfrwt beam="2">  1       21 0.14422289E-01 0.45540017E+03</pdfrwt>
<totfact> 0.56881901E+04</totfact>
</mgrwt>
</event>
<event>
 7    0  0.4750554E-002  0.4518064E+03  0.7546771E-02  0.1027185E+00
         21   -1    0    0  502  501  0.00000000000E+00  0.00000000000E+00  0.11395281555E+04  0.11395281555E+04  0.00000000000E+00 0. -1.
         21   -1    0    0  501  502 -0.00000000000E+00 -0.00000000000E+00 -0.44783674253E+02  0.44783674253E+02  0.00000000000E+00 0. -1.
      99926    2    1    2    0    0  0.00000000000E+00  0.00000000000E+00  0.10947444813E+04  0.11843118298E+04  0.45180640862E+03 0.  0.
      99925    2    3    3    0    0  0.14443794621E+02 -0.74164933622E+02  0.48090927803E+03  0.55332036754E+03  0.26302211856E+03 0.  0.
         25    1    4    4    0    0 -0.58484303971E+01 -0.76740418689E+02  0.26275161539E+03  0.30101364668E+03  0.12509000000E+03 0.  0.
         25    1    4    4    0    0  0.20292225018E+02  0.25754850668E+01  0.21815766264E+03  0.25230672085E+03  0.12509000000E+03 0.  0.
         25    1    3    3    0    0 -0.14443794621E+02  0.74164933622E+02  0.61383520324E+03  0.63099146224E+03  0.12509000000E+03 0.  0.
<mgrwt>
<rscale>  2 0.45180641E+03</rscale>
<asrwt>0</asrwt>
<pdfrwt beam="1">  1       21 0.16757765E+00 0.45180641E+03</pdfrwt>
<pdfrwt beam="2">  1       21 0.65858352E-02 0.45180641E+03</pdfrwt>
<totfact> 0.33482545E+04</totfact>
</mgrwt>
</event>
<event>
 7    0  0.4750554E-002  0.4514526E+03  0.7546771E-02  0.1027290E+00
         21   -1    0    0  502  501  0.00000000000E+00  0.00000000000E+00  0.56058087257E+02  0.56058087257E+02  0.00000000000E+00 0.  1.
         21   -1    0    0  501  502 -0.00000000000E+00 -0.00000000000E+00 -0.90892071130E+03  0.90892071130E+03  0.00000000000E+00 0.  1.
      99926    2    1    2    0    0  0.00000000000E+00  0.14210854715E-13 -0.85286262404E+03  0.96497879855E+03  0.45145257356E+03 0.  0.
      99925    2    3    3    0    0 -0.72506581649E+02  0.81345998785E+02 -0.50903029321E+03  0.58321636493E+03  0.26297359757E+03 0.  0.
         25    1    4    4    0    0 -0.17854756397E+01  0.53197721239E+02 -0.20837000312E+03  0.24879459755E+03  0.12509000000E+03 0.  0.
         25    1    3    3    0    0  0.72506581649E+02 -0.81345998785E+02 -0.34383233083E+03  0.38176243363E+03  0.12509000000E+03 0.  0.
         25    1    4    4    0    0 -0.70721106009E+02  0.28148277546E+02 -0.30066029009E+03  0.33442176738E+03  0.12509000000E+03 0.  0.
<mgrwt>
<rscale>  2 0.45145257E+03</rscale>
<asrwt>0</asrwt>
<pdfrwt beam="1">  1       21 0.82438371E-02 0.45145257E+03</pdfrwt>
<pdfrwt beam="2">  1       21 0.13366480E+00 0.45145257E+03</pdfrwt>
<totfact> 0.41684350E+04</totfact>
</mgrwt>
</event>
<event>
 7    0  0.4750554E-002  0.4545137E+03  0.7546771E-02  0.1026384E+00
         21   -1    0    0  502  501  0.00000000000E+00  0.00000000000E+00  0.24142423805E+03  0.24142423805E+03  0.00000000000E+00 0.  1.
         21   -1    0    0  501  502 -0.00000000000E+00 -0.00000000000E+00 -0.21392088412E+03  0.21392088412E+03  0.00000000000E+00 0.  1.
      99926    2    1    2    0    0  0.00000000000E+00  0.00000000000E+00  0.27503353936E+02  0.45534512217E+03  0.45451374655E+03 0.  0.
      99925    2    3    3    0    0  0.65129321202E+02  0.48588179701E+02 -0.60999026219E+02  0.28190112809E+03  0.26295384602E+03 0.  0.
         25    1    4    4    0    0  0.63774168742E+02  0.49427829752E+01 -0.13464184611E+02  0.14113953404E+03  0.12509000000E+03 0.  0.
         25    1    3    3    0    0 -0.65129321202E+02 -0.48588179701E+02  0.88502380155E+02  0.17344399407E+03  0.12509000000E+03 0.  0.
         25    1    4    4    0    0  0.13551524598E+01  0.43645396725E+02 -0.47534841608E+02  0.14076159405E+03  0.12509000000E+03 0.  0.
<mgrwt>
<rscale>  2 0.45451375E+03</rscale>
<asrwt>0</asrwt>
<pdfrwt beam="1">  1       21 0.35503564E-01 0.45451375E+03</pdfrwt>
<pdfrwt beam="2">  1       21 0.31458954E-01 0.45451375E+03</pdfrwt>
<totfact> 0.68787038E+04</totfact>
</mgrwt>
</event>
<event>
 7    0  0.4750554E-002  0.4500194E+03  0.7546771E-02  0.1027716E+00
         21   -1    0    0  502  501  0.00000000000E+00  0.00000000000E+00  0.14822074485E+04  0.14822074485E+04  0.00000000000E+00 0. -1.
         21   -1    0    0  501  502 -0.00000000000E+00 -0.00000000000E+00 -0.34158075706E+02  0.34158075706E+02  0.00000000000E+00 0. -1.
      99926    2    1    2    0    0  0.00000000000E+00  0.71054273576E-14  0.14480493728E+04  0.15163655242E+04  0.45001935175E+03 0.  0.
      99925    2    3    3    0    0 -0.86190805935E+02 -0.63156134622E+02  0.85476567476E+03  0.90069466504E+03  0.26307597481E+03 0.  0.
         25    1    4    4    0    0 -0.79534448239E+02 -0.16381289909E+02  0.48999349623E+03  0.51218669405E+03  0.12509000000E+03 0.  0.
         25    1    4    4    0    0 -0.66563576966E+01 -0.46774844712E+02  0.36477217853E+03  0.38850797099E+03  0.12509000000E+03 0.  0.
         25    1    3    3    0    0  0.86190805935E+02  0.63156134622E+02  0.59328369807E+03  0.61567085920E+03  0.12509000000E+03 0.  0.
<mgrwt>
<rscale>  2 0.45001935E+03</rscale>
<asrwt>0</asrwt>
<pdfrwt beam="1">  1       21 0.21797164E+00 0.45001935E+03</pdfrwt>
<pdfrwt beam="2">  1       21 0.50232474E-02 0.45001935E+03</pdfrwt>
<totfact> 0.24307698E+04</totfact>
</mgrwt>
</event>
<event>
 7    0  0.4750554E-002  0.4585585E+03  0.7546771E-02  0.1025200E+00
         21   -1    0    0  502  501  0.00000000000E+00  0.00000000000E+00  0.28333635908E+03  0.28333635908E+03  0.00000000000E+00 0. -1.
         21   -1    0    0  501  502 -0.00000000000E+00 -0.00000000000E+00 -0.18553555109E+03  0.18553555109E+03  0.00000000000E+00 0. -1.
      99926    2    1    2    0    0 -0.71054273576E-14  0.00000000000E+00  0.97800807994E+02  0.46887191018E+03  0.45855846967E+03 0.  0.
      99925    2    3    3    0    0 -0.55524498602E+02 -0.89708716362E+01 -0.42975270727E+02  0.27232965283E+03  0.26296980707E+03 0.  0.
         25    1    3    3    0    0  0.55524498602E+02  0.89708716362E+01  0.14077607872E+03  0.19654225735E+03  0.12509000000E+03 0.  0.
         25    1    4    4    0    0 -0.54983671050E+02 -0.32272417279E+02 -0.93099889487E+01  0.14070855338E+03  0.12509000000E+03 0.  0.
         25    1    4    4    0    0 -0.54082755195E+00  0.23301545643E+02 -0.33665281779E+02  0.13162109945E+03  0.12509000000E+03 0.  0.
<mgrwt>
<rscale>  2 0.45855847E+03</rscale>
<asrwt>0</asrwt>
<pdfrwt beam="1">  1       21 0.41667112E-01 0.45855847E+03</pdfrwt>
<pdfrwt beam="2">  1       21 0.27284640E-01 0.45855847E+03</pdfrwt>
<totfact> 0.65647202E+04</totfact>
</mgrwt>
</event>
<event>
 7    0  0.4750554E-002  0.4580778E+03  0.7546771E-02  0.1025340E+00
         21   -1    0    0  502  501  0.00000000000E+00  0.00000000000E+00  0.13195185674E+03  0.13195185674E+03  0.00000000000E+00 0.  1.
         21   -1    0    0  501  502 -0.00000000000E+00 -0.00000000000E+00 -0.39756035189E+03  0.39756035189E+03  0.00000000000E+00 0.  1.
      99926    2    1    2    0    0  0.00000000000E+00  0.00000000000E+00 -0.26560849515E+03  0.52951220863E+03  0.45807783879E+03 0.  0.
      99925    2    3    3    0    0  0.10101197183E+03 -0.28051335269E+02 -0.22295897545E+03  0.36082081735E+03  0.26361081472E+03 0.  0.
         25    1    4    4    0    0  0.44074512961E+02 -0.45138536746E+02 -0.14614019130E+03  0.20244632327E+03  0.12509000000E+03 0.  0.
         25    1    3    3    0    0 -0.10101197183E+03  0.28051335269E+02 -0.42649519703E+02  0.16869139129E+03  0.12509000000E+03 0.  0.
         25    1    4    4    0    0  0.56937458866E+02  0.17087201477E+02 -0.76818784149E+02  0.15837449408E+03  0.12509000000E+03 0.  0.
<mgrwt>
<rscale>  2 0.45807784E+03</rscale>
<asrwt>0</asrwt>
<pdfrwt beam="1">  1       21 0.19404685E-01 0.45807784E+03</pdfrwt>
<pdfrwt beam="2">  1       21 0.58464757E-01 0.45807784E+03</pdfrwt>
<totfact> 0.61720006E+04</totfact>
</mgrwt>
</event>
<event>
 7    0  0.4750554E-002  0.4507784E+03  0.7546771E-02  0.1027490E+00
         21   -1    0    0  502  501  0.00000000000E+00  0.00000000000E+00  0.91131632625E+02  0.91131632625E+02  0.00000000000E+00 0. -1.
         21   -1    0    0  501  502 -0.00000000000E+00 -0.00000000000E+00 -0.55743863818E+03  0.55743863818E+03  0.00000000000E+00 0. -1.
      99926    2    1    2    0    0  0.00000000000E+00  0.71054273576E-14 -0.46630700555E+03  0.64857027080E+03  0.45077840758E+03 0.  0.
      99925    2    3    3    0    0  0.10121099786E+02  0.38818537701E+02 -0.14873075571E+03  0.30489673663E+03  0.26311949145E+03 0.  0.
         25    1    3    3    0    0 -0.10121099786E+02 -0.38818537701E+02 -0.31757624984E+03  0.34367353417E+03  0.12509000000E+03 0.  0.
         25    1    4    4    0    0  0.17449664044E+02  0.43263209030E+02 -0.41198712592E+02  0.13971770843E+03  0.12509000000E+03 0.  0.
         25    1    4    4    0    0 -0.73285642574E+01 -0.44446713290E+01 -0.10753204312E+03  0.16517902819E+03  0.12509000000E+03 0.  0.
<mgrwt>
<rscale>  2 0.45077841E+03</rscale>
<asrwt>0</asrwt>
<pdfrwt beam="1">  1       21 0.13401711E-01 0.45077841E+03</pdfrwt>
<pdfrwt beam="2">  1       21 0.81976269E-01 0.45077841E+03</pdfrwt>
<totfact> 0.57681092E+04</totfact>
</mgrwt>
</event>
<event>
 7    0  0.4750554E-002  0.4486015E+03  0.7546771E-02  0.1028140E+00
         21   -1    0    0  502  501  0.00000000000E+00  0.00000000000E+00  0.14386694428E+03  0.14386694428E+03  0.00000000000E+00 0.  1.
         21   -1    0    0  501  502 -0.00000000000E+00 -0.00000000000E+00 -0.34970381241E+03  0.34970381241E+03  0.00000000000E+00 0.  1.
      99926    2    1    2    0    0  0.00000000000E+00  0.00000000000E+00 -0.20583686813E+03  0.49357075669E+03  0.44860146632E+03 0.  0.
      99925    2    3    3    0    0 -0.69378407740E+02 -0.79657293249E+02 -0.11200585834E+03  0.30486353816E+03  0.26313079784E+03 0.  0.
         25    1    3    3    0    0  0.69378407740E+02  0.79657293249E+02 -0.93831009786E+02  0.18870721853E+03  0.12509000000E+03 0.  0.
         25    1    4    4    0    0 -0.64976131226E+02 -0.70530656727E+02 -0.54065598117E+02  0.16663453474E+03  0.12509000000E+03 0.  0.
         25    1    4    4    0    0 -0.44022765133E+01 -0.91266365216E+01 -0.57940260227E+02  0.13822900342E+03  0.12509000000E+03 0.  0.
<mgrwt>
<rscale>  2 0.44860147E+03</rscale>
<asrwt>0</asrwt>
<pdfrwt beam="1">  1       21 0.21156904E-01 0.44860147E+03</pdfrwt>
<pdfrwt beam="2">  1       21 0.51427031E-01 0.44860147E+03</pdfrwt>
<totfact> 0.69172035E+04</totfact>
</mgrwt>
</event>
<event>
 7    0  0.4750554E-002  0.4267100E+03  0.7546771E-02  0.1034904E+00
         21   -1    0    0  502  501  0.00000000000E+00  0.00000000000E+00  0.10125127043E+04  0.10125127043E+04  0.00000000000E+00 0.  1.
         21   -1    0    0  501  502 -0.00000000000E+00 -0.00000000000E+00 -0.44957809000E+02  0.44957809000E+02  0.00000000000E+00 0.  1.
      99926    2    1    2    0    0  0.00000000000E+00  0.00000000000E+00  0.96755489525E+03  0.10574705133E+04  0.42670998473E+03 0.  0.
      99925    2    3    3    0    0 -0.69484953977E+01  0.50893096925E+02  0.79062946657E+03  0.83478574880E+03  0.26293326928E+03 0.  0.
         25    1    4    4    0    0 -0.46574428250E+01 -0.53480041290E+01  0.46175930516E+03  0.47845528205E+03  0.12509000000E+03 0.  0.
         25    1    3    3    0    0  0.69484953977E+01 -0.50893096925E+02  0.17692542868E+03  0.22268476445E+03  0.12509000000E+03 0.  0.
         25    1    4    4    0    0 -0.22910525727E+01  0.56241101054E+02  0.32887016141E+03  0.35633046675E+03  0.12509000000E+03 0.  0.
<mgrwt>
<rscale>  2 0.42670998E+03</rscale>
<asrwt>0</asrwt>
<pdfrwt beam="1">  1       21 0.14889891E+00 0.42670998E+03</pdfrwt>
<pdfrwt beam="2">  1       21 0.66114432E-02 0.42670998E+03</pdfrwt>
<totfact> 0.46441939E+04</totfact>
</mgrwt>
</event>
<event>
 7    0  0.4750554E-002  0.4501805E+03  0.7546771E-02  0.1027668E+00
         21   -1    0    0  502  501  0.00000000000E+00  0.00000000000E+00  0.16520314993E+03  0.16520314993E+03  0.00000000000E+00 0.  1.
         21   -1    0    0  501  502 -0.00000000000E+00 -0.00000000000E+00 -0.30668679175E+03  0.30668679175E+03  0.00000000000E+00 0.  1.
      99926    2    1    2    0    0  0.00000000000E+00  0.14210854715E-13 -0.14148364182E+03  0.47188994168E+03  0.45018051508E+03 0.  0.
      99925    2    3    3    0    0 -0.70256335208E+01 -0.10787445985E+03 -0.83256190299E+02  0.29660673420E+03  0.26335850648E+03 0.  0.
         25    1    4    4    0    0 -0.13002102492E+01 -0.39621491509E+02  0.48892537443E+00  0.13122233150E+03  0.12509000000E+03 0.  0.
         25    1    3    3    0    0  0.70256335208E+01  0.10787445985E+03 -0.58227451524E+02  0.17528320748E+03  0.12509000000E+03 0.  0.
         25    1    4    4    0    0 -0.57254232716E+01 -0.68252968337E+02 -0.83745115673E+02  0.16538440270E+03  0.12509000000E+03 0.  0.
<mgrwt>
<rscale>  2 0.45018052E+03</rscale>
<asrwt>0</asrwt>
<pdfrwt beam="1">  1       21 0.24294581E-01 0.45018052E+03</pdfrwt>
<pdfrwt beam="2">  1       21 0.45100998E-01 0.45018052E+03</pdfrwt>
<totfact> 0.69931960E+04</totfact>
</mgrwt>
</event>
<event>
 7    0  0.4750554E-002  0.4564255E+03  0.7546771E-02  0.1025823E+00
         21   -1    0    0  502  501  0.00000000000E+00  0.00000000000E+00  0.72804386530E+03  0.72804386530E+03  0.00000000000E+00 0.  1.
         21   -1    0    0  501  502 -0.00000000000E+00 -0.00000000000E+00 -0.71535607909E+02  0.71535607909E+02  0.00000000000E+00 0.  1.
      99926    2    1    2    0    0  0.00000000000E+00  0.00000000000E+00  0.65650825739E+03  0.79957947321E+03  0.45642550537E+03 0.  0.
      99925    2    3    3    0    0  0.70044938340E+02 -0.21374302116E+02  0.56696231940E+03  0.62920008100E+03  0.26283705245E+03 0.  0.
         25    1    4    4    0    0  0.24488939572E+02 -0.49202244982E+02  0.29656100312E+03  0.32652183042E+03  0.12509000000E+03 0.  0.
         25    1    4    4    0    0  0.45555998768E+02  0.27827942866E+02  0.27040131628E+03  0.30267825058E+03  0.12509000000E+03 0.  0.
         25    1    3    3    0    0 -0.70044938340E+02  0.21374302116E+02  0.89545937995E+02  0.17037939221E+03  0.12509000000E+03 0.  0.
<mgrwt>
<rscale>  2 0.45642551E+03</rscale>
<asrwt>0</asrwt>
<pdfrwt beam="1">  1       21 0.10706527E+00 0.45642551E+03</pdfrwt>
<pdfrwt beam="2">  1       21 0.10519943E-01 0.45642551E+03</pdfrwt>
<totfact> 0.47254295E+04</totfact>
</mgrwt>
</event>
<event>
 7    0  0.4750554E-002  0.4547246E+03  0.7546771E-02  0.1026322E+00
         21   -1    0    0  502  501  0.00000000000E+00  0.00000000000E+00  0.13701155327E+03  0.13701155327E+03  0.00000000000E+00 0.  1.
         21   -1    0    0  501  502 -0.00000000000E+00 -0.00000000000E+00 -0.37729385943E+03  0.37729385943E+03  0.00000000000E+00 0.  1.
      99926    2    1    2    0    0  0.35527136788E-14  0.00000000000E+00 -0.24028230615E+03  0.51430541270E+03  0.45472460993E+03 0.  0.
      99925    2    3    3    0    0 -0.16051843417E+02 -0.17167759628E+02 -0.26410992986E+02  0.26542624454E+03  0.26306112805E+03 0.  0.
         25    1    3    3    0    0  0.16051843417E+02  0.17167759628E+02 -0.21387131317E+03  0.24887916816E+03  0.12509000000E+03 0.  0.
         25    1    4    4    0    0 -0.78835858140E+01  0.27238962456E+02  0.64883663001E+01  0.12842787469E+03  0.12509000000E+03 0.  0.
         25    1    4    4    0    0 -0.81682576034E+01 -0.44406722085E+02 -0.32899359286E+02  0.13699836984E+03  0.12509000000E+03 0.  0.
<mgrwt>
<rscale>  2 0.45472461E+03</rscale>
<asrwt>0</asrwt>
<pdfrwt beam="1">  1       21 0.20148758E-01 0.45472461E+03</pdfrwt>
<pdfrwt beam="2">  1       21 0.55484390E-01 0.45472461E+03</pdfrwt>
<totfact> 0.64417559E+04</totfact>
</mgrwt>
</event>
<event>
 7    0  0.4750554E-002  0.4560060E+03  0.7546771E-02  0.1025946E+00
         21   -1    0    0  502  501  0.00000000000E+00  0.00000000000E+00  0.50703778310E+02  0.50703778310E+02  0.00000000000E+00 0.  1.
         21   -1    0    0  501  502 -0.00000000000E+00 -0.00000000000E+00 -0.10252758036E+04  0.10252758036E+04  0.00000000000E+00 0.  1.
      99926    2    1    2    0    0  0.00000000000E+00  0.35527136788E-14 -0.97457202531E+03  0.10759795819E+04  0.45600595195E+03 0.  0.
      99925    2    3    3    0    0  0.13169832350E+02  0.23222230704E+02 -0.87452767262E+03  0.91359393882E+03  0.26294964992E+03 0.  0.
         25    1    4    4    0    0  0.13442755611E+02 -0.27281358808E+02 -0.45950001671E+03  0.47719257504E+03  0.12509000000E+03 0.  0.
         25    1    3    3    0    0 -0.13169832350E+02 -0.23222230704E+02 -0.10004435269E+03  0.16238564311E+03  0.12509000000E+03 0.  0.
         25    1    4    4    0    0 -0.27292326161E+00  0.50503589512E+02 -0.41502765591E+03  0.43640136378E+03  0.12509000000E+03 0.  0.
<mgrwt>
<rscale>  2 0.45600595E+03</rscale>
<asrwt>0</asrwt>
<pdfrwt beam="1">  1       21 0.74564381E-02 0.45600595E+03</pdfrwt>
<pdfrwt beam="2">  1       21 0.15077585E+00 0.45600595E+03</pdfrwt>
<totfact> 0.36054483E+04</totfact>
</mgrwt>
</event>
<event>
 7    0  0.4750554E-002  0.4525825E+03  0.7546771E-02  0.1026955E+00
         21   -1    0    0  502  501  0.00000000000E+00  0.00000000000E+00  0.21391948317E+04  0.21391948317E+04  0.00000000000E+00 0.  1.
         21   -1    0    0  501  502 -0.00000000000E+00 -0.00000000000E+00 -0.23937857108E+02  0.23937857108E+02  0.00000000000E+00 0.  1.
      99926    2    1    2    0    0 -0.14210854715E-13  0.00000000000E+00  0.21152569746E+04  0.21631326888E+04  0.45258254587E+03 0.  0.
      99925    2    3    3    0    0 -0.87729399512E+02  0.41528039805E+02  0.15903080980E+04  0.16148263358E+04  0.26298901603E+03 0.  0.
         25    1    4    4    0    0 -0.81439141369E+02  0.39913232411E+02  0.92876669163E+03  0.94153092114E+03  0.12509000000E+03 0.  0.
         25    1    3    3    0    0  0.87729399512E+02 -0.41528039805E+02  0.52494887661E+03  0.54830635304E+03  0.12509000000E+03 0.  0.
         25    1    4    4    0    0 -0.62902581429E+01  0.16148073943E+01  0.66154140634E+03  0.67329541462E+03  0.12509000000E+03 0.  0.
<mgrwt>
<rscale>  2 0.45258255E+03</rscale>
<asrwt>0</asrwt>
<pdfrwt beam="1">  1       21 0.31458735E+00 0.45258255E+03</pdfrwt>
<pdfrwt beam="2">  1       21 0.35202746E-02 0.45258255E+03</pdfrwt>
<totfact> 0.11437816E+04</totfact>
</mgrwt>
</event>
<event>
 7    0  0.4750554E-002  0.4562968E+03  0.7546771E-02  0.1025861E+00
         21   -1    0    0  502  501  0.00000000000E+00  0.00000000000E+00  0.56128258010E+03  0.56128258010E+03  0.00000000000E+00 0. -1.
         21   -1    0    0  501  502 -0.00000000000E+00 -0.00000000000E+00 -0.92737053338E+02  0.92737053338E+02  0.00000000000E+00 0. -1.
      99926    2    1    2    0    0  0.00000000000E+00  0.00000000000E+00  0.46854552676E+03  0.65401963344E+03  0.45629680064E+03 0.  0.
      99925    2    3    3    0    0 -0.88082205362E+02 -0.55093571566E+02  0.22666517710E+03  0.36256228118E+03  0.26321194635E+03 0.  0.
         25    1    4    4    0    0 -0.21236878887E+02 -0.55855543075E+02  0.13615884625E+03  0.19431311389E+03  0.12509000000E+03 0.  0.
         25    1    3    3    0    0  0.88082205362E+02  0.55093571566E+02  0.24188034966E+03  0.29145735225E+03  0.12509000000E+03 0.  0.
         25    1    4    4    0    0 -0.66845326475E+02  0.76197150904E+00  0.90506330851E+02  0.16824916730E+03  0.12509000000E+03 0.  0.
<mgrwt>
<rscale>  2 0.45629680E+03</rscale>
<asrwt>0</asrwt>
<pdfrwt beam="1">  1       21 0.82541554E-01 0.45629680E+03</pdfrwt>
<pdfrwt beam="2">  1       21 0.13637802E-01 0.45629680E+03</pdfrwt>
<totfact> 0.54906707E+04</totfact>
</mgrwt>
</event>
<event>
 7    0  0.4750554E-002  0.4536136E+03  0.7546771E-02  0.1026650E+00
         21   -1    0    0  502  501  0.00000000000E+00  0.00000000000E+00  0.23849096707E+02  0.23849096707E+02  0.00000000000E+00 0. -1.
         21   -1    0    0  501  502 -0.00000000000E+00 -0.00000000000E+00 -0.21569509287E+04  0.21569509287E+04  0.00000000000E+00 0. -1.
      99926    2    1    2    0    0 -0.35527136788E-14 -0.14210854715E-13 -0.21331018320E+04  0.21808000254E+04  0.45361362983E+03 0.  0.
      99925    2    3    3    0    0 -0.19206094529E+02 -0.10853145782E+03 -0.14388577033E+04  0.14668179740E+04  0.26286028058E+03 0.  0.
         25    1    3    3    0    0  0.19206094529E+02  0.10853145782E+03 -0.69424412870E+03  0.71398205142E+03  0.12509000000E+03 0.  0.
         25    1    4    4    0    0 -0.37749724148E+02 -0.27731423398E+02 -0.75030702889E+03  0.76210381131E+03  0.12509000000E+03 0.  0.
         25    1    4    4    0    0  0.18543629619E+02 -0.80800034427E+02 -0.68855067440E+03  0.70471416268E+03  0.12509000000E+03 0.  0.
<mgrwt>
<rscale>  2 0.45361363E+03</rscale>
<asrwt>0</asrwt>
<pdfrwt beam="1">  1       21 0.35072192E-02 0.45361363E+03</pdfrwt>
<pdfrwt beam="2">  1       21 0.31719875E+00 0.45361363E+03</pdfrwt>
<totfact> 0.11095240E+04</totfact>
</mgrwt>
</event>
<event>
 7    0  0.4750554E-002  0.4543616E+03  0.7546771E-02  0.1026429E+00
         21   -1    0    0  502  501  0.00000000000E+00  0.00000000000E+00  0.39639039123E+03  0.39639039123E+03  0.00000000000E+00 0. -1.
         21   -1    0    0  501  502 -0.00000000000E+00 -0.00000000000E+00 -0.13020274168E+03  0.13020274168E+03  0.00000000000E+00 0. -1.
      99926    2    1    2    0    0  0.00000000000E+00  0.00000000000E+00  0.26618764955E+03  0.52659313292E+03  0.45436159924E+03 0.  0.
      99925    2    3    3    0    0  0.71988418845E+02  0.65331030539E+02  0.23343864681E+03  0.36482020168E+03  0.26296330873E+03 0.  0.
         25    1    4    4    0    0  0.14332187936E+02  0.62821867156E+02  0.13905885152E+03  0.19783040942E+03  0.12509000000E+03 0.  0.
         25    1    4    4    0    0  0.57656230910E+02  0.25091633829E+01  0.94379795285E+02  0.16698979227E+03  0.12509000000E+03 0.  0.
         25    1    3    3    0    0 -0.71988418845E+02 -0.65331030539E+02  0.32749002745E+02  0.16177293123E+03  0.12509000000E+03 0.  0.
<mgrwt>
<rscale>  2 0.45436160E+03</rscale>
<asrwt>0</asrwt>
<pdfrwt beam="1">  1       21 0.58292704E-01 0.45436160E+03</pdfrwt>
<pdfrwt beam="2">  1       21 0.19147462E-01 0.45436160E+03</pdfrwt>
<totfact> 0.63759793E+04</totfact>
</mgrwt>
</event>
<event>
 7    0  0.4750554E-002  0.4461254E+03  0.7546771E-02  0.1028884E+00
         21   -1    0    0  502  501  0.00000000000E+00  0.00000000000E+00  0.66347722768E+02  0.66347722768E+02  0.00000000000E+00 0.  1.
         21   -1    0    0  501  502 -0.00000000000E+00 -0.00000000000E+00 -0.74994230011E+03  0.74994230011E+03  0.00000000000E+00 0.  1.
      99926    2    1    2    0    0  0.14210854715E-13 -0.17763568394E-14 -0.68359457734E+03  0.81629002288E+03  0.44612538067E+03 0.  0.
      99925    2    3    3    0    0 -0.10403939937E+03  0.11288028931E+02 -0.43444384389E+03  0.51850618803E+03  0.26297451837E+03 0.  0.
         25    1    4    4    0    0 -0.91182729010E+02 -0.88124165947E+01 -0.22108989012E+03  0.27003739809E+03  0.12509000000E+03 0.  0.
         25    1    4    4    0    0 -0.12856670357E+02  0.20100445526E+02 -0.21335395377E+03  0.24846878993E+03  0.12509000000E+03 0.  0.
         25    1    3    3    0    0  0.10403939937E+03 -0.11288028931E+02 -0.24915073346E+03  0.29778383485E+03  0.12509000000E+03 0.  0.
<mgrwt>
<rscale>  2 0.44612538E+03</rscale>
<asrwt>0</asrwt>
<pdfrwt beam="1">  1       21 0.97570180E-02 0.44612538E+03</pdfrwt>
<pdfrwt beam="2">  1       21 0.11028563E+00 0.44612538E+03</pdfrwt>
<totfact> 0.50406568E+04</totfact>
</mgrwt>
</event>
<event>
 7    0  0.4750554E-002  0.4549750E+03  0.7546771E-02  0.1026249E+00
         21   -1    0    0  502  501  0.00000000000E+00  0.00000000000E+00  0.56789823563E+03  0.56789823563E+03  0.00000000000E+00 0. -1.
         21   -1    0    0  501  502 -0.00000000000E+00 -0.00000000000E+00 -0.91126490801E+02  0.91126490801E+02  0.00000000000E+00 0. -1.
      99926    2    1    2    0    0  0.00000000000E+00 -0.71054273576E-14  0.47677174483E+03  0.65902472643E+03  0.45497504699E+03 0.  0.
      99925    2    3    3    0    0  0.32779796552E+02  0.58761174776E+02  0.43185926282E+03  0.51005483060E+03  0.26291846001E+03 0.  0.
         25    1    4    4    0    0  0.48001185300E+02  0.55215979740E+02  0.21685943630E+03  0.26082262444E+03  0.12509000000E+03 0.  0.
         25    1    3    3    0    0 -0.32779796552E+02 -0.58761174776E+02  0.44912482009E+02  0.14896989583E+03  0.12509000000E+03 0.  0.
         25    1    4    4    0    0 -0.15221388748E+02  0.35451950361E+01  0.21499982651E+03  0.24923220615E+03  0.12509000000E+03 0.  0.
<mgrwt>
<rscale>  2 0.45497505E+03</rscale>
<asrwt>0</asrwt>
<pdfrwt beam="1">  1       21 0.83514445E-01 0.45497505E+03</pdfrwt>
<pdfrwt beam="2">  1       21 0.13400955E-01 0.45497505E+03</pdfrwt>
<totfact> 0.55195096E+04</totfact>
</mgrwt>
</event>
<event>
 7    0  0.4750554E-002  0.4686563E+03  0.7546771E-02  0.1022300E+00
         21   -1    0    0  502  501  0.00000000000E+00  0.00000000000E+00  0.78968410366E+02  0.78968410366E+02  0.00000000000E+00 0. -1.
         21   -1    0    0  501  502 -0.00000000000E+00 -0.00000000000E+00 -0.69533743788E+03  0.69533743788E+03  0.00000000000E+00 0. -1.
      99926    2    1    2    0    0  0.00000000000E+00  0.00000000000E+00 -0.61636902751E+03  0.77430584825E+03  0.46865634376E+03 0.  0.
      99925    2    3    3    0    0  0.51008464958E+02 -0.99998805088E+02 -0.47610808241E+03  0.55539430141E+03  0.26302528279E+03 0.  0.
         25    1    3    3    0    0 -0.51008464958E+02  0.99998805088E+02 -0.14026094511E+03  0.21891154684E+03  0.12509000000E+03 0.  0.
         25    1    4    4    0    0  0.20793954726E+02 -0.12768068993E+02 -0.17462625474E+03  0.21618799477E+03  0.12509000000E+03 0.  0.
         25    1    4    4    0    0  0.30214510232E+02 -0.87230736096E+02 -0.30148182767E+03  0.33920630664E+03  0.12509000000E+03 0.  0.
<mgrwt>
<rscale>  2 0.46865634E+03</rscale>
<asrwt>0</asrwt>
<pdfrwt beam="1">  1       21 0.11613002E-01 0.46865634E+03</pdfrwt>
<pdfrwt beam="2">  1       21 0.10225550E+00 0.46865634E+03</pdfrwt>
<totfact> 0.44110685E+04</totfact>
</mgrwt>
</event>
<event>
 7    0  0.4750554E-002  0.4484306E+03  0.7546771E-02  0.1028191E+00
         21   -1    0    0  502  501  0.00000000000E+00  0.00000000000E+00  0.78890314029E+03  0.78890314029E+03  0.00000000000E+00 0.  1.
         21   -1    0    0  501  502 -0.00000000000E+00 -0.00000000000E+00 -0.63724551066E+02  0.63724551066E+02  0.00000000000E+00 0.  1.
      99926    2    1    2    0    0  0.00000000000E+00 -0.35527136788E-14  0.72517858922E+03  0.85262769135E+03  0.44843058972E+03 0.  0.
      99925    2    3    3    0    0  0.24417708336E+02  0.24025133332E+02  0.65158673318E+03  0.70350793784E+03  0.26302987708E+03 0.  0.
         25    1    3    3    0    0 -0.24417708336E+02 -0.24025133332E+02  0.73591856039E+02  0.14911975351E+03  0.12509000000E+03 0.  0.
         25    1    4    4    0    0  0.40467559339E+02  0.53245464420E+01  0.25524100812E+03  0.28716102535E+03  0.12509000000E+03 0.  0.
         25    1    4    4    0    0 -0.16049851004E+02  0.18700586890E+02  0.39634572506E+03  0.41634691249E+03  0.12509000000E+03 0.  0.
<mgrwt>
<rscale>  2 0.44843059E+03</rscale>
<asrwt>0</asrwt>
<pdfrwt beam="1">  1       21 0.11601516E+00 0.44843059E+03</pdfrwt>
<pdfrwt beam="2">  1       21 0.93712580E-02 0.44843059E+03</pdfrwt>
<totfact> 0.47734767E+04</totfact>
</mgrwt>
</event>
<event>
 7    0  0.4750554E-002  0.4556456E+03  0.7546771E-02  0.1026052E+00
         21   -1    0    0  502  501  0.00000000000E+00  0.00000000000E+00  0.10048194425E+04  0.10048194425E+04  0.00000000000E+00 0.  1.
         21   -1    0    0  501  502 -0.00000000000E+00 -0.00000000000E+00 -0.51654275866E+02  0.51654275866E+02  0.00000000000E+00 0.  1.
      99926    2    1    2    0    0  0.00000000000E+00  0.71054273576E-14  0.95316516668E+03  0.10564737184E+04  0.45564556700E+03 0.  0.
      99925    2    3    3    0    0  0.97454966406E+02  0.54546284069E+02  0.64662381596E+03  0.70706296388E+03  0.26333041590E+03 0.  0.
         25    1    4    4    0    0  0.73355788077E+02  0.55270140600E+02  0.40886563123E+03  0.43732650570E+03  0.12509000000E+03 0.  0.
         25    1    3    3    0    0 -0.97454966406E+02 -0.54546284069E+02  0.30654135072E+03  0.34941075453E+03  0.12509000000E+03 0.  0.
         25    1    4    4    0    0  0.24099178329E+02 -0.72385653113E+00  0.23775818473E+03  0.26973645818E+03  0.12509000000E+03 0.  0.
<mgrwt>
<rscale>  2 0.45564557E+03</rscale>
<asrwt>0</asrwt>
<pdfrwt beam="1">  1       21 0.14776755E+00 0.45564557E+03</pdfrwt>
<pdfrwt beam="2">  1       21 0.75962177E-02 0.45564557E+03</pdfrwt>
<totfact> 0.36854701E+04</totfact>
</mgrwt>
</event>
<event>
 7    0  0.4750554E-002  0.4544762E+03  0.7546771E-02  0.1026396E+00
         21   -1    0    0  502  501  0.00000000000E+00  0.00000000000E+00  0.38286855551E+03  0.38286855551E+03  0.00000000000E+00 0.  1.
         21   -1    0    0  501  502 -0.00000000000E+00 -0.00000000000E+00 -0.13486912560E+03  0.13486912560E+03  0.00000000000E+00 0.  1.
      99926    2    1    2    0    0  0.17763568394E-14  0.14210854715E-13  0.24799942991E+03  0.51773768112E+03  0.45447617012E+03 0.  0.
      99925    2    3    3    0    0  0.14196932670E+02  0.10863911853E+03  0.18614234598E+03  0.34031778960E+03  0.26298899973E+03 0.  0.
         25    1    4    4    0    0  0.18855285073E+02  0.16134267403E+02  0.10253275004E+03  0.16363468242E+03  0.12509000000E+03 0.  0.
         25    1    3    3    0    0 -0.14196932670E+02 -0.10863911853E+03  0.61857083936E+02  0.17741989152E+03  0.12509000000E+03 0.  0.
         25    1    4    4    0    0 -0.46583524031E+01  0.92504851132E+02  0.83609595937E+02  0.17668310718E+03  0.12509000000E+03 0.  0.
<mgrwt>
<rscale>  2 0.45447617E+03</rscale>
<asrwt>0</asrwt>
<pdfrwt beam="1">  1       21 0.56304199E-01 0.45447617E+03</pdfrwt>
<pdfrwt beam="2">  1       21 0.19833695E-01 0.45447617E+03</pdfrwt>
<totfact> 0.64308535E+04</totfact>
</mgrwt>
</event>
<event>
 7    0  0.4750554E-002  0.4529963E+03  0.7546771E-02  0.1026832E+00
         21   -1    0    0  502  501  0.00000000000E+00  0.00000000000E+00  0.14646942614E+04  0.14646942614E+04  0.00000000000E+00 0.  1.
         21   -1    0    0  501  502 -0.00000000000E+00 -0.00000000000E+00 -0.35025333361E+02  0.35025333361E+02  0.00000000000E+00 0.  1.
      99926    2    1    2    0    0  0.14210854715E-13  0.14210854715E-13  0.14296689281E+04  0.14997195948E+04  0.45299626832E+03 0.  0.
      99925    2    3    3    0    0 -0.72795567538E+02 -0.83634633335E+02  0.93196840116E+03  0.97469838652E+03  0.26301691463E+03 0.  0.
         25    1    3    3    0    0  0.72795567538E+02  0.83634633335E+02  0.49770052692E+03  0.52502120827E+03  0.12509000000E+03 0.  0.
         25    1    4    4    0    0 -0.63049460666E+02 -0.39984619200E+02  0.37993443368E+03  0.40690500889E+03  0.12509000000E+03 0.  0.
         25    1    4    4    0    0 -0.97461068723E+01 -0.43650014135E+02  0.55203396748E+03  0.56779337763E+03  0.12509000000E+03 0.  0.
<mgrwt>
<rscale>  2 0.45299627E+03</rscale>
<asrwt>0</asrwt>
<pdfrwt beam="1">  1       21 0.21539617E+00 0.45299627E+03</pdfrwt>
<pdfrwt beam="2">  1       21 0.51507853E-02 0.45299627E+03</pdfrwt>
<totfact> 0.24159834E+04</totfact>
</mgrwt>
</event>
<event>
 7    0  0.4750554E-002  0.4468283E+03  0.7546771E-02  0.1028672E+00
         21   -1    0    0  502  501  0.00000000000E+00  0.00000000000E+00  0.93249796365E+03  0.93249796365E+03  0.00000000000E+00 0. -1.
         21   -1    0    0  501  502 -0.00000000000E+00 -0.00000000000E+00 -0.53527071490E+02  0.53527071490E+02  0.00000000000E+00 0. -1.
      99926    2    1    2    0    0  0.71054273576E-14 -0.14210854715E-13  0.87897089216E+03  0.98602503514E+03  0.44682831228E+03 0.  0.
      99925    2    3    3    0    0  0.59890807569E+02 -0.81751798621E+02  0.62084703655E+03  0.68181179029E+03  0.26295628757E+03 0.  0.
         25    1    3    3    0    0 -0.59890807569E+02  0.81751798621E+02  0.25812385561E+03  0.30421324485E+03  0.12509000000E+03 0.  0.
         25    1    4    4    0    0  0.24096667210E+02  0.12040894698E+01  0.27143053815E+03  0.29984019801E+03  0.12509000000E+03 0.  0.
         25    1    4    4    0    0  0.35794140359E+02 -0.82955888091E+02  0.34941649840E+03  0.38197159228E+03  0.12509000000E+03 0.  0.
<mgrwt>
<rscale>  2 0.44682831E+03</rscale>
<asrwt>0</asrwt>
<pdfrwt beam="1">  1       21 0.13713204E+00 0.44682831E+03</pdfrwt>
<pdfrwt beam="2">  1       21 0.78716287E-02 0.44682831E+03</pdfrwt>
<totfact> 0.42354282E+04</totfact>
</mgrwt>
</event>
<event>
 6    0  0.4750554E-002  0.4566809E+03  0.7546771E-02  0.1025748E+00
         21   -1    0    0  502  501  0.00000000000E+00  0.00000000000E+00  0.20101787882E+03  0.20101787882E+03  0.00000000000E+00 0.  1.
         21   -1    0    0  501  502 -0.00000000000E+00 -0.00000000000E+00 -0.25937668075E+03  0.25937668075E+03  0.00000000000E+00 0.  1.
      99926    2    1    2    0    0  0.00000000000E+00 -0.35527136788E-14 -0.58358801933E+02  0.46039455957E+03  0.45668085215E+03 0.  0.
         25    1    3    3    0    0 -0.28266782364E+02  0.29909505108E+02 -0.74691408927E+02  0.15139321038E+03  0.12509000000E+03 0.  0.
         25    1    3    3    0    0 -0.43954309076E+02 -0.38216057467E+02 -0.53945340413E+02  0.14815551352E+03  0.12509000000E+03 0.  0.
         25    1    3    3    0    0  0.72221091440E+02  0.83065523592E+01  0.70277947407E+02  0.16084583567E+03  0.12509000000E+03 0.  0.
<mgrwt>
<rscale>  2 0.45668085E+03</rscale>
<asrwt>0</asrwt>
<pdfrwt beam="1">  1       21 0.29561453E-01 0.45668085E+03</pdfrwt>
<pdfrwt beam="2">  1       21 0.38143629E-01 0.45668085E+03</pdfrwt>
<totfact> 0.67245869E+04</totfact>
</mgrwt>
</event>
<event>
 7    0  0.4750554E-002  0.4524903E+03  0.7546771E-02  0.1026982E+00
         21   -1    0    0  502  501  0.00000000000E+00  0.00000000000E+00  0.61838727702E+02  0.61838727702E+02  0.00000000000E+00 0. -1.
         21   -1    0    0  501  502 -0.00000000000E+00 -0.00000000000E+00 -0.82774785264E+03  0.82774785264E+03  0.00000000000E+00 0. -1.
      99926    2    1    2    0    0  0.14210854715E-13  0.00000000000E+00 -0.76590912493E+03  0.88958658034E+03  0.45249032726E+03 0.  0.
      99925    2    3    3    0    0 -0.69933204287E+02  0.65629533193E+01 -0.65148170021E+03  0.70607944411E+03  0.26303241296E+03 0.  0.
         25    1    4    4    0    0  0.34219635316E+01  0.19520918525E+02 -0.30015374372E+03  0.32577991661E+03  0.12509000000E+03 0.  0.
         25    1    4    4    0    0 -0.73355167819E+02 -0.12957965206E+02 -0.35132795649E+03  0.38029952750E+03  0.12509000000E+03 0.  0.
         25    1    3    3    0    0  0.69933204287E+02 -0.65629533193E+01 -0.11442742472E+03  0.18350713623E+03  0.12509000000E+03 0.  0.
<mgrwt>
<rscale>  2 0.45249033E+03</rscale>
<asrwt>0</asrwt>
<pdfrwt beam="1">  1       21 0.90939303E-02 0.45249033E+03</pdfrwt>
<pdfrwt beam="2">  1       21 0.12172763E+00 0.45249033E+03</pdfrwt>
<totfact> 0.44556197E+04</totfact>
</mgrwt>
</event>
<event>
 7    0  0.4750554E-002  0.4518779E+03  0.7546771E-02  0.1027164E+00
         21   -1    0    0  502  501  0.00000000000E+00  0.00000000000E+00  0.17788637339E+03  0.17788637339E+03  0.00000000000E+00 0.  1.
         21   -1    0    0  501  502 -0.00000000000E+00 -0.00000000000E+00 -0.28697195552E+03  0.28697195552E+03  0.00000000000E+00 0.  1.
      99926    2    1    2    0    0  0.00000000000E+00  0.00000000000E+00 -0.10908558213E+03  0.46485832891E+03  0.45187786152E+03 0.  0.
      99925    2    3    3    0    0 -0.96146114273E+02  0.53595719726E+02 -0.61804252417E+02  0.29165437774E+03  0.26291811268E+03 0.  0.
         25    1    4    4    0    0 -0.74330789956E+02  0.60707650395E+02 -0.28918888968E+02  0.16029440224E+03  0.12509000000E+03 0.  0.
         25    1    4    4    0    0 -0.21815324318E+02 -0.71119306686E+01 -0.32885363449E+02  0.13135997550E+03  0.12509000000E+03 0.  0.
         25    1    3    3    0    0  0.96146114273E+02 -0.53595719726E+02 -0.47281329713E+02  0.17320395117E+03  0.12509000000E+03 0.  0.
<mgrwt>
<rscale>  2 0.45187786E+03</rscale>
<asrwt>0</asrwt>
<pdfrwt beam="1">  1       21 0.26159761E-01 0.45187786E+03</pdfrwt>
<pdfrwt beam="2">  1       21 0.42201757E-01 0.45187786E+03</pdfrwt>
<totfact> 0.69526178E+04</totfact>
</mgrwt>
</event>
<event>
 7    0  0.4750554E-002  0.4182193E+03  0.7546771E-02  0.1037647E+00
         21   -1    0    0  502  501  0.00000000000E+00  0.00000000000E+00  0.59110114014E+03  0.59110114014E+03  0.00000000000E+00 0. -1.
         21   -1    0    0  501  502 -0.00000000000E+00 -0.00000000000E+00 -0.73975236297E+02  0.73975236297E+02  0.00000000000E+00 0. -1.
      99926    2    1    2    0    0  0.00000000000E+00  0.71054273576E-14  0.51712590385E+03  0.66507637644E+03  0.41821930380E+03 0.  0.
      99925    2    3    3    0    0  0.17794449476E+02 -0.62805625883E+02  0.29050280953E+03  0.39811809496E+03  0.26428194436E+03 0.  0.
         25    1    4    4    0    0  0.76963011037E+01  0.10676275846E+01  0.95415960498E+02  0.15751852747E+03  0.12509000000E+03 0.  0.
         25    1    3    3    0    0 -0.17794449476E+02  0.62805625883E+02  0.22662309432E+03  0.26695828148E+03  0.12509000000E+03 0.  0.
         25    1    4    4    0    0  0.10098148372E+02 -0.63873253468E+02  0.19508684903E+03  0.24059956748E+03  0.12509000000E+03 0.  0.
<mgrwt>
<rscale>  2 0.41821930E+03</rscale>
<asrwt>0</asrwt>
<pdfrwt beam="1">  1       21 0.86926636E-01 0.41821930E+03</pdfrwt>
<pdfrwt beam="2">  1       21 0.10878712E-01 0.41821930E+03</pdfrwt>
<totfact> 0.74084232E+04</totfact>
</mgrwt>
</event>
<event>
 7    0  0.4750554E-002  0.4562763E+03  0.7546771E-02  0.1025867E+00
         21   -1    0    0  502  501  0.00000000000E+00  0.00000000000E+00  0.90687113896E+03  0.90687113896E+03  0.00000000000E+00 0. -1.
         21   -1    0    0  501  502 -0.00000000000E+00 -0.00000000000E+00 -0.57391846785E+02  0.57391846785E+02  0.00000000000E+00 0. -1.
      99926    2    1    2    0    0  0.00000000000E+00  0.00000000000E+00  0.84947929217E+03  0.96426298574E+03  0.45627627359E+03 0.  0.
      99925    2    3    3    0    0  0.44994422965E+02  0.56464581561E+02  0.34679722664E+03  0.44124337409E+03  0.26308677599E+03 0.  0.
         25    1    4    4    0    0  0.62400161769E+02  0.23071447004E+02  0.19371118653E+03  0.23999500775E+03  0.12509000000E+03 0.  0.
         25    1    3    3    0    0 -0.44994422965E+02 -0.56464581561E+02  0.50268206553E+03  0.52301961166E+03  0.12509000000E+03 0.  0.
         25    1    4    4    0    0 -0.17405738805E+02  0.33393134557E+02  0.15308604011E+03  0.20124836634E+03  0.12509000000E+03 0.  0.
<mgrwt>
<rscale>  2 0.45627627E+03</rscale>
<asrwt>0</asrwt>
<pdfrwt beam="1">  1       21 0.13336339E+00 0.45627627E+03</pdfrwt>
<pdfrwt beam="2">  1       21 0.84399780E-02 0.45627627E+03</pdfrwt>
<totfact> 0.40166320E+04</totfact>
</mgrwt>
</event>
<event>
 7    0  0.4750554E-002  0.4566839E+03  0.7546771E-02  0.1025747E+00
         21   -1    0    0  502  501  0.00000000000E+00  0.00000000000E+00  0.39764784233E+03  0.39764784233E+03  0.00000000000E+00 0. -1.
         21   -1    0    0  501  502 -0.00000000000E+00 -0.00000000000E+00 -0.13112114908E+03  0.13112114908E+03  0.00000000000E+00 0. -1.
      99926    2    1    2    0    0  0.00000000000E+00  0.00000000000E+00  0.26652669324E+03  0.52876899141E+03  0.45668388199E+03 0.  0.
      99925    2    3    3    0    0 -0.87358296121E+02 -0.70810674666E+02  0.19297503748E+03  0.34518528376E+03  0.26318793948E+03 0.  0.
         25    1    4    4    0    0 -0.72696685556E+02 -0.48736893150E+02  0.70624345061E+02  0.16821236298E+03  0.12509000000E+03 0.  0.
         25    1    4    4    0    0 -0.14661610565E+02 -0.22073781517E+02  0.12235069242E+03  0.17697292078E+03  0.12509000000E+03 0.  0.
         25    1    3    3    0    0  0.87358296121E+02  0.70810674666E+02  0.73551655766E+02  0.18358370765E+03  0.12509000000E+03 0.  0.
<mgrwt>
<rscale>  2 0.45668388E+03</rscale>
<asrwt>0</asrwt>
<pdfrwt beam="1">  1       21 0.58477623E-01 0.45668388E+03</pdfrwt>
<pdfrwt beam="2">  1       21 0.19282522E-01 0.45668388E+03</pdfrwt>
<totfact> 0.62452203E+04</totfact>
</mgrwt>
</event>
<event>
 7    0  0.4750554E-002  0.4484050E+03  0.7546771E-02  0.1028199E+00
         21   -1    0    0  502  501  0.00000000000E+00  0.00000000000E+00  0.22424409873E+03  0.22424409873E+03  0.00000000000E+00 0.  1.
         21   -1    0    0  501  502 -0.00000000000E+00 -0.00000000000E+00 -0.22416090752E+03  0.22416090752E+03  0.00000000000E+00 0.  1.
      99926    2    1    2    0    0  0.14210854715E-13 -0.17763568394E-14  0.83191209049E-01  0.44840500625E+03  0.44840499853E+03 0.  0.
      99925    2    3    3    0    0 -0.10700565906E+03  0.31910084950E+01 -0.11921866838E+02  0.28332313830E+03  0.26204861416E+03 0.  0.
         25    1    3    3    0    0  0.10700565906E+03 -0.31910084950E+01  0.12005058047E+02  0.16508186795E+03  0.12509000000E+03 0.  0.
         25    1    4    4    0    0 -0.25486556746E+02  0.20076003155E+02 -0.27931281377E+02  0.13221299126E+03  0.12509000000E+03 0.  0.
         25    1    4    4    0    0 -0.81519102316E+02 -0.16884994659E+02  0.16009414539E+02  0.15111014705E+03  0.12509000000E+03 0.  0.
<mgrwt>
<rscale>  2 0.44840500E+03</rscale>
<asrwt>0</asrwt>
<pdfrwt beam="1">  1       21 0.32977074E-01 0.44840500E+03</pdfrwt>
<pdfrwt beam="2">  1       21 0.32964839E-01 0.44840500E+03</pdfrwt>
<totfact> 0.72787061E+04</totfact>
</mgrwt>
</event>
<event>
 6    0  0.4750554E-002  0.4552190E+03  0.7546771E-02  0.1026177E+00
         21   -1    0    0  502  501  0.00000000000E+00  0.00000000000E+00  0.25982906627E+03  0.25982906627E+03  0.00000000000E+00 0.  1.
         21   -1    0    0  501  502 -0.00000000000E+00 -0.00000000000E+00 -0.19938528124E+03  0.19938528124E+03  0.00000000000E+00 0.  1.
      99926    2    1    2    0    0  0.00000000000E+00  0.00000000000E+00  0.60443785030E+02  0.45921434751E+03  0.45521903058E+03 0.  0.
         25    1    3    3    0    0 -0.84776657999E+01  0.75470043191E+02  0.24351081018E+02  0.14835120992E+03  0.12509000000E+03 0.  0.
         25    1    3    3    0    0 -0.26484466714E+02  0.95346331644E+01 -0.44803819590E+02  0.13582056750E+03  0.12509000000E+03 0.  0.
         25    1    3    3    0    0  0.34962132514E+02 -0.85004676355E+02  0.80896523602E+02  0.17504257009E+03  0.12509000000E+03 0.  0.
<mgrwt>
<rscale>  2 0.45521903E+03</rscale>
<asrwt>0</asrwt>
<pdfrwt beam="1">  1       21 0.38210157E-01 0.45521903E+03</pdfrwt>
<pdfrwt beam="2">  1       21 0.29321365E-01 0.45521903E+03</pdfrwt>
<totfact> 0.68118793E+04</totfact>
</mgrwt>
</event>
<event>
 7    0  0.4750554E-002  0.4382357E+03  0.7546771E-02  0.1031290E+00
         21   -1    0    0  502  501  0.00000000000E+00  0.00000000000E+00  0.97222734708E+03  0.97222734708E+03  0.00000000000E+00 0.  1.
         21   -1    0    0  501  502 -0.00000000000E+00 -0.00000000000E+00 -0.49384153000E+02  0.49384153000E+02  0.00000000000E+00 0.  1.
      99926    2    1    2    0    0  0.88817841970E-15 -0.14210854715E-13  0.92284319408E+03  0.10216115001E+04  0.43823566290E+03 0.  0.
      99925    2    3    3    0    0  0.41441792851E+01 -0.68404824679E+02  0.43127932432E+03  0.50977271646E+03  0.26300184905E+03 0.  0.
         25    1    3    3    0    0 -0.41441792851E+01  0.68404824679E+02  0.49156386976E+03  0.51183878362E+03  0.12509000000E+03 0.  0.
         25    1    4    4    0    0  0.11869260338E+02 -0.14640296384E+02  0.14338445334E+03  0.19121147241E+03  0.12509000000E+03 0.  0.
         25    1    4    4    0    0 -0.77250810524E+01 -0.53764528295E+02  0.28789487097E+03  0.31856124405E+03  0.12509000000E+03 0.  0.
<mgrwt>
<rscale>  2 0.43823566E+03</rscale>
<asrwt>0</asrwt>
<pdfrwt beam="1">  1       21 0.14297460E+00 0.43823566E+03</pdfrwt>
<pdfrwt beam="2">  1       21 0.72623760E-02 0.43823566E+03</pdfrwt>
<totfact> 0.43794048E+04</totfact>
</mgrwt>
</event>
<event>
 7    0  0.4750554E-002  0.4561061E+03  0.7546771E-02  0.1025917E+00
         21   -1    0    0  502  501  0.00000000000E+00  0.00000000000E+00  0.30777047819E+03  0.30777047819E+03  0.00000000000E+00 0. -1.
         21   -1    0    0  501  502 -0.00000000000E+00 -0.00000000000E+00 -0.16898372040E+03  0.16898372040E+03  0.00000000000E+00 0. -1.
      99926    2    1    2    0    0  0.00000000000E+00  0.00000000000E+00  0.13878675779E+03  0.47675419858E+03  0.45610612990E+03 0.  0.
      99925    2    3    3    0    0 -0.99867131270E+02  0.59186901504E+01  0.29521047986E+02  0.28285995359E+03  0.26292543861E+03 0.  0.
         25    1    4    4    0    0 -0.55822078865E+02 -0.50940532112E+01  0.54408857865E+02  0.14747842480E+03  0.12509000000E+03 0.  0.
         25    1    3    3    0    0  0.99867131270E+02 -0.59186901504E+01  0.10926570981E+03  0.19389424499E+03  0.12509000000E+03 0.  0.
         25    1    4    4    0    0 -0.44045052406E+02  0.11012743362E+02 -0.24887809879E+02  0.13538152879E+03  0.12509000000E+03 0.  0.
<mgrwt>
<rscale>  2 0.45610613E+03</rscale>
<asrwt>0</asrwt>
<pdfrwt beam="1">  1       21 0.45260364E-01 0.45610613E+03</pdfrwt>
<pdfrwt beam="2">  1       21 0.24850547E-01 0.45610613E+03</pdfrwt>
<totfact> 0.66352743E+04</totfact>
</mgrwt>
</event>
<event>
 7    0  0.4750554E-002  0.4534488E+03  0.7546771E-02  0.1026699E+00
         21   -1    0    0  502  501  0.00000000000E+00  0.00000000000E+00  0.43547910706E+02  0.43547910706E+02  0.00000000000E+00 0. -1.
         21   -1    0    0  501  502 -0.00000000000E+00 -0.00000000000E+00 -0.11804002258E+04  0.11804002258E+04  0.00000000000E+00 0. -1.
      99926    2    1    2    0    0 -0.14210854715E-13 -0.35527136788E-14 -0.11368523151E+04  0.12239481365E+04  0.45344884444E+03 0.  0.
      99925    2    3    3    0    0 -0.82313091390E+02 -0.21686622784E+02 -0.91157746803E+03  0.95257750537E+03  0.26302978710E+03 0.  0.
         25    1    4    4    0    0 -0.17513996192E+02 -0.25233470205E+01 -0.54364127794E+03  0.55812763283E+03  0.12509000000E+03 0.  0.
         25    1    4    4    0    0 -0.64799095199E+02 -0.19163275763E+02 -0.36793619009E+03  0.39444987255E+03  0.12509000000E+03 0.  0.
         25    1    3    3    0    0  0.82313091390E+02  0.21686622784E+02 -0.22527484708E+03  0.27137063114E+03  0.12509000000E+03 0.  0.
<mgrwt>
<rscale>  2 0.45344884E+03</rscale>
<asrwt>0</asrwt>
<pdfrwt beam="1">  1       21 0.64041049E-02 0.45344884E+03</pdfrwt>
<pdfrwt beam="2">  1       21 0.17358826E+00 0.45344884E+03</pdfrwt>
<totfact> 0.31788024E+04</totfact>
</mgrwt>
</event>
<event>
 7    0  0.4750554E-002  0.4563665E+03  0.7546771E-02  0.1025840E+00
         21   -1    0    0  502  501  0.00000000000E+00  0.00000000000E+00  0.21060982831E+03  0.21060982831E+03  0.00000000000E+00 0.  1.
         21   -1    0    0  501  502 -0.00000000000E+00 -0.00000000000E+00 -0.24722299909E+03  0.24722299909E+03  0.00000000000E+00 0.  1.
      99926    2    1    2    0    0  0.14210854715E-13 -0.71054273576E-14 -0.36613170780E+02  0.45783282741E+03  0.45636649042E+03 0.  0.
      99925    2    3    3    0    0 -0.95300139347E+02  0.50660216431E+02  0.14986529043E+02  0.28474726703E+03  0.26307382223E+03 0.  0.
         25    1    3    3    0    0  0.95300139347E+02 -0.50660216431E+02 -0.51599699823E+02  0.17308556038E+03  0.12509000000E+03 0.  0.
         25    1    4    4    0    0 -0.25538555632E+02 -0.29063051288E+01 -0.16063824902E+02  0.12870982481E+03  0.12509000000E+03 0.  0.
         25    1    4    4    0    0 -0.69761583715E+02  0.53566521560E+02  0.31050353945E+02  0.15603744222E+03  0.12509000000E+03 0.  0.
<mgrwt>
<rscale>  2 0.45636649E+03</rscale>
<asrwt>0</asrwt>
<pdfrwt beam="1">  1       21 0.30972034E-01 0.45636649E+03</pdfrwt>
<pdfrwt beam="2">  1       21 0.36356323E-01 0.45636649E+03</pdfrwt>
<totfact> 0.67598761E+04</totfact>
</mgrwt>
</event>
<event>
 7    0  0.4750554E-002  0.4536142E+03  0.7546771E-02  0.1026650E+00
         21   -1    0    0  502  501  0.00000000000E+00  0.00000000000E+00  0.34766112139E+02  0.34766112139E+02  0.00000000000E+00 0.  1.
         21   -1    0    0  501  502 -0.00000000000E+00 -0.00000000000E+00 -0.14796435139E+04  0.14796435139E+04  0.00000000000E+00 0.  1.
      99926    2    1    2    0    0  0.00000000000E+00  0.00000000000E+00 -0.14448774018E+04  0.15144096261E+04  0.45361416350E+03 0.  0.
      99925    2    3    3    0    0 -0.10720196151E+03  0.21639854088E+02 -0.83159180644E+03  0.87901425829E+03  0.26298401072E+03 0.  0.
         25    1    4    4    0    0 -0.54598404277E+02  0.62852857395E+01 -0.29162604571E+03  0.32204619110E+03  0.12509000000E+03 0.  0.
         25    1    4    4    0    0 -0.52603557230E+02  0.15354568348E+02 -0.53996576073E+03  0.55696806719E+03  0.12509000000E+03 0.  0.
         25    1    3    3    0    0  0.10720196151E+03 -0.21639854088E+02 -0.61328559536E+03  0.63539536779E+03  0.12509000000E+03 0.  0.
<mgrwt>
<rscale>  2 0.45361416E+03</rscale>
<asrwt>0</asrwt>
<pdfrwt beam="1">  1       21 0.51126640E-02 0.45361416E+03</pdfrwt>
<pdfrwt beam="2">  1       21 0.21759461E+00 0.45361416E+03</pdfrwt>
<totfact> 0.23682047E+04</totfact>
</mgrwt>
</event>
<event>
 7    0  0.4750554E-002  0.4518669E+03  0.7546771E-02  0.1027167E+00
         21   -1    0    0  502  501  0.00000000000E+00  0.00000000000E+00  0.46154973141E+03  0.46154973141E+03  0.00000000000E+00 0.  1.
         21   -1    0    0  501  502 -0.00000000000E+00 -0.00000000000E+00 -0.11059678632E+03  0.11059678632E+03  0.00000000000E+00 0.  1.
      99926    2    1    2    0    0  0.14210854715E-13 -0.14210854715E-13  0.35095294509E+03  0.57214651773E+03  0.45186686987E+03 0.  0.
      99925    2    3    3    0    0 -0.64360493931E+02  0.79990499064E+02  0.27185218727E+03  0.39202103062E+03  0.26312758047E+03 0.  0.
         25    1    4    4    0    0 -0.70130128915E+02  0.57981756790E+02  0.16207100948E+03  0.22404160175E+03  0.12509000000E+03 0.  0.
         25    1    4    4    0    0  0.57696349838E+01  0.22008742274E+02  0.10978117779E+03  0.16797942886E+03  0.12509000000E+03 0.  0.
         25    1    3    3    0    0  0.64360493931E+02 -0.79990499064E+02  0.79100757817E+02  0.18012548711E+03  0.12509000000E+03 0.  0.
<mgrwt>
<rscale>  2 0.45186687E+03</rscale>
<asrwt>0</asrwt>
<pdfrwt beam="1">  1       21 0.67874960E-01 0.45186687E+03</pdfrwt>
<pdfrwt beam="2">  1       21 0.16264233E-01 0.45186687E+03</pdfrwt>
<totfact> 0.61946841E+04</totfact>
</mgrwt>
</event>
<event>
 7    0  0.4750554E-002  0.4545734E+03  0.7546771E-02  0.1026367E+00
         21   -1    0    0  502  501  0.00000000000E+00  0.00000000000E+00  0.21566618850E+04  0.21566618850E+04  0.00000000000E+00 0. -1.
         21   -1    0    0  501  502 -0.00000000000E+00 -0.00000000000E+00 -0.23953329627E+02  0.23953329627E+02  0.00000000000E+00 0. -1.
      99926    2    1    2    0    0  0.00000000000E+00  0.00000000000E+00  0.21327085554E+04  0.21806152147E+04  0.45457335173E+03 0.  0.
      99925    2    3    3    0    0  0.75172857081E+02  0.79335136098E+02  0.12118563396E+04  0.12449008706E+04  0.26312994410E+03 0.  0.
         25    1    4    4    0    0  0.47120884512E+02  0.16799297347E+02  0.73198453850E+03  0.74427915922E+03  0.12509000000E+03 0.  0.
         25    1    4    4    0    0  0.28051972569E+02  0.62535838750E+02  0.47987180115E+03  0.50062171140E+03  0.12509000000E+03 0.  0.
         25    1    3    3    0    0 -0.75172857081E+02 -0.79335136098E+02  0.92085221576E+03  0.93571434403E+03  0.12509000000E+03 0.  0.
<mgrwt>
<rscale>  2 0.45457335E+03</rscale>
<asrwt>0</asrwt>
<pdfrwt beam="1">  1       21 0.31715603E+00 0.45457335E+03</pdfrwt>
<pdfrwt beam="2">  1       21 0.35225499E-02 0.45457335E+03</pdfrwt>
<totfact> 0.11015308E+04</totfact>
</mgrwt>
</event>
<event>
 7    0  0.4750554E-002  0.4376235E+03  0.7546771E-02  0.1031478E+00
         21   -1    0    0  502  501  0.00000000000E+00  0.00000000000E+00  0.66835837827E+02  0.66835837827E+02  0.00000000000E+00 0. -1.
         21   -1    0    0  501  502 -0.00000000000E+00 -0.00000000000E+00 -0.71636088058E+03  0.71636088058E+03  0.00000000000E+00 0. -1.
      99926    2    1    2    0    0  0.00000000000E+00 -0.88817841970E-15 -0.64952504275E+03  0.78319671841E+03  0.43762348950E+03 0.  0.
      99925    2    3    3    0    0 -0.71770802908E+02 -0.63416875540E+01 -0.52898926656E+03  0.59513383905E+03  0.26298930984E+03 0.  0.
         25    1    4    4    0    0 -0.18509949900E+02  0.20959002843E+02 -0.31570494718E+03  0.34073306241E+03  0.12509000000E+03 0.  0.
         25    1    3    3    0    0  0.71770802908E+02  0.63416875540E+01 -0.12053577619E+03  0.18806287936E+03  0.12509000000E+03 0.  0.
         25    1    4    4    0    0 -0.53260853008E+02 -0.27300690397E+02 -0.21328431938E+03  0.25440077664E+03  0.12509000000E+03 0.  0.
<mgrwt>
<rscale>  2 0.43762349E+03</rscale>
<asrwt>0</asrwt>
<pdfrwt beam="1">  1       21 0.98287997E-02 0.43762349E+03</pdfrwt>
<pdfrwt beam="2">  1       21 0.10534719E+00 0.43762349E+03</pdfrwt>
<totfact> 0.55821318E+04</totfact>
</mgrwt>
</event>
<event>
 7    0  0.4750554E-002  0.4600508E+03  0.7546771E-02  0.1024766E+00
         21   -1    0    0  502  501  0.00000000000E+00  0.00000000000E+00  0.90281418695E+02  0.90281418695E+02  0.00000000000E+00 0. -1.
         21   -1    0    0  501  502 -0.00000000000E+00 -0.00000000000E+00 -0.58607506030E+03  0.58607506030E+03  0.00000000000E+00 0. -1.
      99926    2    1    2    0    0  0.00000000000E+00 -0.17763568394E-14 -0.49579364160E+03  0.67635647899E+03  0.46005081417E+03 0.  0.
      99925    2    3    3    0    0  0.11672546128E+03  0.15792199063E+02 -0.31934560383E+03  0.43007281125E+03  0.26288168714E+03 0.  0.
         25    1    3    3    0    0 -0.11672546128E+03 -0.15792199063E+02 -0.17644803777E+03  0.24628366774E+03  0.12509000000E+03 0.  0.
         25    1    4    4    0    0  0.51464466934E+02 -0.86017610054E+01 -0.10126505154E+03  0.16918835779E+03  0.12509000000E+03 0.  0.
         25    1    4    4    0    0  0.65260994343E+02  0.24393960069E+02 -0.21808055229E+03  0.26088445346E+03  0.12509000000E+03 0.  0.
<mgrwt>
<rscale>  2 0.46005081E+03</rscale>
<asrwt>0</asrwt>
<pdfrwt beam="1">  1       21 0.13276680E-01 0.46005081E+03</pdfrwt>
<pdfrwt beam="2">  1       21 0.86187507E-01 0.46005081E+03</pdfrwt>
<totfact> 0.52100765E+04</totfact>
</mgrwt>
</event>
<event>
 7    0  0.4750554E-002  0.4552353E+03  0.7546771E-02  0.1026172E+00
         21   -1    0    0  502  501  0.00000000000E+00  0.00000000000E+00  0.15012314949E+03  0.15012314949E+03  0.00000000000E+00 0.  1.
         21   -1    0    0  501  502 -0.00000000000E+00 -0.00000000000E+00 -0.34511535087E+03  0.34511535087E+03  0.00000000000E+00 0.  1.
      99926    2    1    2    0    0  0.00000000000E+00  0.00000000000E+00 -0.19499220138E+03  0.49523850036E+03  0.45523533875E+03 0.  0.
      99925    2    3    3    0    0 -0.20678067806E+02  0.42141035797E+02 -0.10250470038E+02  0.26724625316E+03  0.26289168550E+03 0.  0.
         25    1    4    4    0    0  0.80706653486E+01  0.11868811393E+02  0.29870510313E+02  0.12940540873E+03  0.12509000000E+03 0.  0.
         25    1    4    4    0    0 -0.28748733155E+02  0.30272224403E+02 -0.40120980351E+02  0.13784084443E+03  0.12509000000E+03 0.  0.
         25    1    3    3    0    0  0.20678067806E+02 -0.42141035797E+02 -0.18474173134E+03  0.22799224720E+03  0.12509000000E+03 0.  0.
<mgrwt>
<rscale>  2 0.45523534E+03</rscale>
<asrwt>0</asrwt>
<pdfrwt beam="1">  1       21 0.22076934E-01 0.45523534E+03</pdfrwt>
<pdfrwt beam="2">  1       21 0.50752257E-01 0.45523534E+03</pdfrwt>
<totfact> 0.65484051E+04</totfact>
</mgrwt>
</event>
<event>
 7    0  0.4750554E-002  0.4476503E+03  0.7546771E-02  0.1028425E+00
         21   -1    0    0  502  501  0.00000000000E+00  0.00000000000E+00  0.89554817087E+02  0.89554817087E+02  0.00000000000E+00 0. -1.
         21   -1    0    0  501  502 -0.00000000000E+00 -0.00000000000E+00 -0.55940826202E+03  0.55940826202E+03  0.00000000000E+00 0. -1.
      99926    2    1    2    0    0  0.00000000000E+00  0.71054273576E-14 -0.46985344494E+03  0.64896307911E+03  0.44765033042E+03 0.  0.
      99925    2    3    3    0    0 -0.81469827526E+02 -0.58029634366E+02 -0.24624093215E+03  0.37390883858E+03  0.26299895748E+03 0.  0.
         25    1    4    4    0    0 -0.54263160165E+02 -0.68857223841E+02 -0.13988692887E+03  0.20712718024E+03  0.12509000000E+03 0.  0.
         25    1    3    3    0    0  0.81469827526E+02  0.58029634366E+02 -0.22361251278E+03  0.27505424053E+03  0.12509000000E+03 0.  0.
         25    1    4    4    0    0 -0.27206667361E+02  0.10827589475E+02 -0.10635400328E+03  0.16678165833E+03  0.12509000000E+03 0.  0.
<mgrwt>
<rscale>  2 0.44765033E+03</rscale>
<asrwt>0</asrwt>
<pdfrwt beam="1">  1       21 0.13169826E-01 0.44765033E+03</pdfrwt>
<pdfrwt beam="2">  1       21 0.82265920E-01 0.44765033E+03</pdfrwt>
<totfact> 0.59114884E+04</totfact>
</mgrwt>
</event>
<event>
 7    0  0.4750554E-002  0.4526112E+03  0.7546771E-02  0.1026946E+00
         21   -1    0    0  502  501  0.00000000000E+00  0.00000000000E+00  0.25521792806E+03  0.25521792806E+03  0.00000000000E+00 0. -1.
         21   -1    0    0  501  502 -0.00000000000E+00 -0.00000000000E+00 -0.20066861405E+03  0.20066861405E+03  0.00000000000E+00 0. -1.
      99926    2    1    2    0    0  0.71054273576E-14 -0.71054273576E-14  0.54549314015E+02  0.45588654211E+03  0.45261121464E+03 0.  0.
      99925    2    3    3    0    0 -0.63196952181E+02  0.54505656149E+02 -0.38014642143E+02  0.27930705464E+03  0.26382304000E+03 0.  0.
         25    1    3    3    0    0  0.63196952181E+02 -0.54505656149E+02  0.92563956158E+02  0.17657948747E+03  0.12509000000E+03 0.  0.
         25    1    4    4    0    0 -0.58774668576E+02  0.37660159980E+01  0.25527996913E+01  0.13828474041E+03  0.12509000000E+03 0.  0.
         25    1    4    4    0    0 -0.44222836042E+01  0.50739640151E+02 -0.40567441834E+02  0.14102231423E+03  0.12509000000E+03 0.  0.
<mgrwt>
<rscale>  2 0.45261121E+03</rscale>
<asrwt>0</asrwt>
<pdfrwt beam="1">  1       21 0.37532048E-01 0.45261121E+03</pdfrwt>
<pdfrwt beam="2">  1       21 0.29510090E-01 0.45261121E+03</pdfrwt>
<totfact> 0.69801639E+04</totfact>
</mgrwt>
</event>
<event>
 7    0  0.4750554E-002  0.4530367E+03  0.7546771E-02  0.1026820E+00
         21   -1    0    0  502  501  0.00000000000E+00  0.00000000000E+00  0.81363695596E+03  0.81363695596E+03  0.00000000000E+00 0. -1.
         21   -1    0    0  501  502 -0.00000000000E+00 -0.00000000000E+00 -0.63063223426E+02  0.63063223426E+02  0.00000000000E+00 0. -1.
      99926    2    1    2    0    0  0.00000000000E+00  0.00000000000E+00  0.75057373253E+03  0.87670017939E+03  0.45303672761E+03 0.  0.
      99925    2    3    3    0    0  0.10764382089E+03  0.90239298254E+01  0.52278239307E+03  0.59526630453E+03  0.26338549564E+03 0.  0.
         25    1    4    4    0    0  0.43040840928E+02 -0.24140271078E+02  0.31075358939E+03  0.33860089795E+03  0.12509000000E+03 0.  0.
         25    1    3    3    0    0 -0.10764382089E+03 -0.90239298254E+01  0.22779133946E+03  0.28143387486E+03  0.12509000000E+03 0.  0.
         25    1    4    4    0    0  0.64602979959E+02  0.33164200903E+02  0.21202880368E+03  0.25666540658E+03  0.12509000000E+03 0.  0.
<mgrwt>
<rscale>  2 0.45303673E+03</rscale>
<asrwt>0</asrwt>
<pdfrwt beam="1">  1       21 0.11965249E+00 0.45303673E+03</pdfrwt>
<pdfrwt beam="2">  1       21 0.92740039E-02 0.45303673E+03</pdfrwt>
<totfact> 0.44943581E+04</totfact>
</mgrwt>
</event>
<event>
 7    0  0.4750554E-002  0.4543440E+03  0.7546771E-02  0.1026434E+00
         21   -1    0    0  502  501  0.00000000000E+00  0.00000000000E+00  0.38955755255E+03  0.38955755255E+03  0.00000000000E+00 0. -1.
         21   -1    0    0  501  502 -0.00000000000E+00 -0.00000000000E+00 -0.13247625398E+03  0.13247625398E+03  0.00000000000E+00 0. -1.
      99926    2    1    2    0    0  0.00000000000E+00 -0.71054273576E-14  0.25708129858E+03  0.52203380653E+03  0.45434403383E+03 0.  0.
      99925    2    3    3    0    0 -0.99883869759E+02 -0.43259967601E+02  0.19498322436E+03  0.34496915405E+03  0.26293924627E+03 0.  0.
         25    1    3    3    0    0  0.99883869759E+02  0.43259967601E+02  0.62098074215E+02  0.17706465248E+03  0.12509000000E+03 0.  0.
         25    1    4    4    0    0 -0.52042533728E+02  0.11536988520E+02  0.12299233889E+03  0.18334707782E+03  0.12509000000E+03 0.  0.
         25    1    4    4    0    0 -0.47841336031E+02 -0.54796956122E+02  0.71990885475E+02  0.16162207623E+03  0.12509000000E+03 0.  0.
<mgrwt>
<rscale>  2 0.45434403E+03</rscale>
<asrwt>0</asrwt>
<pdfrwt beam="1">  1       21 0.57287875E-01 0.45434403E+03</pdfrwt>
<pdfrwt beam="2">  1       21 0.19481802E-01 0.45434403E+03</pdfrwt>
<totfact> 0.64081554E+04</totfact>
</mgrwt>
</event>
<event>
 7    0  0.4750554E-002  0.4543176E+03  0.7546771E-02  0.1026442E+00
         21   -1    0    0  502  501  0.00000000000E+00  0.00000000000E+00  0.93928631663E+02  0.93928631663E+02  0.00000000000E+00 0. -1.
         21   -1    0    0  501  502 -0.00000000000E+00 -0.00000000000E+00 -0.54936507582E+03  0.54936507582E+03  0.00000000000E+00 0. -1.
      99926    2    1    2    0    0  0.00000000000E+00  0.00000000000E+00 -0.45543644416E+03  0.64329370749E+03  0.45431755350E+03 0.  0.
      99925    2    3    3    0    0 -0.70399947441E+02  0.86716130334E+02 -0.26750241456E+03  0.39141566668E+03  0.26300730497E+03 0.  0.
         25    1    4    4    0    0 -0.21256157499E+02  0.66920120341E+02 -0.95909068693E+02  0.17255777089E+03  0.12509000000E+03 0.  0.
         25    1    4    4    0    0 -0.49143789942E+02  0.19796009993E+02 -0.17159334587E+03  0.21885789579E+03  0.12509000000E+03 0.  0.
         25    1    3    3    0    0  0.70399947441E+02 -0.86716130334E+02 -0.18793402959E+03  0.25187804080E+03  0.12509000000E+03 0.  0.
<mgrwt>
<rscale>  2 0.45431755E+03</rscale>
<asrwt>0</asrwt>
<pdfrwt beam="1">  1       21 0.13813035E-01 0.45431755E+03</pdfrwt>
<pdfrwt beam="2">  1       21 0.80788979E-01 0.45431755E+03</pdfrwt>
<totfact> 0.56392558E+04</totfact>
</mgrwt>
</event>
<event>
 6    0  0.4750554E-002  0.4410866E+03  0.7546771E-02  0.1030414E+00
         21   -1    0    0  502  501  0.00000000000E+00  0.00000000000E+00  0.12122065980E+03  0.12122065980E+03  0.00000000000E+00 0.  1.
         21   -1    0    0  501  502 -0.00000000000E+00 -0.00000000000E+00 -0.40124638194E+03  0.40124638194E+03  0.00000000000E+00 0.  1.
      99926    2    1    2    0    0  0.00000000000E+00  0.00000000000E+00 -0.28002572215E+03  0.52246704174E+03  0.44108661807E+03 0.  0.
         25    1    3    3    0    0  0.69644938087E+02 -0.58704717102E+02 -0.95993115597E+02  0.18209570987E+03  0.12509000000E+03 0.  0.
         25    1    3    3    0    0 -0.72358231897E+02  0.57155503637E+02 -0.13543197896E+03  0.20613537868E+03  0.12509000000E+03 0.  0.
         25    1    3    3    0    0  0.27132938102E+01  0.15492134644E+01 -0.48600627593E+02  0.13423595319E+03  0.12509000000E+03 0.  0.
<mgrwt>
<rscale>  2 0.44108662E+03</rscale>
<asrwt>0</asrwt>
<pdfrwt beam="1">  1       21 0.17826568E-01 0.44108662E+03</pdfrwt>
<pdfrwt beam="2">  1       21 0.59006820E-01 0.44108662E+03</pdfrwt>
<totfact> 0.71254066E+04</totfact>
</mgrwt>
</event>
<event>
 7    0  0.4750554E-002  0.4552448E+03  0.7546771E-02  0.1026169E+00
         21   -1    0    0  502  501  0.00000000000E+00  0.00000000000E+00  0.95085323261E+03  0.95085323261E+03  0.00000000000E+00 0. -1.
         21   -1    0    0  501  502 -0.00000000000E+00 -0.00000000000E+00 -0.54489959009E+02  0.54489959009E+02  0.00000000000E+00 0. -1.
      99926    2    1    2    0    0  0.00000000000E+00  0.00000000000E+00  0.89636327361E+03  0.10053431916E+04  0.45524478545E+03 0.  0.
      99925    2    3    3    0    0 -0.49437085179E+02  0.61058351299E+02  0.38323321484E+03  0.47137492200E+03  0.26297237969E+03 0.  0.
         25    1    4    4    0    0 -0.25435456177E+02  0.50202805133E+02  0.13660971239E+03  0.19358978716E+03  0.12509000000E+03 0.  0.
         25    1    4    4    0    0 -0.24001629002E+02  0.10855546166E+02  0.24662350245E+03  0.27778513484E+03  0.12509000000E+03 0.  0.
         25    1    3    3    0    0  0.49437085179E+02 -0.61058351299E+02  0.51313005877E+03  0.53396826962E+03  0.12509000000E+03 0.  0.
<mgrwt>
<rscale>  2 0.45524479E+03</rscale>
<asrwt>0</asrwt>
<pdfrwt beam="1">  1       21 0.13983135E+00 0.45524479E+03</pdfrwt>
<pdfrwt beam="2">  1       21 0.80132298E-02 0.45524479E+03</pdfrwt>
<totfact> 0.38885224E+04</totfact>
</mgrwt>
</event>
<event>
 7    0  0.4750554E-002  0.4565586E+03  0.7546771E-02  0.1025784E+00
         21   -1    0    0  502  501  0.00000000000E+00  0.00000000000E+00  0.84040369456E+02  0.84040369456E+02  0.00000000000E+00 0. -1.
         21   -1    0    0  501  502 -0.00000000000E+00 -0.00000000000E+00 -0.62007629245E+03  0.62007629245E+03  0.00000000000E+00 0. -1.
      99926    2    1    2    0    0  0.00000000000E+00  0.00000000000E+00 -0.53603592300E+03  0.70411666191E+03  0.45655860832E+03 0.  0.
      99925    2    3    3    0    0 -0.67486192208E+02  0.77365061787E+02 -0.41508963321E+03  0.50208881225E+03  0.26316160978E+03 0.  0.
         25    1    4    4    0    0 -0.58832163843E+02  0.49168834590E+02 -0.16421982178E+03  0.22021456755E+03  0.12509000000E+03 0.  0.
         25    1    3    3    0    0  0.67486192208E+02 -0.77365061787E+02 -0.12094628978E+03  0.20202784965E+03  0.12509000000E+03 0.  0.
         25    1    4    4    0    0 -0.86540283648E+01  0.28196227197E+02 -0.25086981144E+03  0.28187424470E+03  0.12509000000E+03 0.  0.
<mgrwt>
<rscale>  2 0.45655861E+03</rscale>
<asrwt>0</asrwt>
<pdfrwt beam="1">  1       21 0.12358878E-01 0.45655861E+03</pdfrwt>
<pdfrwt beam="2">  1       21 0.91187689E-01 0.45655861E+03</pdfrwt>
<totfact> 0.52038837E+04</totfact>
</mgrwt>
</event>
<event>
 7    0  0.4750554E-002  0.4591954E+03  0.7546771E-02  0.1025015E+00
         21   -1    0    0  502  501  0.00000000000E+00  0.00000000000E+00  0.31656249629E+03  0.31656249629E+03  0.00000000000E+00 0.  1.
         21   -1    0    0  501  502 -0.00000000000E+00 -0.00000000000E+00 -0.16652355383E+03  0.16652355383E+03  0.00000000000E+00 0.  1.
      99926    2    1    2    0    0  0.00000000000E+00  0.00000000000E+00  0.15003894246E+03  0.48308605012E+03  0.45919543505E+03 0.  0.
      99925    2    3    3    0    0 -0.11285614694E+02  0.11648303925E+03  0.88648155365E+02  0.30111901912E+03  0.26290398379E+03 0.  0.
         25    1    4    4    0    0 -0.85854392321E+01  0.46408756651E+02  0.22869898340E+01  0.13371694314E+03  0.12509000000E+03 0.  0.
         25    1    3    3    0    0  0.11285614694E+02 -0.11648303925E+03  0.61390787100E+02  0.18196703101E+03  0.12509000000E+03 0.  0.
         25    1    4    4    0    0 -0.27001754621E+01  0.70074282600E+02  0.86361165531E+02  0.16740207598E+03  0.12509000000E+03 0.  0.
<mgrwt>
<rscale>  2 0.45919544E+03</rscale>
<asrwt>0</asrwt>
<pdfrwt beam="1">  1       21 0.46553308E-01 0.45919544E+03</pdfrwt>
<pdfrwt beam="2">  1       21 0.24488758E-01 0.45919544E+03</pdfrwt>
<totfact> 0.64307751E+04</totfact>
</mgrwt>
</event>
<event>
 7    0  0.4750554E-002  0.4667087E+03  0.7546771E-02  0.1022853E+00
         21   -1    0    0  502  501  0.00000000000E+00  0.00000000000E+00  0.34637053750E+02  0.34637053750E+02  0.00000000000E+00 0. -1.
         21   -1    0    0  501  502 -0.00000000000E+00 -0.00000000000E+00 -0.15721390361E+04  0.15721390361E+04  0.00000000000E+00 0. -1.
      99926    2    1    2    0    0  0.00000000000E+00  0.00000000000E+00 -0.15375019823E+04  0.16067760898E+04  0.46670874984E+03 0.  0.
      99925    2    3    3    0    0 -0.42633333969E+02 -0.10887988710E+03 -0.81661123901E+03  0.86582845141E+03  0.26293071447E+03 0.  0.
         25    1    4    4    0    0 -0.29120190872E+02 -0.81965585790E+02 -0.34835566595E+03  0.38021772824E+03  0.12509000000E+03 0.  0.
         25    1    3    3    0    0  0.42633333969E+02  0.10887988710E+03 -0.72089074332E+03  0.74094763842E+03  0.12509000000E+03 0.  0.
         25    1    4    4    0    0 -0.13513143098E+02 -0.26914301308E+02 -0.46825557306E+03  0.48561072317E+03  0.12509000000E+03 0.  0.
<mgrwt>
<rscale>  2 0.46670875E+03</rscale>
<asrwt>0</asrwt>
<pdfrwt beam="1">  1       21 0.50936852E-02 0.46670875E+03</pdfrwt>
<pdfrwt beam="2">  1       21 0.23119688E+00 0.46670875E+03</pdfrwt>
<totfact> 0.19448001E+04</totfact>
</mgrwt>
</event>
<event>
 7    0  0.4750554E-002  0.4557017E+03  0.7546771E-02  0.1026035E+00
         21   -1    0    0  502  501  0.00000000000E+00  0.00000000000E+00  0.29515225198E+03  0.29515225198E+03  0.00000000000E+00 0. -1.
         21   -1    0    0  501  502 -0.00000000000E+00 -0.00000000000E+00 -0.17589571142E+03  0.17589571142E+03  0.00000000000E+00 0. -1.
      99926    2    1    2    0    0  0.17763568394E-14  0.00000000000E+00  0.11925654056E+03  0.47104796340E+03  0.45570172412E+03 0.  0.
      99925    2    3    3    0    0  0.12401156684E+02  0.10320081467E+03  0.27649741970E+02  0.28438379844E+03  0.26325926336E+03 0.  0.
         25    1    3    3    0    0 -0.12401156684E+02 -0.10320081467E+03  0.91606798586E+02  0.18666416497E+03  0.12509000000E+03 0.  0.
         25    1    4    4    0    0  0.30482939384E+02  0.17092157668E+02  0.18300656320E+02  0.13116315629E+03  0.12509000000E+03 0.  0.
         25    1    4    4    0    0 -0.18081782700E+02  0.86108657002E+02  0.93490856499E+01  0.15322064214E+03  0.12509000000E+03 0.  0.
<mgrwt>
<rscale>  2 0.45570172E+03</rscale>
<asrwt>0</asrwt>
<pdfrwt beam="1">  1       21 0.43404743E-01 0.45570172E+03</pdfrwt>
<pdfrwt beam="2">  1       21 0.25867016E-01 0.45570172E+03</pdfrwt>
<totfact> 0.66984175E+04</totfact>
</mgrwt>
</event>
<event>
 7    0  0.4750554E-002  0.4480448E+03  0.7546771E-02  0.1028307E+00
         21   -1    0    0  502  501  0.00000000000E+00  0.00000000000E+00  0.35809903519E+03  0.35809903519E+03  0.00000000000E+00 0.  1.
         21   -1    0    0  501  502 -0.00000000000E+00 -0.00000000000E+00 -0.14014571599E+03  0.14014571599E+03  0.00000000000E+00 0.  1.
      99926    2    1    2    0    0  0.00000000000E+00  0.00000000000E+00  0.21795331920E+03  0.49824475118E+03  0.44804484455E+03 0.  0.
      99925    2    3    3    0    0  0.21102755425E+02  0.10378017227E+03  0.12718531834E+03  0.31088950433E+03  0.26317395057E+03 0.  0.
         25    1    3    3    0    0 -0.21102755425E+02 -0.10378017227E+03  0.90768000855E+02  0.18735524685E+03  0.12509000000E+03 0.  0.
         25    1    4    4    0    0  0.12646615078E+02  0.91918120165E+02  0.88566098897E+02  0.17916567657E+03  0.12509000000E+03 0.  0.
         25    1    4    4    0    0  0.84561403471E+01  0.11862052103E+02  0.38619219445E+02  0.13172382776E+03  0.12509000000E+03 0.  0.
<mgrwt>
<rscale>  2 0.44804484E+03</rscale>
<asrwt>0</asrwt>
<pdfrwt beam="1">  1       21 0.52661623E-01 0.44804484E+03</pdfrwt>
<pdfrwt beam="2">  1       21 0.20609664E-01 0.44804484E+03</pdfrwt>
<totfact> 0.69132723E+04</totfact>
</mgrwt>
</event>
<event>
 7    0  0.4750554E-002  0.4673374E+03  0.7546771E-02  0.1022674E+00
         21   -1    0    0  502  501  0.00000000000E+00  0.00000000000E+00  0.15650644431E+03  0.15650644431E+03  0.00000000000E+00 0. -1.
         21   -1    0    0  501  502 -0.00000000000E+00 -0.00000000000E+00 -0.34887413925E+03  0.34887413925E+03  0.00000000000E+00 0. -1.
      99926    2    1    2    0    0  0.00000000000E+00  0.00000000000E+00 -0.19236769493E+03  0.50538058356E+03  0.46733735586E+03 0.  0.
      99925    2    3    3    0    0 -0.53624364170E+02 -0.45776407815E+02 -0.23062699425E+03  0.35677932505E+03  0.26292893405E+03 0.  0.
         25    1    4    4    0    0 -0.34614969795E+01 -0.53323144023E+02 -0.13254325909E+03  0.18992251915E+03  0.12509000000E+03 0.  0.
         25    1    3    3    0    0  0.53624364170E+02  0.45776407815E+02  0.38259299320E+02  0.14860125851E+03  0.12509000000E+03 0.  0.
         25    1    4    4    0    0 -0.50162867191E+02  0.75467362082E+01 -0.98083735166E+02  0.16685680590E+03  0.12509000000E+03 0.  0.
<mgrwt>
<rscale>  2 0.46733736E+03</rscale>
<asrwt>0</asrwt>
<pdfrwt beam="1">  1       21 0.23015654E-01 0.46733736E+03</pdfrwt>
<pdfrwt beam="2">  1       21 0.51305020E-01 0.46733736E+03</pdfrwt>
<totfact> 0.58910004E+04</totfact>
</mgrwt>
</event>
<event>
 7    0  0.4750554E-002  0.4527616E+03  0.7546771E-02  0.1026902E+00
         21   -1    0    0  502  501  0.00000000000E+00  0.00000000000E+00  0.62895505592E+02  0.62895505592E+02  0.00000000000E+00 0. -1.
         21   -1    0    0  501  502 -0.00000000000E+00 -0.00000000000E+00 -0.81481596395E+03  0.81481596395E+03  0.00000000000E+00 0. -1.
      99926    2    1    2    0    0  0.00000000000E+00  0.14210854715E-13 -0.75192045836E+03  0.87771146954E+03  0.45276157972E+03 0.  0.
      99925    2    3    3    0    0 -0.32901686081E+02  0.99146390465E+02 -0.40132656903E+03  0.49109006426E+03  0.26304735033E+03 0.  0.
         25    1    4    4    0    0 -0.16366525402E+02  0.23432003663E+02 -0.13139682456E+03  0.18365607954E+03  0.12509000000E+03 0.  0.
         25    1    4    4    0    0 -0.16535160679E+02  0.75714386802E+02 -0.26992974448E+03  0.30743398472E+03  0.12509000000E+03 0.  0.
         25    1    3    3    0    0  0.32901686081E+02 -0.99146390465E+02 -0.35059388932E+03  0.38662140528E+03  0.12509000000E+03 0.  0.
<mgrwt>
<rscale>  2 0.45276158E+03</rscale>
<asrwt>0</asrwt>
<pdfrwt beam="1">  1       21 0.92493384E-02 0.45276158E+03</pdfrwt>
<pdfrwt beam="2">  1       21 0.11982589E+00 0.45276158E+03</pdfrwt>
<totfact> 0.44995098E+04</totfact>
</mgrwt>
</event>
<event>
 7    0  0.4750554E-002  0.4330758E+03  0.7546771E-02  0.1032893E+00
         21   -1    0    0  502  501  0.00000000000E+00  0.00000000000E+00  0.27202487215E+03  0.27202487215E+03  0.00000000000E+00 0. -1.
         21   -1    0    0  501  502 -0.00000000000E+00 -0.00000000000E+00 -0.17236900222E+03  0.17236900222E+03  0.00000000000E+00 0. -1.
      99926    2    1    2    0    0  0.00000000000E+00  0.14210854715E-13  0.99655869934E+02  0.44439387437E+03  0.43307577070E+03 0.  0.
      99925    2    3    3    0    0 -0.19679505552E+02  0.86023111239E+02  0.87275308491E+02  0.29080987453E+03  0.26299457228E+03 0.  0.
         25    1    4    4    0    0 -0.20669684120E+02  0.83498738882E+02  0.39374880807E+02  0.15683483215E+03  0.12509000000E+03 0.  0.
         25    1    4    4    0    0  0.99017856768E+00  0.25243723566E+01  0.47900427683E+02  0.13397504238E+03  0.12509000000E+03 0.  0.
         25    1    3    3    0    0  0.19679505552E+02 -0.86023111239E+02  0.12380561443E+02  0.15358399984E+03  0.12509000000E+03 0.  0.
<mgrwt>
<rscale>  2 0.43307577E+03</rscale>
<asrwt>0</asrwt>
<pdfrwt beam="1">  1       21 0.40003658E-01 0.43307577E+03</pdfrwt>
<pdfrwt beam="2">  1       21 0.25348383E-01 0.43307577E+03</pdfrwt>
<totfact> 0.82891974E+04</totfact>
</mgrwt>
</event>
<event>
 6    0  0.4750554E-002  0.4533616E+03  0.7546771E-02  0.1026724E+00
         21   -1    0    0  502  501  0.00000000000E+00  0.00000000000E+00  0.32725987701E+03  0.32725987701E+03  0.00000000000E+00 0. -1.
         21   -1    0    0  501  502 -0.00000000000E+00 -0.00000000000E+00 -0.15701339840E+03  0.15701339840E+03  0.00000000000E+00 0. -1.
      99926    2    1    2    0    0 -0.17763568394E-14  0.00000000000E+00  0.17024647861E+03  0.48427327540E+03  0.45336160158E+03 0.  0.
         25    1    3    3    0    0  0.75476661151E+01  0.41676004193E+02  0.16914532377E+03  0.21459614452E+03  0.12509000000E+03 0.  0.
         25    1    3    3    0    0 -0.22794501024E+02 -0.53990653888E+02  0.26191603274E+02  0.14059903331E+03  0.12509000000E+03 0.  0.
         25    1    3    3    0    0  0.15246834909E+02  0.12314649695E+02 -0.25090448432E+02  0.12907809758E+03  0.12509000000E+03 0.  0.
<mgrwt>
<rscale>  2 0.45336160E+03</rscale>
<asrwt>0</asrwt>
<pdfrwt beam="1">  1       21 0.48126452E-01 0.45336160E+03</pdfrwt>
<pdfrwt beam="2">  1       21 0.23090206E-01 0.45336160E+03</pdfrwt>
<totfact> 0.67260896E+04</totfact>
</mgrwt>
</event>
<event>
 7    0  0.4750554E-002  0.4558444E+03  0.7546771E-02  0.1025993E+00
         21   -1    0    0  502  501  0.00000000000E+00  0.00000000000E+00  0.14110106469E+03  0.14110106469E+03  0.00000000000E+00 0. -1.
         21   -1    0    0  501  502 -0.00000000000E+00 -0.00000000000E+00 -0.36816541435E+03  0.36816541435E+03  0.00000000000E+00 0. -1.
      99926    2    1    2    0    0  0.00000000000E+00  0.00000000000E+00 -0.22706434966E+03  0.50926647903E+03  0.45584441181E+03 0.  0.
      99925    2    3    3    0    0  0.81200652519E+02  0.62058025885E+02 -0.86559007657E+02  0.29517770357E+03  0.26304499679E+03 0.  0.
         25    1    4    4    0    0  0.59161004092E+02  0.33322745072E+02 -0.68536366901E+01  0.14249529880E+03  0.12509000000E+03 0.  0.
         25    1    3    3    0    0 -0.81200652519E+02 -0.62058025885E+02 -0.14050534201E+03  0.21408877546E+03  0.12509000000E+03 0.  0.
         25    1    4    4    0    0  0.22039648427E+02  0.28735280813E+02 -0.79705370967E+02  0.15268240477E+03  0.12509000000E+03 0.  0.
<mgrwt>
<rscale>  2 0.45584441E+03</rscale>
<asrwt>0</asrwt>
<pdfrwt beam="1">  1       21 0.20750157E-01 0.45584441E+03</pdfrwt>
<pdfrwt beam="2">  1       21 0.54141972E-01 0.45584441E+03</pdfrwt>
<totfact> 0.64193159E+04</totfact>
</mgrwt>
</event>
<event>
 7    0  0.4750554E-002  0.4499848E+03  0.7546771E-02  0.1027727E+00
         21   -1    0    0  502  501  0.00000000000E+00  0.00000000000E+00  0.44686012459E+03  0.44686012459E+03  0.00000000000E+00 0.  1.
         21   -1    0    0  501  502 -0.00000000000E+00 -0.00000000000E+00 -0.11328282604E+03  0.11328282604E+03  0.00000000000E+00 0.  1.
      99926    2    1    2    0    0  0.00000000000E+00  0.00000000000E+00  0.33357729855E+03  0.56014295064E+03  0.44998478979E+03 0.  0.
      99925    2    3    3    0    0  0.21787313939E+02 -0.23758397299E+02  0.81694652564E+02  0.27706782997E+03  0.26278016983E+03 0.  0.
         25    1    4    4    0    0 -0.58819124440E+01 -0.99126355872E+01  0.21581554613E+01  0.12563846136E+03  0.12509000000E+03 0.  0.
         25    1    3    3    0    0 -0.21787313939E+02  0.23758397299E+02  0.25188264599E+03  0.28307512067E+03  0.12509000000E+03 0.  0.
         25    1    4    4    0    0  0.27669226383E+02 -0.13845761712E+02  0.79536497103E+02  0.15142936861E+03  0.12509000000E+03 0.  0.
<mgrwt>
<rscale>  2 0.44998479E+03</rscale>
<asrwt>0</asrwt>
<pdfrwt beam="1">  1       21 0.65714724E-01 0.44998479E+03</pdfrwt>
<pdfrwt beam="2">  1       21 0.16659239E-01 0.44998479E+03</pdfrwt>
<totfact> 0.63690385E+04</totfact>
</mgrwt>
</event>
<event>
 7    0  0.4750554E-002  0.4562906E+03  0.7546771E-02  0.1025863E+00
         21   -1    0    0  502  501  0.00000000000E+00  0.00000000000E+00  0.25645454698E+03  0.25645454698E+03  0.00000000000E+00 0.  1.
         21   -1    0    0  501  502 -0.00000000000E+00 -0.00000000000E+00 -0.20296103524E+03  0.20296103524E+03  0.00000000000E+00 0.  1.
      99926    2    1    2    0    0  0.00000000000E+00  0.00000000000E+00  0.53493511746E+02  0.45941558222E+03  0.45629061068E+03 0.  0.
      99925    2    3    3    0    0 -0.94761836414E+02 -0.62747929363E+02  0.46788150549E+02  0.29027192065E+03  0.26296682036E+03 0.  0.
         25    1    3    3    0    0  0.94761836414E+02  0.62747929363E+02  0.67053611970E+01  0.16914366157E+03  0.12509000000E+03 0.  0.
         25    1    4    4    0    0 -0.48535481445E+02 -0.37211725558E+02  0.64292975113E+02  0.15336720714E+03  0.12509000000E+03 0.  0.
         25    1    4    4    0    0 -0.46226354969E+02 -0.25536203805E+02 -0.17504824564E+02  0.13690471351E+03  0.12509000000E+03 0.  0.
<mgrwt>
<rscale>  2 0.45629061E+03</rscale>
<asrwt>0</asrwt>
<pdfrwt beam="1">  1       21 0.37713904E-01 0.45629061E+03</pdfrwt>
<pdfrwt beam="2">  1       21 0.29847211E-01 0.45629061E+03</pdfrwt>
<totfact> 0.67525420E+04</totfact>
</mgrwt>
</event>
<event>
 7    0  0.4750554E-002  0.4482039E+03  0.7546771E-02  0.1028259E+00
         21   -1    0    0  502  501  0.00000000000E+00  0.00000000000E+00  0.44650423194E+03  0.44650423194E+03  0.00000000000E+00 0. -1.
         21   -1    0    0  501  502 -0.00000000000E+00 -0.00000000000E+00 -0.11247752943E+03  0.11247752943E+03  0.00000000000E+00 0. -1.
      99926    2    1    2    0    0  0.00000000000E+00  0.00000000000E+00  0.33402670250E+03  0.55898176137E+03  0.44820393970E+03 0.  0.
      99925    2    3    3    0    0 -0.59949539219E+01 -0.12522283379E+02  0.79581964966E+02  0.27511140432E+03  0.26298336180E+03 0.  0.
         25    1    4    4    0    0 -0.78299342243E+01 -0.32227204902E+02  0.72341265990E+02  0.14825878548E+03  0.12509000000E+03 0.  0.
         25    1    4    4    0    0  0.18349803023E+01  0.19704921523E+02  0.72406989763E+01  0.12685261884E+03  0.12509000000E+03 0.  0.
         25    1    3    3    0    0  0.59949539219E+01  0.12522283379E+02  0.25444473754E+03  0.28387035705E+03  0.12509000000E+03 0.  0.
<mgrwt>
<rscale>  2 0.44820394E+03</rscale>
<asrwt>0</asrwt>
<pdfrwt beam="1">  1       21 0.65662386E-01 0.44820394E+03</pdfrwt>
<pdfrwt beam="2">  1       21 0.16540813E-01 0.44820394E+03</pdfrwt>
<totfact> 0.64684597E+04</totfact>
</mgrwt>
</event>
<event>
 7    0  0.4750554E-002  0.4532158E+03  0.7546771E-02  0.1026767E+00
         21   -1    0    0  502  501  0.00000000000E+00  0.00000000000E+00  0.26866249626E+03  0.26866249626E+03  0.00000000000E+00 0. -1.
         21   -1    0    0  501  502 -0.00000000000E+00 -0.00000000000E+00 -0.19113626747E+03  0.19113626747E+03  0.00000000000E+00 0. -1.
      99926    2    1    2    0    0  0.38857805862E-15  0.14210854715E-13  0.77526228790E+02  0.45979876372E+03  0.45321582825E+03 0.  0.
      99925    2    3    3    0    0 -0.20395458833E+00  0.10763097997E+03  0.78251789044E+02  0.29477602595E+03  0.26303059430E+03 0.  0.
         25    1    4    4    0    0  0.12992984890E+02  0.95153647933E+02  0.47208221910E+02  0.16461822101E+03  0.12509000000E+03 0.  0.
         25    1    3    3    0    0  0.20395458833E+00 -0.10763097997E+03 -0.72556025389E+00  0.16502273778E+03  0.12509000000E+03 0.  0.
         25    1    4    4    0    0 -0.13196939478E+02  0.12477332035E+02  0.31043567133E+02  0.13015780494E+03  0.12509000000E+03 0.  0.
<mgrwt>
<rscale>  2 0.45321583E+03</rscale>
<asrwt>0</asrwt>
<pdfrwt beam="1">  1       21 0.39509191E-01 0.45321583E+03</pdfrwt>
<pdfrwt beam="2">  1       21 0.28108275E-01 0.45321583E+03</pdfrwt>
<totfact> 0.69173834E+04</totfact>
</mgrwt>
</event>
<event>
 7    0  0.4750554E-002  0.4544746E+03  0.7546771E-02  0.1026396E+00
         21   -1    0    0  502  501  0.00000000000E+00  0.00000000000E+00  0.94478967673E+03  0.94478967673E+03  0.00000000000E+00 0.  1.
         21   -1    0    0  501  502 -0.00000000000E+00 -0.00000000000E+00 -0.54654270395E+02  0.54654270395E+02  0.00000000000E+00 0.  1.
      99926    2    1    2    0    0  0.14210854715E-13  0.00000000000E+00  0.89013540633E+03  0.99944394712E+03  0.45447459976E+03 0.  0.
      99925    2    3    3    0    0 -0.72925540712E+02  0.51137251121E+02  0.40883855136E+03  0.49424366639E+03  0.26304883150E+03 0.  0.
         25    1    3    3    0    0  0.72925540712E+02 -0.51137251121E+02  0.48129685497E+03  0.50520028073E+03  0.12509000000E+03 0.  0.
         25    1    4    4    0    0 -0.24299732784E+01  0.14261538882E+01  0.20152275201E+03  0.23720637927E+03  0.12509000000E+03 0.  0.
         25    1    4    4    0    0 -0.70495567434E+02  0.49711097233E+02  0.20731579934E+03  0.25703728713E+03  0.12509000000E+03 0.  0.
<mgrwt>
<rscale>  2 0.45447460E+03</rscale>
<asrwt>0</asrwt>
<pdfrwt beam="1">  1       21 0.13893965E+00 0.45447460E+03</pdfrwt>
<pdfrwt beam="2">  1       21 0.80373933E-02 0.45447460E+03</pdfrwt>
<totfact> 0.39349649E+04</totfact>
</mgrwt>
</event>
<event>
 7    0  0.4750554E-002  0.4472314E+03  0.7546771E-02  0.1028551E+00
         21   -1    0    0  502  501  0.00000000000E+00  0.00000000000E+00  0.75528095262E+02  0.75528095262E+02  0.00000000000E+00 0.  1.
         21   -1    0    0  501  502 -0.00000000000E+00 -0.00000000000E+00 -0.66205797071E+03  0.66205797071E+03  0.00000000000E+00 0.  1.
      99926    2    1    2    0    0  0.00000000000E+00  0.00000000000E+00 -0.58652987545E+03  0.73758606597E+03  0.44723138298E+03 0.  0.
      99925    2    3    3    0    0  0.73526710198E+02 -0.74045624476E+02 -0.34038253548E+03  0.44241670325E+03  0.26264679179E+03 0.  0.
         25    1    4    4    0    0  0.49511525110E+02 -0.77286482995E+02 -0.19100452901E+03  0.24607890965E+03  0.12509000000E+03 0.  0.
         25    1    4    4    0    0  0.24015185088E+02  0.32408585193E+01 -0.14937800647E+03  0.19633779360E+03  0.12509000000E+03 0.  0.
         25    1    3    3    0    0 -0.73526710198E+02  0.74045624476E+02 -0.24614733996E+03  0.29516936272E+03  0.12509000000E+03 0.  0.
<mgrwt>
<rscale>  2 0.44723138E+03</rscale>
<asrwt>0</asrwt>
<pdfrwt beam="1">  1       21 0.11107072E-01 0.44723138E+03</pdfrwt>
<pdfrwt beam="2">  1       21 0.97361470E-01 0.44723138E+03</pdfrwt>
<totfact> 0.54141067E+04</totfact>
</mgrwt>
</event>
<event>
 7    0  0.4750554E-002  0.4511608E+03  0.7546771E-02  0.1027376E+00
         21   -1    0    0  502  501  0.00000000000E+00  0.00000000000E+00  0.41446074533E+03  0.41446074533E+03  0.00000000000E+00 0. -1.
         21   -1    0    0  501  502 -0.00000000000E+00 -0.00000000000E+00 -0.12277763539E+03  0.12277763539E+03  0.00000000000E+00 0. -1.
      99926    2    1    2    0    0  0.00000000000E+00  0.71054273576E-14  0.29168310994E+03  0.53723838072E+03  0.45116077079E+03 0.  0.
      99925    2    3    3    0    0  0.69307116009E+02 -0.59047900278E+02  0.11159137357E+03  0.29981329261E+03  0.26295483436E+03 0.  0.
         25    1    4    4    0    0  0.30127117150E+02 -0.69890353550E+02  0.65941010228E+02  0.16058651761E+03  0.12509000000E+03 0.  0.
         25    1    4    4    0    0  0.39179998860E+02  0.10842453272E+02  0.45650363340E+02  0.13922677500E+03  0.12509000000E+03 0.  0.
         25    1    3    3    0    0 -0.69307116009E+02  0.59047900278E+02  0.18009173638E+03  0.23742508812E+03  0.12509000000E+03 0.  0.
<mgrwt>
<rscale>  2 0.45116077E+03</rscale>
<asrwt>0</asrwt>
<pdfrwt beam="1">  1       21 0.60950109E-01 0.45116077E+03</pdfrwt>
<pdfrwt beam="2">  1       21 0.18055535E-01 0.45116077E+03</pdfrwt>
<totfact> 0.64660203E+04</totfact>
</mgrwt>
</event>
<event>
 7    0  0.4750554E-002  0.4426291E+03  0.7546771E-02  0.1029943E+00
         21   -1    0    0  502  501  0.00000000000E+00  0.00000000000E+00  0.86879561828E+03  0.86879561828E+03  0.00000000000E+00 0. -1.
         21   -1    0    0  501  502 -0.00000000000E+00 -0.00000000000E+00 -0.56377055541E+02  0.56377055541E+02  0.00000000000E+00 0. -1.
      99926    2    1    2    0    0  0.71054273576E-14  0.55511151231E-15  0.81241856274E+03  0.92517267382E+03  0.44262913969E+03 0.  0.
      99925    2    3    3    0    0  0.36242161684E+02 -0.36318626474E+00  0.31928250059E+03  0.41512923442E+03  0.26282568348E+03 0.  0.
         25    1    4    4    0    0  0.37103444462E+02  0.34769068264E+02  0.15204298453E+03  0.20334731605E+03  0.12509000000E+03 0.  0.
         25    1    4    4    0    0 -0.86128277775E+00 -0.35132254528E+02  0.16723951606E+03  0.21178191837E+03  0.12509000000E+03 0.  0.
         25    1    3    3    0    0 -0.36242161684E+02  0.36318626474E+00  0.49313606215E+03  0.51004343941E+03  0.12509000000E+03 0.  0.
<mgrwt>
<rscale>  2 0.44262914E+03</rscale>
<asrwt>0</asrwt>
<pdfrwt beam="1">  1       21 0.12776405E+00 0.44262914E+03</pdfrwt>
<pdfrwt beam="2">  1       21 0.82907440E-02 0.44262914E+03</pdfrwt>
<totfact> 0.46502096E+04</totfact>
</mgrwt>
</event>
<event>
 7    0  0.4750554E-002  0.4447389E+03  0.7546771E-02  0.1029303E+00
         21   -1    0    0  502  501  0.00000000000E+00  0.00000000000E+00  0.57452817391E+03  0.57452817391E+03  0.00000000000E+00 0.  1.
         21   -1    0    0  501  502 -0.00000000000E+00 -0.00000000000E+00 -0.86067446428E+02  0.86067446428E+02  0.00000000000E+00 0.  1.
      99926    2    1    2    0    0  0.00000000000E+00 -0.14210854715E-13  0.48846072748E+03  0.66059562034E+03  0.44473890241E+03 0.  0.
      99925    2    3    3    0    0  0.23056932859E+02 -0.98973340371E+02  0.28234580873E+03  0.39895041765E+03  0.26289719622E+03 0.  0.
         25    1    4    4    0    0 -0.48046487489E+01 -0.76625843169E+02  0.11206421460E+03  0.18466320907E+03  0.12509000000E+03 0.  0.
         25    1    3    3    0    0 -0.23056932859E+02  0.98973340371E+02  0.20611491875E+03  0.26164520269E+03  0.12509000000E+03 0.  0.
         25    1    4    4    0    0  0.27861581608E+02 -0.22347497202E+02  0.17028159413E+03  0.21428720858E+03  0.12509000000E+03 0.  0.
<mgrwt>
<rscale>  2 0.44473890E+03</rscale>
<asrwt>0</asrwt>
<pdfrwt beam="1">  1       21 0.84489436E-01 0.44473890E+03</pdfrwt>
<pdfrwt beam="2">  1       21 0.12656978E-01 0.44473890E+03</pdfrwt>
<totfact> 0.59785473E+04</totfact>
</mgrwt>
</event>
<event>
 7    0  0.4750554E-002  0.4651165E+03  0.7546771E-02  0.1023308E+00
         21   -1    0    0  502  501  0.00000000000E+00  0.00000000000E+00  0.14526135112E+03  0.14526135112E+03  0.00000000000E+00 0.  1.
         21   -1    0    0  501  502 -0.00000000000E+00 -0.00000000000E+00 -0.37231739663E+03  0.37231739663E+03  0.00000000000E+00 0.  1.
      99926    2    1    2    0    0  0.14210854715E-13 -0.17763568394E-14 -0.22705604551E+03  0.51757874775E+03  0.46511645028E+03 0.  0.
      99925    2    3    3    0    0 -0.11837944364E+03  0.13084758553E+02 -0.11003664450E+03  0.30895000597E+03  0.26297745051E+03 0.  0.
         25    1    4    4    0    0 -0.79062541286E+02  0.25900033777E+02 -0.25411171755E+02  0.15236447399E+03  0.12509000000E+03 0.  0.
         25    1    3    3    0    0  0.11837944364E+03 -0.13084758553E+02 -0.11701940101E+03  0.20862874178E+03  0.12509000000E+03 0.  0.
         25    1    4    4    0    0 -0.39316902351E+02 -0.12815275224E+02 -0.84625472741E+02  0.15658553198E+03  0.12509000000E+03 0.  0.
<mgrwt>
<rscale>  2 0.46511645E+03</rscale>
<asrwt>0</asrwt>
<pdfrwt beam="1">  1       21 0.21361964E-01 0.46511645E+03</pdfrwt>
<pdfrwt beam="2">  1       21 0.54752557E-01 0.46511645E+03</pdfrwt>
<totfact> 0.59158540E+04</totfact>
</mgrwt>
</event>
<event>
 7    0  0.4750554E-002  0.4446695E+03  0.7546771E-02  0.1029324E+00
         21   -1    0    0  502  501  0.00000000000E+00  0.00000000000E+00  0.59466398502E+03  0.59466398502E+03  0.00000000000E+00 0.  1.
         21   -1    0    0  501  502 -0.00000000000E+00 -0.00000000000E+00 -0.83127181850E+02  0.83127181850E+02  0.00000000000E+00 0.  1.
      99926    2    1    2    0    0 -0.17763568394E-14  0.71054273576E-14  0.51153680317E+03  0.67779116687E+03  0.44466950074E+03 0.  0.
      99925    2    3    3    0    0  0.13528473140E+02  0.60965124355E+02  0.45165803865E+03  0.52569665509E+03  0.26165286797E+03 0.  0.
         25    1    4    4    0    0  0.45269860720E+01  0.68669256583E+02  0.25740645971E+03  0.29434937405E+03  0.12509000000E+03 0.  0.
         25    1    3    3    0    0 -0.13528473140E+02 -0.60965124355E+02  0.59878764513E+02  0.15209451178E+03  0.12509000000E+03 0.  0.
         25    1    4    4    0    0  0.90014870682E+01 -0.77041322280E+01  0.19425157894E+03  0.23134728104E+03  0.12509000000E+03 0.  0.
<mgrwt>
<rscale>  2 0.44466950E+03</rscale>
<asrwt>0</asrwt>
<pdfrwt beam="1">  1       21 0.87450584E-01 0.44466950E+03</pdfrwt>
<pdfrwt beam="2">  1       21 0.12224586E-01 0.44466950E+03</pdfrwt>
<totfact> 0.58762146E+04</totfact>
</mgrwt>
</event>
<event>
 7    0  0.4750554E-002  0.4561651E+03  0.7546771E-02  0.1025899E+00
         21   -1    0    0  502  501  0.00000000000E+00  0.00000000000E+00  0.16568926298E+03  0.16568926298E+03  0.00000000000E+00 0.  1.
         21   -1    0    0  501  502 -0.00000000000E+00 -0.00000000000E+00 -0.31397122216E+03  0.31397122216E+03  0.00000000000E+00 0.  1.
      99926    2    1    2    0    0 -0.35527136788E-14  0.00000000000E+00 -0.14828195918E+03  0.47966048514E+03  0.45616514727E+03 0.  0.
      99925    2    3    3    0    0  0.21182109580E+02 -0.17745664772E+02  0.23405759881E+02  0.26544617339E+03  0.26296435307E+03 0.  0.
         25    1    4    4    0    0  0.38917134572E+01 -0.48438549934E+02  0.17762781007E+02  0.13536788039E+03  0.12509000000E+03 0.  0.
         25    1    4    4    0    0  0.17290396123E+02  0.30692885161E+02  0.56429788743E+01  0.13007829299E+03  0.12509000000E+03 0.  0.
         25    1    3    3    0    0 -0.21182109580E+02  0.17745664772E+02 -0.17168771906E+03  0.21421431175E+03  0.12509000000E+03 0.  0.
<mgrwt>
<rscale>  2 0.45616515E+03</rscale>
<asrwt>0</asrwt>
<pdfrwt beam="1">  1       21 0.24366068E-01 0.45616515E+03</pdfrwt>
<pdfrwt beam="2">  1       21 0.46172238E-01 0.45616515E+03</pdfrwt>
<totfact> 0.66111303E+04</totfact>
</mgrwt>
</event>
<event>
 7    0  0.4750554E-002  0.4518734E+03  0.7546771E-02  0.1027165E+00
         21   -1    0    0  502  501  0.00000000000E+00  0.00000000000E+00  0.81764969971E+03  0.81764969971E+03  0.00000000000E+00 0.  1.
         21   -1    0    0  501  502 -0.00000000000E+00 -0.00000000000E+00 -0.62431865406E+02  0.62431865406E+02  0.00000000000E+00 0.  1.
      99926    2    1    2    0    0  0.00000000000E+00  0.00000000000E+00  0.75521783430E+03  0.88008156511E+03  0.45187341591E+03 0.  0.
      99925    2    3    3    0    0  0.98164033460E+02  0.15942447528E+02  0.38426961729E+03  0.47617510701E+03  0.26303850414E+03 0.  0.
         25    1    4    4    0    0  0.76722133784E+02  0.25437767114E+02  0.16206647099E+03  0.22010546319E+03  0.12509000000E+03 0.  0.
         25    1    4    4    0    0  0.21441899677E+02 -0.94953195866E+01  0.22220314630E+03  0.25606964381E+03  0.12509000000E+03 0.  0.
         25    1    3    3    0    0 -0.98164033460E+02 -0.15942447528E+02  0.37094821701E+03  0.40390645811E+03  0.12509000000E+03 0.  0.
<mgrwt>
<rscale>  2 0.45187342E+03</rscale>
<asrwt>0</asrwt>
<pdfrwt beam="1">  1       21 0.12024260E+00 0.45187342E+03</pdfrwt>
<pdfrwt beam="2">  1       21 0.91811572E-02 0.45187342E+03</pdfrwt>
<totfact> 0.45202888E+04</totfact>
</mgrwt>
</event>
<event>
 7    0  0.4750554E-002  0.4571207E+03  0.7546771E-02  0.1025620E+00
         21   -1    0    0  502  501  0.00000000000E+00  0.00000000000E+00  0.46603664793E+03  0.46603664793E+03  0.00000000000E+00 0. -1.
         21   -1    0    0  501  502 -0.00000000000E+00 -0.00000000000E+00 -0.11209385009E+03  0.11209385009E+03  0.00000000000E+00 0. -1.
      99926    2    1    2    0    0 -0.28421709430E-13 -0.71054273576E-14  0.35394279783E+03  0.57813049802E+03  0.45712073744E+03 0.  0.
      99925    2    3    3    0    0  0.11049217000E+03  0.33460470128E+02  0.21220697289E+03  0.35662502435E+03  0.26233849499E+03 0.  0.
         25    1    4    4    0    0  0.20299001710E+02  0.36577721311E+02  0.10803512470E+03  0.17049655550E+03  0.12509000000E+03 0.  0.
         25    1    4    4    0    0  0.90193168293E+02 -0.31172511836E+01  0.10417184819E+03  0.18612846885E+03  0.12509000000E+03 0.  0.
         25    1    3    3    0    0 -0.11049217000E+03 -0.33460470128E+02  0.14173582495E+03  0.22150547367E+03  0.12509000000E+03 0.  0.
<mgrwt>
<rscale>  2 0.45712074E+03</rscale>
<asrwt>0</asrwt>
<pdfrwt beam="1">  1       21 0.68534801E-01 0.45712074E+03</pdfrwt>
<pdfrwt beam="2">  1       21 0.16484390E-01 0.45712074E+03</pdfrwt>
<totfact> 0.59048689E+04</totfact>
</mgrwt>
</event>
<event>
 7    0  0.4750554E-002  0.4563202E+03  0.7546771E-02  0.1025854E+00
         21   -1    0    0  502  501  0.00000000000E+00  0.00000000000E+00  0.27070915778E+03  0.27070915778E+03  0.00000000000E+00 0.  1.
         21   -1    0    0  501  502 -0.00000000000E+00 -0.00000000000E+00 -0.19229872516E+03  0.19229872516E+03  0.00000000000E+00 0.  1.
      99926    2    1    2    0    0  0.00000000000E+00  0.00000000000E+00  0.78410432619E+02  0.46300788294E+03  0.45632017677E+03 0.  0.
      99925    2    3    3    0    0  0.41062606397E+02 -0.14745015542E+02 -0.57216837861E+02  0.27341405993E+03  0.26377628496E+03 0.  0.
         25    1    4    4    0    0  0.15790342930E+02 -0.14886713503E+02 -0.70308860872E+02  0.14512681760E+03  0.12509000000E+03 0.  0.
         25    1    3    3    0    0 -0.41062606397E+02  0.14745015542E+02  0.13562727048E+03  0.18959382301E+03  0.12509000000E+03 0.  0.
         25    1    4    4    0    0  0.25272263466E+02  0.14169796168E+00  0.13092023012E+02  0.12828724233E+03  0.12509000000E+03 0.  0.
<mgrwt>
<rscale>  2 0.45632018E+03</rscale>
<asrwt>0</asrwt>
<pdfrwt beam="1">  1       21 0.39810170E-01 0.45632018E+03</pdfrwt>
<pdfrwt beam="2">  1       21 0.28279224E-01 0.45632018E+03</pdfrwt>
<totfact> 0.67249697E+04</totfact>
</mgrwt>
</event>
<event>
 7    0  0.4750554E-002  0.4363194E+03  0.7546771E-02  0.1031882E+00
         21   -1    0    0  502  501  0.00000000000E+00  0.00000000000E+00  0.59884654690E+02  0.59884654690E+02  0.00000000000E+00 0.  1.
         21   -1    0    0  501  502 -0.00000000000E+00 -0.00000000000E+00 -0.79475551960E+03  0.79475551960E+03  0.00000000000E+00 0.  1.
      99926    2    1    2    0    0 -0.17763568394E-14  0.00000000000E+00 -0.73487086491E+03  0.85464017429E+03  0.43631942361E+03 0.  0.
      99925    2    3    3    0    0  0.21981518402E+01  0.51520667327E+02 -0.62518779680E+03  0.68046470368E+03  0.26365359973E+03 0.  0.
         25    1    4    4    0    0 -0.26828507497E+02  0.62576192242E+01 -0.36468611004E+03  0.38652605807E+03  0.12509000000E+03 0.  0.
         25    1    4    4    0    0  0.29026659338E+02  0.45263048103E+02 -0.26050168676E+03  0.29393864561E+03  0.12509000000E+03 0.  0.
         25    1    3    3    0    0 -0.21981518402E+01 -0.51520667327E+02 -0.10968306811E+03  0.17417547061E+03  0.12509000000E+03 0.  0.
<mgrwt>
<rscale>  2 0.43631942E+03</rscale>
<asrwt>0</asrwt>
<pdfrwt beam="1">  1       21 0.88065675E-02 0.43631942E+03</pdfrwt>
<pdfrwt beam="2">  1       21 0.11687580E+00 0.43631942E+03</pdfrwt>
<totfact> 0.52514024E+04</totfact>
</mgrwt>
</event>
<event>
 7    0  0.4750554E-002  0.4530831E+03  0.7546771E-02  0.1026807E+00
         21   -1    0    0  502  501  0.00000000000E+00  0.00000000000E+00  0.83927516310E+02  0.83927516310E+02  0.00000000000E+00 0. -1.
         21   -1    0    0  501  502 -0.00000000000E+00 -0.00000000000E+00 -0.61149275229E+03  0.61149275229E+03  0.00000000000E+00 0. -1.
      99926    2    1    2    0    0  0.00000000000E+00 -0.14210854715E-13 -0.52756523598E+03  0.69542026860E+03  0.45308307380E+03 0.  0.
      99925    2    3    3    0    0  0.79585759383E+02  0.74617537961E+02 -0.36506410811E+03  0.46313640191E+03  0.26329043596E+03 0.  0.
         25    1    4    4    0    0  0.59440564995E+02  0.31886951349E+01 -0.19765997143E+03  0.24137174845E+03  0.12509000000E+03 0.  0.
         25    1    3    3    0    0 -0.79585759383E+02 -0.74617537961E+02 -0.16250112786E+03  0.23228386669E+03  0.12509000000E+03 0.  0.
         25    1    4    4    0    0  0.20145194388E+02  0.71428842826E+02 -0.16740413669E+03  0.22176465346E+03  0.12509000000E+03 0.  0.
<mgrwt>
<rscale>  2 0.45308307E+03</rscale>
<asrwt>0</asrwt>
<pdfrwt beam="1">  1       21 0.12342282E-01 0.45308307E+03</pdfrwt>
<pdfrwt beam="2">  1       21 0.89925406E-01 0.45308307E+03</pdfrwt>
<totfact> 0.53961899E+04</totfact>
</mgrwt>
</event>
<event>
 7    0  0.4750554E-002  0.4503956E+03  0.7546771E-02  0.1027604E+00
         21   -1    0    0  502  501  0.00000000000E+00  0.00000000000E+00  0.60946326790E+02  0.60946326790E+02  0.00000000000E+00 0.  1.
         21   -1    0    0  501  502 -0.00000000000E+00 -0.00000000000E+00 -0.83211010100E+03  0.83211010100E+03  0.00000000000E+00 0.  1.
      99926    2    1    2    0    0  0.14210854715E-13  0.28421709430E-13 -0.77116377421E+03  0.89305642779E+03  0.45039562227E+03 0.  0.
      99925    2    3    3    0    0  0.42892252811E+02  0.85497603424E+02 -0.59045273093E+03  0.65336167439E+03  0.26286396589E+03 0.  0.
         25    1    3    3    0    0 -0.42892252811E+02 -0.85497603424E+02 -0.18071104329E+03  0.23969475340E+03  0.12509000000E+03 0.  0.
         25    1    4    4    0    0  0.72832320121E+01  0.27165308782E+01 -0.25175542765E+03  0.28122718301E+03  0.12509000000E+03 0.  0.
         25    1    4    4    0    0  0.35609020799E+02  0.82781072546E+02 -0.33869730327E+03  0.37213449138E+03  0.12509000000E+03 0.  0.
<mgrwt>
<rscale>  2 0.45039562E+03</rscale>
<asrwt>0</asrwt>
<pdfrwt beam="1">  1       21 0.89626951E-02 0.45039562E+03</pdfrwt>
<pdfrwt beam="2">  1       21 0.12236913E+00 0.45039562E+03</pdfrwt>
<totfact> 0.45140868E+04</totfact>
</mgrwt>
</event>
<event>
 7    0  0.4750554E-002  0.4535342E+03  0.7546771E-02  0.1026673E+00
         21   -1    0    0  502  501  0.00000000000E+00  0.00000000000E+00  0.52933037503E+02  0.52933037503E+02  0.00000000000E+00 0. -1.
         21   -1    0    0  501  502 -0.00000000000E+00 -0.00000000000E+00 -0.97147869611E+03  0.97147869611E+03  0.00000000000E+00 0. -1.
      99926    2    1    2    0    0  0.00000000000E+00  0.00000000000E+00 -0.91854565861E+03  0.10244117336E+04  0.45353420270E+03 0.  0.
      99925    2    3    3    0    0 -0.49623386176E+02 -0.77304082392E+02 -0.43498117134E+03  0.51655297071E+03  0.26302081765E+03 0.  0.
         25    1    4    4    0    0  0.10962856805E+02 -0.44003544421E+02 -0.17453948945E+03  0.21947217962E+03  0.12509000000E+03 0.  0.
         25    1    3    3    0    0  0.49623386176E+02  0.77304082392E+02 -0.48356448727E+03  0.50785876290E+03  0.12509000000E+03 0.  0.
         25    1    4    4    0    0 -0.60586242981E+02 -0.33300537971E+02 -0.26044168189E+03  0.29708079109E+03  0.12509000000E+03 0.  0.
<mgrwt>
<rscale>  2 0.45353420E+03</rscale>
<asrwt>0</asrwt>
<pdfrwt beam="1">  1       21 0.77842700E-02 0.45353420E+03</pdfrwt>
<pdfrwt beam="2">  1       21 0.14286452E+00 0.45353420E+03</pdfrwt>
<totfact> 0.38671195E+04</totfact>
</mgrwt>
</event>
<event>
 7    0  0.4750554E-002  0.4598366E+03  0.7546771E-02  0.1024829E+00
         21   -1    0    0  502  501  0.00000000000E+00  0.00000000000E+00  0.36874714354E+02  0.36874714354E+02  0.00000000000E+00 0. -1.
         21   -1    0    0  501  502 -0.00000000000E+00 -0.00000000000E+00 -0.14335681200E+04  0.14335681200E+04  0.00000000000E+00 0. -1.
      99926    2    1    2    0    0  0.00000000000E+00 -0.44408920985E-15 -0.13966934057E+04  0.14704428344E+04  0.45983655763E+03 0.  0.
      99925    2    3    3    0    0  0.86407850592E+02 -0.23547646541E+01 -0.61982176532E+03  0.67883124071E+03  0.26298473536E+03 0.  0.
         25    1    3    3    0    0 -0.86407850592E+02  0.23547646541E+01 -0.77687164036E+03  0.79161159368E+03  0.12509000000E+03 0.  0.
         25    1    4    4    0    0  0.89961345565E+01  0.21948260236E+02 -0.26721009074E+03  0.29599222499E+03  0.12509000000E+03 0.  0.
         25    1    4    4    0    0  0.77411716035E+02 -0.24303024891E+02 -0.35261167459E+03  0.38283901572E+03  0.12509000000E+03 0.  0.
<mgrwt>
<rscale>  2 0.45983656E+03</rscale>
<asrwt>0</asrwt>
<pdfrwt beam="1">  1       21 0.54227512E-02 0.45983656E+03</pdfrwt>
<pdfrwt beam="2">  1       21 0.21081888E+00 0.45983656E+03</pdfrwt>
<totfact> 0.23613186E+04</totfact>
</mgrwt>
</event>
<event>
 7    0  0.4750554E-002  0.4581964E+03  0.7546771E-02  0.1025306E+00
         21   -1    0    0  502  501  0.00000000000E+00  0.00000000000E+00  0.53328148599E+03  0.53328148599E+03  0.00000000000E+00 0. -1.
         21   -1    0    0  501  502 -0.00000000000E+00 -0.00000000000E+00 -0.98420796602E+02  0.98420796602E+02  0.00000000000E+00 0. -1.
      99926    2    1    2    0    0 -0.13322676296E-14 -0.17763568394E-14  0.43486068939E+03  0.63170228259E+03  0.45819641493E+03 0.  0.
      99925    2    3    3    0    0 -0.15395037788E+01 -0.11272503101E+02  0.11333496454E+03  0.28651285744E+03  0.26289801044E+03 0.  0.
         25    1    4    4    0    0 -0.17188893513E+02 -0.15424993529E+02  0.18145845376E+02  0.12849189971E+03  0.12509000000E+03 0.  0.
         25    1    3    3    0    0  0.15395037788E+01  0.11272503101E+02  0.32152572485E+03  0.34518942515E+03  0.12509000000E+03 0.  0.
         25    1    4    4    0    0  0.15649389734E+02  0.41524904279E+01  0.95189119162E+02  0.15802095773E+03  0.12509000000E+03 0.  0.
<mgrwt>
<rscale>  2 0.45819641E+03</rscale>
<asrwt>0</asrwt>
<pdfrwt beam="1">  1       21 0.78423747E-01 0.45819641E+03</pdfrwt>
<pdfrwt beam="2">  1       21 0.14473647E-01 0.45819641E+03</pdfrwt>
<totfact> 0.55358064E+04</totfact>
</mgrwt>
</event>
<event>
 7    0  0.4750554E-002  0.4652289E+03  0.7546771E-02  0.1023276E+00
         21   -1    0    0  502  501  0.00000000000E+00  0.00000000000E+00  0.41641291497E+03  0.41641291497E+03  0.00000000000E+00 0.  1.
         21   -1    0    0  501  502 -0.00000000000E+00 -0.00000000000E+00 -0.12994189071E+03  0.12994189071E+03  0.00000000000E+00 0.  1.
      99926    2    1    2    0    0  0.88817841970E-15  0.00000000000E+00  0.28647102426E+03  0.54635480568E+03  0.46522889630E+03 0.  0.
      99925    2    3    3    0    0  0.74688370282E+01  0.11861872567E+03  0.21412505535E+03  0.35925153761E+03  0.26284204827E+03 0.  0.
         25    1    3    3    0    0 -0.74688370282E+01 -0.11861872567E+03  0.72345968901E+02  0.18710326807E+03  0.12509000000E+03 0.  0.
         25    1    4    4    0    0 -0.36539038325E+02  0.57252508006E+02  0.10420720918E+03  0.17640748720E+03  0.12509000000E+03 0.  0.
         25    1    4    4    0    0  0.44007875353E+02  0.61366217662E+02  0.10991784618E+03  0.18284405041E+03  0.12509000000E+03 0.  0.
<mgrwt>
<rscale>  2 0.46522890E+03</rscale>
<asrwt>0</asrwt>
<pdfrwt beam="1">  1       21 0.61237193E-01 0.46522890E+03</pdfrwt>
<pdfrwt beam="2">  1       21 0.19109102E-01 0.46522890E+03</pdfrwt>
<totfact> 0.57323573E+04</totfact>
</mgrwt>
</event>
<event>
 7    0  0.4750554E-002  0.4662957E+03  0.7546771E-02  0.1022971E+00
         21   -1    0    0  502  501  0.00000000000E+00  0.00000000000E+00  0.19700166534E+03  0.19700166534E+03  0.00000000000E+00 0. -1.
         21   -1    0    0  501  502 -0.00000000000E+00 -0.00000000000E+00 -0.27592614690E+03  0.27592614690E+03  0.00000000000E+00 0. -1.
      99926    2    1    2    0    0  0.35527136788E-14  0.17763568394E-14 -0.78924481566E+02  0.47292781224E+03  0.46629565921E+03 0.  0.
      99925    2    3    3    0    0  0.16025583652E+02  0.13056945296E+02 -0.17264805818E+03  0.31526069434E+03  0.26297271769E+03 0.  0.
         25    1    3    3    0    0 -0.16025583652E+02 -0.13056945296E+02  0.93723576619E+02  0.15766711790E+03  0.12509000000E+03 0.  0.
         25    1    4    4    0    0  0.43278060292E+02 -0.55628650031E+01 -0.10637077155E+03  0.16990051533E+03  0.12509000000E+03 0.  0.
         25    1    4    4    0    0 -0.27252476640E+02  0.18619810299E+02 -0.66277286634E+02  0.14536017901E+03  0.12509000000E+03 0.  0.
<mgrwt>
<rscale>  2 0.46629566E+03</rscale>
<asrwt>0</asrwt>
<pdfrwt beam="1">  1       21 0.28970833E-01 0.46629566E+03</pdfrwt>
<pdfrwt beam="2">  1       21 0.40577374E-01 0.46629566E+03</pdfrwt>
<totfact> 0.61513790E+04</totfact>
</mgrwt>
</event>
<event>
 7    0  0.4750554E-002  0.4616796E+03  0.7546771E-02  0.1024295E+00
         21   -1    0    0  502  501  0.00000000000E+00  0.00000000000E+00  0.14348974609E+03  0.14348974609E+03  0.00000000000E+00 0.  1.
         21   -1    0    0  501  502 -0.00000000000E+00 -0.00000000000E+00 -0.37136453225E+03  0.37136453225E+03  0.00000000000E+00 0.  1.
      99926    2    1    2    0    0  0.00000000000E+00  0.00000000000E+00 -0.22787478615E+03  0.51485427834E+03  0.46167955311E+03 0.  0.
      99925    2    3    3    0    0  0.92463554160E+02  0.73195902231E+02 -0.12222008304E+03  0.31306831911E+03  0.26299595963E+03 0.  0.
         25    1    4    4    0    0  0.67413823463E+02  0.21504427366E+01 -0.64154987868E+02  0.15592504150E+03  0.12509000000E+03 0.  0.
         25    1    4    4    0    0  0.25049730697E+02  0.71045459494E+02 -0.58065095169E+02  0.15714327762E+03  0.12509000000E+03 0.  0.
         25    1    3    3    0    0 -0.92463554160E+02 -0.73195902231E+02 -0.10565470312E+03  0.20178595923E+03  0.12509000000E+03 0.  0.
<mgrwt>
<rscale>  2 0.46167955E+03</rscale>
<asrwt>0</asrwt>
<pdfrwt beam="1">  1       21 0.21101433E-01 0.46167955E+03</pdfrwt>
<pdfrwt beam="2">  1       21 0.54612432E-01 0.46167955E+03</pdfrwt>
<totfact> 0.60943967E+04</totfact>
</mgrwt>
</event>
<event>
 7    0  0.4750554E-002  0.4545329E+03  0.7546771E-02  0.1026379E+00
         21   -1    0    0  502  501  0.00000000000E+00  0.00000000000E+00  0.27384305337E+03  0.27384305337E+03  0.00000000000E+00 0.  1.
         21   -1    0    0  501  502 -0.00000000000E+00 -0.00000000000E+00 -0.18861184020E+03  0.18861184020E+03  0.00000000000E+00 0.  1.
      99926    2    1    2    0    0 -0.14210854715E-13 -0.71054273576E-14  0.85231213163E+02  0.46245489357E+03  0.45453291288E+03 0.  0.
      99925    2    3    3    0    0  0.10259235851E+03  0.37894508166E+02  0.25954089630E+02  0.28603927281E+03  0.26302787885E+03 0.  0.
         25    1    4    4    0    0  0.67893009716E+02  0.11143642130E+02  0.50136029789E+02  0.15131018178E+03  0.12509000000E+03 0.  0.
         25    1    4    4    0    0  0.34699348791E+02  0.26750866036E+02 -0.24181940159E+02  0.13472909103E+03  0.12509000000E+03 0.  0.
         25    1    3    3    0    0 -0.10259235851E+03 -0.37894508166E+02  0.59277123534E+02  0.17641562076E+03  0.12509000000E+03 0.  0.
<mgrwt>
<rscale>  2 0.45453291E+03</rscale>
<asrwt>0</asrwt>
<pdfrwt beam="1">  1       21 0.40271037E-01 0.45453291E+03</pdfrwt>
<pdfrwt beam="2">  1       21 0.27737035E-01 0.45453291E+03</pdfrwt>
<totfact> 0.68252575E+04</totfact>
</mgrwt>
</event>
<event>
 7    0  0.4750554E-002  0.4654779E+03  0.7546771E-02  0.1023204E+00
         21   -1    0    0  502  501  0.00000000000E+00  0.00000000000E+00  0.24431414633E+03  0.24431414633E+03  0.00000000000E+00 0. -1.
         21   -1    0    0  501  502 -0.00000000000E+00 -0.00000000000E+00 -0.22171220720E+03  0.22171220720E+03  0.00000000000E+00 0. -1.
      99926    2    1    2    0    0  0.00000000000E+00  0.71054273576E-14  0.22601939125E+02  0.46602635353E+03  0.46547794205E+03 0.  0.
      99925    2    3    3    0    0 -0.10039787086E+03 -0.56819392641E+02 -0.28011338709E+02  0.28849498209E+03  0.26293828884E+03 0.  0.
         25    1    4    4    0    0 -0.39130480700E+02 -0.54456590209E+02 -0.43204892384E+02  0.14836066043E+03  0.12509000000E+03 0.  0.
         25    1    3    3    0    0  0.10039787086E+03  0.56819392641E+02  0.50613277834E+02  0.17753137145E+03  0.12509000000E+03 0.  0.
         25    1    4    4    0    0 -0.61267390165E+02 -0.23628024323E+01  0.15193553675E+02  0.14013432166E+03  0.12509000000E+03 0.  0.
<mgrwt>
<rscale>  2 0.46547794E+03</rscale>
<asrwt>0</asrwt>
<pdfrwt beam="1">  1       21 0.35928551E-01 0.46547794E+03</pdfrwt>
<pdfrwt beam="2">  1       21 0.32604736E-01 0.46547794E+03</pdfrwt>
<totfact> 0.62366159E+04</totfact>
</mgrwt>
</event>
<event>
 7    0  0.4750554E-002  0.4519649E+03  0.7546771E-02  0.1027138E+00
         21   -1    0    0  502  501  0.00000000000E+00  0.00000000000E+00  0.55415603969E+03  0.55415603969E+03  0.00000000000E+00 0.  1.
         21   -1    0    0  501  502 -0.00000000000E+00 -0.00000000000E+00 -0.92154688924E+02  0.92154688924E+02  0.00000000000E+00 0.  1.
      99926    2    1    2    0    0  0.00000000000E+00 -0.35527136788E-14  0.46200135076E+03  0.64631072861E+03  0.45196494312E+03 0.  0.
      99925    2    3    3    0    0 -0.81232155713E+02 -0.27192468302E+02  0.19245159570E+03  0.33704923406E+03  0.26310924735E+03 0.  0.
         25    1    4    4    0    0 -0.46835099447E+02 -0.48961504341E+02  0.75617079114E+02  0.16110929893E+03  0.12509000000E+03 0.  0.
         25    1    3    3    0    0  0.81232155713E+02  0.27192468302E+02  0.26954975506E+03  0.30926149455E+03  0.12509000000E+03 0.  0.
         25    1    4    4    0    0 -0.34397056265E+02  0.21769036040E+02  0.11683451659E+03  0.17593993514E+03  0.12509000000E+03 0.  0.
<mgrwt>
<rscale>  2 0.45196494E+03</rscale>
<asrwt>0</asrwt>
<pdfrwt beam="1">  1       21 0.81493534E-01 0.45196494E+03</pdfrwt>
<pdfrwt beam="2">  1       21 0.13552160E-01 0.45196494E+03</pdfrwt>
<totfact> 0.57273718E+04</totfact>
</mgrwt>
</event>
<event>
 7    0  0.4750554E-002  0.4483342E+03  0.7546771E-02  0.1028220E+00
         21   -1    0    0  502  501  0.00000000000E+00  0.00000000000E+00  0.60436269914E+03  0.60436269914E+03  0.00000000000E+00 0. -1.
         21   -1    0    0  501  502 -0.00000000000E+00 -0.00000000000E+00 -0.83146923041E+02  0.83146923041E+02  0.00000000000E+00 0. -1.
      99926    2    1    2    0    0  0.00000000000E+00  0.00000000000E+00  0.52121577610E+03  0.68750962218E+03  0.44833424511E+03 0.  0.
      99925    2    3    3    0    0  0.10416027893E+03 -0.13066665600E+02  0.30043372997E+03  0.41289658271E+03  0.26306474574E+03 0.  0.
         25    1    4    4    0    0  0.14689921072E+02  0.70171871524E+01  0.15928621384E+03  0.20318622176E+03  0.12509000000E+03 0.  0.
         25    1    4    4    0    0  0.89470357854E+02 -0.20083852752E+02  0.14114751613E+03  0.20971036094E+03  0.12509000000E+03 0.  0.
         25    1    3    3    0    0 -0.10416027893E+03  0.13066665600E+02  0.22078204613E+03  0.27461303947E+03  0.12509000000E+03 0.  0.
<mgrwt>
<rscale>  2 0.44833425E+03</rscale>
<asrwt>0</asrwt>
<pdfrwt beam="1">  1       21 0.88876865E-01 0.44833425E+03</pdfrwt>
<pdfrwt beam="2">  1       21 0.12227489E-01 0.44833425E+03</pdfrwt>
<totfact> 0.56493160E+04</totfact>
</mgrwt>
</event>
<event>
 7    0  0.4750554E-002  0.4578319E+03  0.7546771E-02  0.1025412E+00
         21   -1    0    0  502  501  0.00000000000E+00  0.00000000000E+00  0.19726012154E+04  0.19726012154E+04  0.00000000000E+00 0. -1.
         21   -1    0    0  501  502 -0.00000000000E+00 -0.00000000000E+00 -0.26565185544E+02  0.26565185544E+02  0.00000000000E+00 0. -1.
      99926    2    1    2    0    0  0.00000000000E+00  0.00000000000E+00  0.19460360298E+04  0.19991664009E+04  0.45783192240E+03 0.  0.
      99925    2    3    3    0    0  0.10757719242E+03 -0.23556176147E+02  0.13793188690E+04  0.14084519232E+04  0.26284697390E+03 0.  0.
         25    1    4    4    0    0  0.34177176538E+02 -0.47229890489E+02  0.67684072156E+03  0.69076740833E+03  0.12509000000E+03 0.  0.
         25    1    3    3    0    0 -0.10757719242E+03  0.23556176147E+02  0.56671716082E+03  0.59071447775E+03  0.12509000000E+03 0.  0.
         25    1    4    4    0    0  0.73400015881E+02  0.23673714342E+02  0.70247814745E+03  0.71768451483E+03  0.12509000000E+03 0.  0.
<mgrwt>
<rscale>  2 0.45783192E+03</rscale>
<asrwt>0</asrwt>
<pdfrwt beam="1">  1       21 0.29008831E+00 0.45783192E+03</pdfrwt>
<pdfrwt beam="2">  1       21 0.39066463E-02 0.45783192E+03</pdfrwt>
<totfact> 0.13425743E+04</totfact>
</mgrwt>
</event>
<event>
 7    0  0.4750554E-002  0.4192041E+03  0.7546771E-02  0.1037326E+00
         21   -1    0    0  502  501  0.00000000000E+00  0.00000000000E+00  0.78551395636E+03  0.78551395636E+03  0.00000000000E+00 0.  1.
         21   -1    0    0  501  502 -0.00000000000E+00 -0.00000000000E+00 -0.55929022740E+02  0.55929022740E+02  0.00000000000E+00 0.  1.
      99926    2    1    2    0    0  0.00000000000E+00  0.71054273576E-14  0.72958493362E+03  0.84144297910E+03  0.41920414086E+03 0.  0.
      99925    2    3    3    0    0 -0.37729751244E+02  0.35846628743E+02  0.58375086790E+03  0.64238620894E+03  0.26303317423E+03 0.  0.
         25    1    4    4    0    0 -0.11314683187E+02  0.55557046413E+02  0.26735775441E+03  0.30056993264E+03  0.12509000000E+03 0.  0.
         25    1    3    3    0    0  0.37729751244E+02 -0.35846628743E+02  0.14583406573E+03  0.19905677016E+03  0.12509000000E+03 0.  0.
         25    1    4    4    0    0 -0.26415068057E+02 -0.19710417670E+02  0.31639311348E+03  0.34181627630E+03  0.12509000000E+03 0.  0.
<mgrwt>
<rscale>  2 0.41920414E+03</rscale>
<asrwt>0</asrwt>
<pdfrwt beam="1">  1       21 0.11551675E+00 0.41920414E+03</pdfrwt>
<pdfrwt beam="2">  1       21 0.82248568E-02 0.41920414E+03</pdfrwt>
<totfact> 0.61307855E+04</totfact>
</mgrwt>
</event>
<event>
 7    0  0.4750554E-002  0.4574497E+03  0.7546771E-02  0.1025523E+00
         21   -1    0    0  502  501  0.00000000000E+00  0.00000000000E+00  0.42568774260E+03  0.42568774260E+03  0.00000000000E+00 0.  1.
         21   -1    0    0  501  502 -0.00000000000E+00 -0.00000000000E+00 -0.12289538063E+03  0.12289538063E+03  0.00000000000E+00 0.  1.
      99926    2    1    2    0    0 -0.35527136788E-14  0.00000000000E+00  0.30279236197E+03  0.54858312323E+03  0.45744970066E+03 0.  0.
      99925    2    3    3    0    0 -0.16050202276E+02 -0.96052376498E+02  0.11572565791E+03  0.30337886574E+03  0.26298790895E+03 0.  0.
         25    1    4    4    0    0 -0.45782212151E+02 -0.35381155150E+02  0.48424210951E+02  0.14608302227E+03  0.12509000000E+03 0.  0.
         25    1    4    4    0    0  0.29732009875E+02 -0.60671221348E+02  0.67301446958E+02  0.15729584347E+03  0.12509000000E+03 0.  0.
         25    1    3    3    0    0  0.16050202276E+02  0.96052376498E+02  0.18706670406E+03  0.24520425749E+03  0.12509000000E+03 0.  0.
<mgrwt>
<rscale>  2 0.45744970E+03</rscale>
<asrwt>0</asrwt>
<pdfrwt beam="1">  1       21 0.62601138E-01 0.45744970E+03</pdfrwt>
<pdfrwt beam="2">  1       21 0.18072850E-01 0.45744970E+03</pdfrwt>
<totfact> 0.60773692E+04</totfact>
</mgrwt>
</event>
<event>
 7    0  0.4750554E-002  0.5092803E+03  0.7546771E-02  0.1011385E+00
         21   -1    0    0  502  501  0.00000000000E+00  0.00000000000E+00  0.46780489454E+03  0.46780489454E+03  0.00000000000E+00 0. -1.
         21   -1    0    0  501  502 -0.00000000000E+00 -0.00000000000E+00 -0.13860823918E+03  0.13860823918E+03  0.00000000000E+00 0. -1.
      99926    2    1    2    0    0  0.00000000000E+00  0.00000000000E+00  0.32919665536E+03  0.60641313372E+03  0.50928032639E+03 0.  0.
      99925    2    3    3    0    0 -0.56245811020E+02 -0.14365055972E+03  0.15433794356E+03  0.34179614304E+03  0.26306905559E+03 0.  0.
         25    1    3    3    0    0  0.56245811020E+02  0.14365055972E+03  0.17485871180E+03  0.26461699068E+03  0.12509000000E+03 0.  0.
         25    1    4    4    0    0 -0.27814206448E+02 -0.66684164439E+02  0.12121135892E+03  0.18857388339E+03  0.12509000000E+03 0.  0.
         25    1    4    4    0    0 -0.28431604573E+02 -0.76966395277E+02  0.33126584641E+02  0.15322225964E+03  0.12509000000E+03 0.  0.
<mgrwt>
<rscale>  2 0.50928033E+03</rscale>
<asrwt>0</asrwt>
<pdfrwt beam="1">  1       21 0.68794837E-01 0.50928033E+03</pdfrwt>
<pdfrwt beam="2">  1       21 0.20383565E-01 0.50928033E+03</pdfrwt>
<totfact> 0.38773167E+04</totfact>
</mgrwt>
</event>
<event>
 7    0  0.4750554E-002  0.4508854E+03  0.7546771E-02  0.1027458E+00
         21   -1    0    0  502  501  0.00000000000E+00  0.00000000000E+00  0.89010397791E+03  0.89010397791E+03  0.00000000000E+00 0.  1.
         21   -1    0    0  501  502 -0.00000000000E+00 -0.00000000000E+00 -0.57099419206E+02  0.57099419206E+02  0.00000000000E+00 0.  1.
      99926    2    1    2    0    0  0.00000000000E+00 -0.14210854715E-13  0.83300455871E+03  0.94720339712E+03  0.45088544076E+03 0.  0.
      99925    2    3    3    0    0  0.35692027292E+02  0.99463499792E+02  0.58477081770E+03  0.64982416638E+03  0.26295936829E+03 0.  0.
         25    1    4    4    0    0 -0.20666386882E+02  0.34317918102E+02  0.26000977009E+03  0.29130294831E+03  0.12509000000E+03 0.  0.
         25    1    3    3    0    0 -0.35692027292E+02 -0.99463499792E+02  0.24823374101E+03  0.29737923074E+03  0.12509000000E+03 0.  0.
         25    1    4    4    0    0  0.56358414174E+02  0.65145581690E+02  0.32476104760E+03  0.35852121807E+03  0.12509000000E+03 0.  0.
<mgrwt>
<rscale>  2 0.45088544E+03</rscale>
<asrwt>0</asrwt>
<pdfrwt beam="1">  1       21 0.13089764E+00 0.45088544E+03</pdfrwt>
<pdfrwt beam="2">  1       21 0.83969739E-02 0.45088544E+03</pdfrwt>
<totfact> 0.42608790E+04</totfact>
</mgrwt>
</event>
<event>
 7    0  0.4750554E-002  0.4526088E+03  0.7546771E-02  0.1026947E+00
         21   -1    0    0  502  501  0.00000000000E+00  0.00000000000E+00  0.42632600488E+03  0.42632600488E+03  0.00000000000E+00 0.  1.
         21   -1    0    0  501  502 -0.00000000000E+00 -0.00000000000E+00 -0.12012796263E+03  0.12012796263E+03  0.00000000000E+00 0.  1.
      99926    2    1    2    0    0  0.00000000000E+00 -0.71054273576E-14  0.30619804226E+03  0.54645396751E+03  0.45260876873E+03 0.  0.
      99925    2    3    3    0    0  0.96856739825E+02  0.47971735563E+02  0.22662921338E+03  0.36298401877E+03  0.26213371028E+03 0.  0.
         25    1    4    4    0    0  0.27437378462E+02 -0.77367828393E+01  0.12317772906E+03  0.17785648311E+03  0.12509000000E+03 0.  0.
         25    1    4    4    0    0  0.69419361363E+02  0.55708518402E+02  0.10345148432E+03  0.18512753567E+03  0.12509000000E+03 0.  0.
         25    1    3    3    0    0 -0.96856739825E+02 -0.47971735563E+02  0.79568828873E+02  0.18346994874E+03  0.12509000000E+03 0.  0.
<mgrwt>
<rscale>  2 0.45260877E+03</rscale>
<asrwt>0</asrwt>
<pdfrwt beam="1">  1       21 0.62695000E-01 0.45260877E+03</pdfrwt>
<pdfrwt beam="2">  1       21 0.17665877E-01 0.45260877E+03</pdfrwt>
<totfact> 0.63290480E+04</totfact>
</mgrwt>
</event>
<event>
 7    0  0.4750554E-002  0.4539279E+03  0.7546771E-02  0.1026557E+00
         21   -1    0    0  502  501  0.00000000000E+00  0.00000000000E+00  0.18946523146E+03  0.18946523146E+03  0.00000000000E+00 0. -1.
         21   -1    0    0  501  502 -0.00000000000E+00 -0.00000000000E+00 -0.27188439579E+03  0.27188439579E+03  0.00000000000E+00 0. -1.
      99926    2    1    2    0    0  0.17763568394E-14  0.14210854715E-13 -0.82419164326E+02  0.46134962725E+03  0.45392792370E+03 0.  0.
      99925    2    3    3    0    0  0.96156188659E+01  0.10976211271E+03 -0.73408056537E+02  0.29440984866E+03  0.26296051930E+03 0.  0.
         25    1    3    3    0    0 -0.96156188659E+01 -0.10976211271E+03 -0.90111077885E+01  0.16693977859E+03  0.12509000000E+03 0.  0.
         25    1    4    4    0    0  0.23497886827E+01  0.19942378396E+02 -0.58427892690E+02  0.13951539953E+03  0.12509000000E+03 0.  0.
         25    1    4    4    0    0  0.72658301832E+01  0.89819734311E+02 -0.14980163847E+02  0.15489444912E+03  0.12509000000E+03 0.  0.
<mgrwt>
<rscale>  2 0.45392792E+03</rscale>
<asrwt>0</asrwt>
<pdfrwt beam="1">  1       21 0.27862534E-01 0.45392792E+03</pdfrwt>
<pdfrwt beam="2">  1       21 0.39982999E-01 0.45392792E+03</pdfrwt>
<totfact> 0.68665284E+04</totfact>
</mgrwt>
</event>
<event>
 7    0  0.4750554E-002  0.4508869E+03  0.7546771E-02  0.1027458E+00
         21   -1    0    0  502  501  0.00000000000E+00  0.00000000000E+00  0.27178156469E+03  0.27178156469E+03  0.00000000000E+00 0. -1.
         21   -1    0    0  501  502 -0.00000000000E+00 -0.00000000000E+00 -0.18700588225E+03  0.18700588225E+03  0.00000000000E+00 0. -1.
      99926    2    1    2    0    0  0.00000000000E+00 -0.14210854715E-13  0.84775682437E+02  0.45878744694E+03  0.45088690947E+03 0.  0.
      99925    2    3    3    0    0  0.74137780015E+02  0.67965371067E+02  0.99931537759E+01  0.28171221778E+03  0.26295666645E+03 0.  0.
         25    1    4    4    0    0  0.71665006832E+02  0.17082068201E+02 -0.83176623966E+01  0.14541101013E+03  0.12509000000E+03 0.  0.
         25    1    4    4    0    0  0.24727731827E+01  0.50883302866E+02  0.18310816173E+02  0.13630120765E+03  0.12509000000E+03 0.  0.
         25    1    3    3    0    0 -0.74137780015E+02 -0.67965371067E+02  0.74782528661E+02  0.17707522916E+03  0.12509000000E+03 0.  0.
<mgrwt>
<rscale>  2 0.45088691E+03</rscale>
<asrwt>0</asrwt>
<pdfrwt beam="1">  1       21 0.39967877E-01 0.45088691E+03</pdfrwt>
<pdfrwt beam="2">  1       21 0.27500865E-01 0.45088691E+03</pdfrwt>
<totfact> 0.70552570E+04</totfact>
</mgrwt>
</event>
<event>
 7    0  0.4750554E-002  0.4617691E+03  0.7546771E-02  0.1024269E+00
         21   -1    0    0  502  501  0.00000000000E+00  0.00000000000E+00  0.16509095401E+03  0.16509095401E+03  0.00000000000E+00 0. -1.
         21   -1    0    0  501  502 -0.00000000000E+00 -0.00000000000E+00 -0.32289885781E+03  0.32289885781E+03  0.00000000000E+00 0. -1.
      99926    2    1    2    0    0  0.00000000000E+00 -0.71054273576E-14 -0.15780790381E+03  0.48798981182E+03  0.46176912190E+03 0.  0.
      99925    2    3    3    0    0  0.77134093701E+02  0.39854759804E+02 -0.18549449642E+03  0.33322506842E+03  0.26285484156E+03 0.  0.
         25    1    3    3    0    0 -0.77134093701E+02 -0.39854759804E+02  0.27686592617E+02  0.15476474340E+03  0.12509000000E+03 0.  0.
         25    1    4    4    0    0  0.18965215046E+02  0.11719777928E+02 -0.46281397066E+02  0.13522761697E+03  0.12509000000E+03 0.  0.
         25    1    4    4    0    0  0.58168878654E+02  0.28134981876E+02 -0.13921309936E+03  0.19799745145E+03  0.12509000000E+03 0.  0.
<mgrwt>
<rscale>  2 0.46176912E+03</rscale>
<asrwt>0</asrwt>
<pdfrwt beam="1">  1       21 0.24278082E-01 0.46176912E+03</pdfrwt>
<pdfrwt beam="2">  1       21 0.47485126E-01 0.46176912E+03</pdfrwt>
<totfact> 0.62686195E+04</totfact>
</mgrwt>
</event>
<event>
 7    0  0.4750554E-002  0.4596645E+03  0.7546771E-02  0.1024879E+00
         21   -1    0    0  502  501  0.00000000000E+00  0.00000000000E+00  0.22184589102E+03  0.22184589102E+03  0.00000000000E+00 0.  1.
         21   -1    0    0  501  502 -0.00000000000E+00 -0.00000000000E+00 -0.23810616546E+03  0.23810616546E+03  0.00000000000E+00 0.  1.
      99926    2    1    2    0    0  0.00000000000E+00 -0.17763568394E-14 -0.16260274445E+02  0.45995205648E+03  0.45966454914E+03 0.  0.
      99925    2    3    3    0    0  0.11726195120E+03  0.60380071726E+01 -0.54685212879E+01  0.28804861624E+03  0.26297391099E+03 0.  0.
         25    1    3    3    0    0 -0.11726195120E+03 -0.60380071726E+01 -0.10791753157E+02  0.17190344024E+03  0.12509000000E+03 0.  0.
         25    1    4    4    0    0  0.43384358898E+02 -0.25403681015E+02  0.22841497180E+02  0.13673621210E+03  0.12509000000E+03 0.  0.
         25    1    4    4    0    0  0.73877592301E+02  0.31441688187E+02 -0.28310018468E+02  0.15131240414E+03  0.12509000000E+03 0.  0.
<mgrwt>
<rscale>  2 0.45966455E+03</rscale>
<asrwt>0</asrwt>
<pdfrwt beam="1">  1       21 0.32624396E-01 0.45966455E+03</pdfrwt>
<pdfrwt beam="2">  1       21 0.35015613E-01 0.45966455E+03</pdfrwt>
<totfact> 0.65704868E+04</totfact>
</mgrwt>
</event>
<event>
 7    0  0.4750554E-002  0.4556785E+03  0.7546771E-02  0.1026042E+00
         21   -1    0    0  502  501  0.00000000000E+00  0.00000000000E+00  0.16979730856E+03  0.16979730856E+03  0.00000000000E+00 0.  1.
         21   -1    0    0  501  502 -0.00000000000E+00 -0.00000000000E+00 -0.30572177360E+03  0.30572177360E+03  0.00000000000E+00 0.  1.
      99926    2    1    2    0    0 -0.35527136788E-14  0.00000000000E+00 -0.13592446503E+03  0.47551908216E+03  0.45567854602E+03 0.  0.
      99925    2    3    3    0    0 -0.23634631586E+02  0.64046931243E+02  0.96634556308E+01  0.27179388501E+03  0.26290288766E+03 0.  0.
         25    1    4    4    0    0 -0.48832988144E+02  0.16799979730E+02  0.10317123666E+02  0.13572343641E+03  0.12509000000E+03 0.  0.
         25    1    3    3    0    0  0.23634631586E+02 -0.64046931243E+02 -0.14558792066E+03  0.20372519715E+03  0.12509000000E+03 0.  0.
         25    1    4    4    0    0  0.25198356559E+02  0.47246951512E+02 -0.65366803494E+00  0.13607044860E+03  0.12509000000E+03 0.  0.
<mgrwt>
<rscale>  2 0.45567855E+03</rscale>
<asrwt>0</asrwt>
<pdfrwt beam="1">  1       21 0.24970193E-01 0.45567855E+03</pdfrwt>
<pdfrwt beam="2">  1       21 0.44959084E-01 0.45567855E+03</pdfrwt>
<totfact> 0.66668036E+04</totfact>
</mgrwt>
</event>
<event>
 7    0  0.4750554E-002  0.4560603E+03  0.7546771E-02  0.1025930E+00
         21   -1    0    0  502  501  0.00000000000E+00  0.00000000000E+00  0.90973198480E+03  0.90973198480E+03  0.00000000000E+00 0. -1.
         21   -1    0    0  501  502 -0.00000000000E+00 -0.00000000000E+00 -0.57157227800E+02  0.57157227800E+02  0.00000000000E+00 0. -1.
      99926    2    1    2    0    0  0.00000000000E+00  0.00000000000E+00  0.85257475700E+03  0.96688921259E+03  0.45606033939E+03 0.  0.
      99925    2    3    3    0    0  0.67445033190E+02 -0.32263077403E+02  0.35298287368E+03  0.44647659108E+03  0.26297280962E+03 0.  0.
         25    1    3    3    0    0 -0.67445033190E+02  0.32263077403E+02  0.49959188331E+03  0.52041262152E+03  0.12509000000E+03 0.  0.
         25    1    4    4    0    0  0.52659068254E+02 -0.51800118323E+02  0.20338083824E+03  0.24993499793E+03  0.12509000000E+03 0.  0.
         25    1    4    4    0    0  0.14785964936E+02  0.19537040920E+02  0.14960203544E+03  0.19654159315E+03  0.12509000000E+03 0.  0.
<mgrwt>
<rscale>  2 0.45606034E+03</rscale>
<asrwt>0</asrwt>
<pdfrwt beam="1">  1       21 0.13378411E+00 0.45606034E+03</pdfrwt>
<pdfrwt beam="2">  1       21 0.84054753E-02 0.45606034E+03</pdfrwt>
<totfact> 0.40130685E+04</totfact>
</mgrwt>
</event>
<event>
 7    0  0.4750554E-002  0.4519089E+03  0.7546771E-02  0.1027154E+00
         21   -1    0    0  502  501  0.00000000000E+00  0.00000000000E+00  0.86408216391E+03  0.86408216391E+03  0.00000000000E+00 0.  1.
         21   -1    0    0  501  502 -0.00000000000E+00 -0.00000000000E+00 -0.59086295549E+02  0.59086295549E+02  0.00000000000E+00 0.  1.
      99926    2    1    2    0    0  0.00000000000E+00  0.00000000000E+00  0.80499586837E+03  0.92316845946E+03  0.45190890284E+03 0.  0.
      99925    2    3    3    0    0 -0.70767320370E+02 -0.42702855765E+02  0.36072917837E+03  0.45428473458E+03  0.26347207142E+03 0.  0.
         25    1    4    4    0    0 -0.52599737562E+02 -0.14311706549E+02  0.12376897661E+03  0.18422221638E+03  0.12509000000E+03 0.  0.
         25    1    4    4    0    0 -0.18167582808E+02 -0.28391149216E+02  0.23696020176E+03  0.27006251820E+03  0.12509000000E+03 0.  0.
         25    1    3    3    0    0  0.70767320370E+02  0.42702855765E+02  0.44426669000E+03  0.46888372489E+03  0.12509000000E+03 0.  0.
<mgrwt>
<rscale>  2 0.45190890E+03</rscale>
<asrwt>0</asrwt>
<pdfrwt beam="1">  1       21 0.12707090E+00 0.45190890E+03</pdfrwt>
<pdfrwt beam="2">  1       21 0.86891616E-02 0.45190890E+03</pdfrwt>
<totfact> 0.43284005E+04</totfact>
</mgrwt>
</event>
<event>
 7    0  0.4750554E-002  0.4532287E+03  0.7546771E-02  0.1026764E+00
         21   -1    0    0  502  501  0.00000000000E+00  0.00000000000E+00  0.69737061650E+03  0.69737061650E+03  0.00000000000E+00 0. -1.
         21   -1    0    0  501  502 -0.00000000000E+00 -0.00000000000E+00 -0.73639543712E+02  0.73639543712E+02  0.00000000000E+00 0. -1.
      99926    2    1    2    0    0  0.33306690739E-15  0.17763568394E-14  0.62373107279E+03  0.77101016022E+03  0.45322865751E+03 0.  0.
      99925    2    3    3    0    0 -0.27826213081E+00 -0.11911812543E+02  0.58174221290E+03  0.63852415657E+03  0.26295841409E+03 0.  0.
         25    1    4    4    0    0 -0.10612816948E+02  0.22512154870E+02  0.22292387039E+03  0.25683066229E+03  0.12509000000E+03 0.  0.
         25    1    4    4    0    0  0.10334554818E+02 -0.34423967412E+02  0.35881834251E+03  0.38169349428E+03  0.12509000000E+03 0.  0.
         25    1    3    3    0    0  0.27826213081E+00  0.11911812543E+02  0.41988859894E+02  0.13248600365E+03  0.12509000000E+03 0.  0.
<mgrwt>
<rscale>  2 0.45322866E+03</rscale>
<asrwt>0</asrwt>
<pdfrwt beam="1">  1       21 0.10255450E+00 0.45322866E+03</pdfrwt>
<pdfrwt beam="2">  1       21 0.10829345E-01 0.45322866E+03</pdfrwt>
<totfact> 0.49889049E+04</totfact>
</mgrwt>
</event>
<event>
 7    0  0.4750554E-002  0.4520102E+03  0.7546771E-02  0.1027124E+00
         21   -1    0    0  502  501  0.00000000000E+00  0.00000000000E+00  0.53957811158E+03  0.53957811158E+03  0.00000000000E+00 0.  1.
         21   -1    0    0  501  502 -0.00000000000E+00 -0.00000000000E+00 -0.94663415397E+02  0.94663415397E+02  0.00000000000E+00 0.  1.
      99926    2    1    2    0    0  0.00000000000E+00  0.00000000000E+00  0.44491469618E+03  0.63424152697E+03  0.45201020747E+03 0.  0.
      99925    2    3    3    0    0 -0.65911132979E+02  0.88176407816E+02  0.26862372552E+03  0.39166087898E+03  0.26290717347E+03 0.  0.
         25    1    4    4    0    0 -0.57246867050E+02  0.76466311477E+02  0.12782279408E+03  0.20275718326E+03  0.12509000000E+03 0.  0.
         25    1    4    4    0    0 -0.86642659293E+01  0.11710096339E+02  0.14080093145E+03  0.18890369572E+03  0.12509000000E+03 0.  0.
         25    1    3    3    0    0  0.65911132979E+02 -0.88176407816E+02  0.17629097066E+03  0.24258064799E+03  0.12509000000E+03 0.  0.
<mgrwt>
<rscale>  2 0.45201021E+03</rscale>
<asrwt>0</asrwt>
<pdfrwt beam="1">  1       21 0.79349721E-01 0.45201021E+03</pdfrwt>
<pdfrwt beam="2">  1       21 0.13921091E-01 0.45201021E+03</pdfrwt>
<totfact> 0.57974607E+04</totfact>
</mgrwt>
</event>
<event>
 7    0  0.4750554E-002  0.4573069E+03  0.7546771E-02  0.1025565E+00
         21   -1    0    0  502  501  0.00000000000E+00  0.00000000000E+00  0.87508671984E+02  0.87508671984E+02  0.00000000000E+00 0.  1.
         21   -1    0    0  501  502 -0.00000000000E+00 -0.00000000000E+00 -0.59745396939E+03  0.59745396939E+03  0.00000000000E+00 0.  1.
      99926    2    1    2    0    0  0.00000000000E+00 -0.14210854715E-13 -0.50994529740E+03  0.68496264137E+03  0.45730691415E+03 0.  0.
      99925    2    3    3    0    0 -0.84476242461E+02 -0.69050178818E+02 -0.37651855797E+03  0.47199699712E+03  0.26288928860E+03 0.  0.
         25    1    3    3    0    0  0.84476242461E+02  0.69050178818E+02 -0.13342673943E+03  0.21296564425E+03  0.12509000000E+03 0.  0.
         25    1    4    4    0    0 -0.12110896128E+02 -0.31510425839E+01 -0.17215452828E+03  0.21316963335E+03  0.12509000000E+03 0.  0.
         25    1    4    4    0    0 -0.72365346333E+02 -0.65899136235E+02 -0.20436402969E+03  0.25882736378E+03  0.12509000000E+03 0.  0.
<mgrwt>
<rscale>  2 0.45730691E+03</rscale>
<asrwt>0</asrwt>
<pdfrwt beam="1">  1       21 0.12868922E-01 0.45730691E+03</pdfrwt>
<pdfrwt beam="2">  1       21 0.87860879E-01 0.45730691E+03</pdfrwt>
<totfact> 0.52762392E+04</totfact>
</mgrwt>
</event>
<event>
 7    0  0.4750554E-002  0.4482174E+03  0.7546771E-02  0.1028255E+00
         21   -1    0    0  502  501  0.00000000000E+00  0.00000000000E+00  0.81762005312E+03  0.81762005312E+03  0.00000000000E+00 0.  1.
         21   -1    0    0  501  502 -0.00000000000E+00 -0.00000000000E+00 -0.61427931937E+02  0.61427931937E+02  0.00000000000E+00 0.  1.
      99926    2    1    2    0    0  0.00000000000E+00 -0.35527136788E-14  0.75619212118E+03  0.87904798506E+03  0.44821739802E+03 0.  0.
      99925    2    3    3    0    0 -0.82362578487E+02  0.26179753375E+02  0.60143565078E+03  0.66210087848E+03  0.26302805445E+03 0.  0.
         25    1    3    3    0    0  0.82362578487E+02 -0.26179753375E+02  0.15475647041E+03  0.21694710658E+03  0.12509000000E+03 0.  0.
         25    1    4    4    0    0 -0.46937158583E+01  0.32986276811E+02  0.28437880749E+03  0.31245630042E+03  0.12509000000E+03 0.  0.
         25    1    4    4    0    0 -0.77668862629E+02 -0.68065234365E+01  0.31705684329E+03  0.34964457805E+03  0.12509000000E+03 0.  0.
<mgrwt>
<rscale>  2 0.44821740E+03</rscale>
<asrwt>0</asrwt>
<pdfrwt beam="1">  1       21 0.12023824E+00 0.44821740E+03</pdfrwt>
<pdfrwt beam="2">  1       21 0.90335199E-02 0.44821740E+03</pdfrwt>
<totfact> 0.46577404E+04</totfact>
</mgrwt>
</event>
<event>
 7    0  0.4750554E-002  0.4240858E+03  0.7546771E-02  0.1035745E+00
         21   -1    0    0  502  501  0.00000000000E+00  0.00000000000E+00  0.10722685293E+04  0.10722685293E+04  0.00000000000E+00 0. -1.
         21   -1    0    0  501  502 -0.00000000000E+00 -0.00000000000E+00 -0.41931842060E+02  0.41931842060E+02  0.00000000000E+00 0. -1.
      99926    2    1    2    0    0  0.17763568394E-14  0.71054273576E-14  0.10303366873E+04  0.11142003714E+04  0.42408581498E+03 0.  0.
      99925    2    3    3    0    0  0.11522796674E+02  0.61352978737E+02  0.80346220545E+03  0.84771115690E+03  0.26299377766E+03 0.  0.
         25    1    3    3    0    0 -0.11522796674E+02 -0.61352978737E+02  0.22687448182E+03  0.26648921450E+03  0.12509000000E+03 0.  0.
         25    1    4    4    0    0 -0.27950027033E+02  0.37767527937E+02  0.33518446866E+03  0.36083753450E+03  0.12509000000E+03 0.  0.
         25    1    4    4    0    0  0.39472823708E+02  0.23585450800E+02  0.46827773680E+03  0.48687362239E+03  0.12509000000E+03 0.  0.
<mgrwt>
<rscale>  2 0.42408581E+03</rscale>
<asrwt>0</asrwt>
<pdfrwt beam="1">  1       21 0.15768653E+00 0.42408581E+03</pdfrwt>
<pdfrwt beam="2">  1       21 0.61664481E-02 0.42408581E+03</pdfrwt>
<totfact> 0.44880896E+04</totfact>
</mgrwt>
</event>
<event>
 7    0  0.4750554E-002  0.4579940E+03  0.7546771E-02  0.1025365E+00
         21   -1    0    0  502  501  0.00000000000E+00  0.00000000000E+00  0.34629009441E+03  0.34629009441E+03  0.00000000000E+00 0. -1.
         21   -1    0    0  501  502 -0.00000000000E+00 -0.00000000000E+00 -0.15143266717E+03  0.15143266717E+03  0.00000000000E+00 0. -1.
      99926    2    1    2    0    0  0.00000000000E+00  0.00000000000E+00  0.19485742724E+03  0.49772276157E+03  0.45799402882E+03 0.  0.
      99925    2    3    3    0    0 -0.10328339397E+03 -0.34625596937E+02  0.79432743110E+02  0.29564169556E+03  0.26311225749E+03 0.  0.
         25    1    4    4    0    0 -0.62950584266E+02 -0.55476020604E+02  0.54937658062E+02  0.16033096798E+03  0.12509000000E+03 0.  0.
         25    1    4    4    0    0 -0.40332809704E+02  0.20850423667E+02  0.24495085048E+02  0.13531072758E+03  0.12509000000E+03 0.  0.
         25    1    3    3    0    0  0.10328339397E+03  0.34625596937E+02  0.11542468413E+03  0.20208106601E+03  0.12509000000E+03 0.  0.
<mgrwt>
<rscale>  2 0.45799403E+03</rscale>
<asrwt>0</asrwt>
<pdfrwt beam="1">  1       21 0.50925014E-01 0.45799403E+03</pdfrwt>
<pdfrwt beam="2">  1       21 0.22269510E-01 0.45799403E+03</pdfrwt>
<totfact> 0.63898640E+04</totfact>
</mgrwt>
</event>
<event>
 7    0  0.4750554E-002  0.4549983E+03  0.7546771E-02  0.1026242E+00
         21   -1    0    0  502  501  0.00000000000E+00  0.00000000000E+00  0.29050762440E+04  0.29050762440E+04  0.00000000000E+00 0.  1.
         21   -1    0    0  501  502 -0.00000000000E+00 -0.00000000000E+00 -0.17815667705E+02  0.17815667705E+02  0.00000000000E+00 0.  1.
      99926    2    1    2    0    0  0.00000000000E+00  0.00000000000E+00  0.28872605763E+04  0.29228919117E+04  0.45499834295E+03 0.  0.
      99925    2    3    3    0    0  0.28012736622E+02 -0.10571774197E+03  0.16275049308E+04  0.16522256499E+04  0.26289987467E+03 0.  0.
         25    1    4    4    0    0 -0.10247559904E+02 -0.86482259632E+02  0.84918040689E+03  0.86275087091E+03  0.12509000000E+03 0.  0.
         25    1    3    3    0    0 -0.28012736622E+02  0.10571774197E+03  0.12597556455E+04  0.12706662618E+04  0.12509000000E+03 0.  0.
         25    1    4    4    0    0  0.38260296526E+02 -0.19235482339E+02  0.77832452389E+03  0.78947477899E+03  0.12509000000E+03 0.  0.
<mgrwt>
<rscale>  2 0.45499834E+03</rscale>
<asrwt>0</asrwt>
<pdfrwt beam="1">  1       21 0.42721677E+00 0.45499834E+03</pdfrwt>
<pdfrwt beam="2">  1       21 0.26199531E-02 0.45499834E+03</pdfrwt>
<totfact> 0.37000202E+03</totfact>
</mgrwt>
</event>
<event>
 7    0  0.4750554E-002  0.4630326E+03  0.7546771E-02  0.1023905E+00
         21   -1    0    0  502  501  0.00000000000E+00  0.00000000000E+00  0.78124225745E+02  0.78124225745E+02  0.00000000000E+00 0.  1.
         21   -1    0    0  501  502 -0.00000000000E+00 -0.00000000000E+00 -0.68608426725E+03  0.68608426725E+03  0.00000000000E+00 0.  1.
      99926    2    1    2    0    0  0.00000000000E+00  0.00000000000E+00 -0.60796004150E+03  0.76420849299E+03  0.46303262163E+03 0.  0.
      99925    2    3    3    0    0  0.11152792631E+03 -0.36133699038E+02 -0.33392931213E+03  0.44096791495E+03  0.26305853714E+03 0.  0.
         25    1    4    4    0    0  0.44680401100E+02 -0.11878890989E+02 -0.10145213313E+03  0.16756339013E+03  0.12509000000E+03 0.  0.
         25    1    4    4    0    0  0.66847525207E+02 -0.24254808049E+02 -0.23247717900E+03  0.27340452482E+03  0.12509000000E+03 0.  0.
         25    1    3    3    0    0 -0.11152792631E+03  0.36133699038E+02 -0.27403072937E+03  0.32324057804E+03  0.12509000000E+03 0.  0.
<mgrwt>
<rscale>  2 0.46303262E+03</rscale>
<asrwt>0</asrwt>
<pdfrwt beam="1">  1       21 0.11488857E-01 0.46303262E+03</pdfrwt>
<pdfrwt beam="2">  1       21 0.10089474E+00 0.46303262E+03</pdfrwt>
<totfact> 0.46539483E+04</totfact>
</mgrwt>
</event>
<event>
 7    0  0.4750554E-002  0.4283752E+03  0.7546771E-02  0.1034374E+00
         21   -1    0    0  502  501  0.00000000000E+00  0.00000000000E+00  0.47932279135E+02  0.47932279135E+02  0.00000000000E+00 0. -1.
         21   -1    0    0  501  502 -0.00000000000E+00 -0.00000000000E+00 -0.95710718421E+03  0.95710718421E+03  0.00000000000E+00 0. -1.
      99926    2    1    2    0    0  0.00000000000E+00  0.00000000000E+00 -0.90917490508E+03  0.10050394633E+04  0.42837520337E+03 0.  0.
      99925    2    3    3    0    0 -0.46461188865E+02  0.36812103082E+02 -0.73300293290E+03  0.78099070775E+03  0.26294374483E+03 0.  0.
         25    1    4    4    0    0 -0.14859143408E+02  0.34208352000E+02 -0.26325338461E+03  0.29383814950E+03  0.12509000000E+03 0.  0.
         25    1    3    3    0    0  0.46461188865E+02 -0.36812103082E+02 -0.17617197218E+03  0.22404875560E+03  0.12509000000E+03 0.  0.
         25    1    4    4    0    0 -0.31602045457E+02  0.26037510813E+01 -0.46974954829E+03  0.48715255826E+03  0.12509000000E+03 0.  0.
<mgrwt>
<rscale>  2 0.42837520E+03</rscale>
<asrwt>0</asrwt>
<pdfrwt beam="1">  1       21 0.70488647E-02 0.42837520E+03</pdfrwt>
<pdfrwt beam="2">  1       21 0.14075105E+00 0.42837520E+03</pdfrwt>
<totfact> 0.48249405E+04</totfact>
</mgrwt>
</event>
<event>
 7    0  0.4750554E-002  0.4653246E+03  0.7546771E-02  0.1023248E+00
         21   -1    0    0  502  501  0.00000000000E+00  0.00000000000E+00  0.24500642153E+03  0.24500642153E+03  0.00000000000E+00 0. -1.
         21   -1    0    0  501  502 -0.00000000000E+00 -0.00000000000E+00 -0.22094011720E+03  0.22094011720E+03  0.00000000000E+00 0. -1.
      99926    2    1    2    0    0  0.00000000000E+00  0.00000000000E+00  0.24066304327E+02  0.46594653873E+03  0.46532460708E+03 0.  0.
      99925    2    3    3    0    0 -0.11114006255E+03  0.93420388369E+01  0.65968703012E+02  0.29319612250E+03  0.26300705177E+03 0.  0.
         25    1    4    4    0    0 -0.66818931169E+02 -0.32564162088E+02  0.45971646533E+02  0.15259781977E+03  0.12509000000E+03 0.  0.
         25    1    3    3    0    0  0.11114006255E+03 -0.93420388369E+01 -0.41902398685E+02  0.17275041623E+03  0.12509000000E+03 0.  0.
         25    1    4    4    0    0 -0.44321131377E+02  0.41906200925E+02  0.19997056480E+02  0.14059830273E+03  0.12509000000E+03 0.  0.
<mgrwt>
<rscale>  2 0.46532461E+03</rscale>
<asrwt>0</asrwt>
<pdfrwt beam="1">  1       21 0.36030356E-01 0.46532461E+03</pdfrwt>
<pdfrwt beam="2">  1       21 0.32491194E-01 0.46532461E+03</pdfrwt>
<totfact> 0.62446246E+04</totfact>
</mgrwt>
</event>
<event>
 7    0  0.4750554E-002  0.4571157E+03  0.7546771E-02  0.1025621E+00
         21   -1    0    0  502  501  0.00000000000E+00  0.00000000000E+00  0.60843694180E+02  0.60843694180E+02  0.00000000000E+00 0.  1.
         21   -1    0    0  501  502 -0.00000000000E+00 -0.00000000000E+00 -0.85857188297E+03  0.85857188297E+03  0.00000000000E+00 0.  1.
      99926    2    1    2    0    0 -0.14210854715E-13 -0.35527136788E-14 -0.79772818879E+03  0.91941557715E+03  0.45711567498E+03 0.  0.
      99925    2    3    3    0    0 -0.10969350464E+03  0.29170411713E+02 -0.53931673157E+03  0.61069634030E+03  0.26306635136E+03 0.  0.
         25    1    4    4    0    0 -0.29025090677E+02 -0.19546299547E+02 -0.24561795051E+03  0.27784923866E+03  0.12509000000E+03 0.  0.
         25    1    4    4    0    0 -0.80668413965E+02  0.48716711260E+02 -0.29369878106E+03  0.33284710163E+03  0.12509000000E+03 0.  0.
         25    1    3    3    0    0  0.10969350464E+03 -0.29170411713E+02 -0.25841145722E+03  0.30871923685E+03  0.12509000000E+03 0.  0.
<mgrwt>
<rscale>  2 0.45711567E+03</rscale>
<asrwt>0</asrwt>
<pdfrwt beam="1">  1       21 0.89476023E-02 0.45711567E+03</pdfrwt>
<pdfrwt beam="2">  1       21 0.12626057E+00 0.45711567E+03</pdfrwt>
<totfact> 0.41709988E+04</totfact>
</mgrwt>
</event>
<event>
 7    0  0.4750554E-002  0.4477947E+03  0.7546771E-02  0.1028382E+00
         21   -1    0    0  502  501  0.00000000000E+00  0.00000000000E+00  0.11999369593E+04  0.11999369593E+04  0.00000000000E+00 0. -1.
         21   -1    0    0  501  502 -0.00000000000E+00 -0.00000000000E+00 -0.41777217479E+02  0.41777217479E+02  0.00000000000E+00 0. -1.
      99926    2    1    2    0    0  0.14210854715E-13  0.88817841970E-15  0.11581597419E+04  0.12417141768E+04  0.44779471775E+03 0.  0.
      99925    2    3    3    0    0 -0.72200138354E+02 -0.51058221585E+01  0.51616137639E+03  0.58365009273E+03  0.26265173685E+03 0.  0.
         25    1    4    4    0    0 -0.20902373892E+02 -0.19672172657E+02  0.18037304781E+03  0.22137264530E+03  0.12509000000E+03 0.  0.
         25    1    3    3    0    0  0.72200138354E+02  0.51058221585E+01  0.64199836547E+03  0.65806408409E+03  0.12509000000E+03 0.  0.
         25    1    4    4    0    0 -0.51297764463E+02  0.14566350498E+02  0.33578832858E+03  0.36227744743E+03  0.12509000000E+03 0.  0.
<mgrwt>
<rscale>  2 0.44779472E+03</rscale>
<asrwt>0</asrwt>
<pdfrwt beam="1">  1       21 0.17646130E+00 0.44779472E+03</pdfrwt>
<pdfrwt beam="2">  1       21 0.61437092E-02 0.44779472E+03</pdfrwt>
<totfact> 0.32648800E+04</totfact>
</mgrwt>
</event>
<event>
 7    0  0.4750554E-002  0.4524646E+03  0.7546771E-02  0.1026990E+00
         21   -1    0    0  502  501  0.00000000000E+00  0.00000000000E+00  0.24233942993E+03  0.24233942993E+03  0.00000000000E+00 0.  1.
         21   -1    0    0  501  502 -0.00000000000E+00 -0.00000000000E+00 -0.21119576186E+03  0.21119576186E+03  0.00000000000E+00 0.  1.
      99926    2    1    2    0    0  0.00000000000E+00  0.00000000000E+00  0.31143668071E+02  0.45353519179E+03  0.45246463081E+03 0.  0.
      99925    2    3    3    0    0  0.45460472490E+02 -0.83740654750E+02 -0.37115329815E+02  0.28211188326E+03  0.26292663454E+03 0.  0.
         25    1    3    3    0    0 -0.45460472490E+02  0.83740654750E+02  0.68258997886E+02  0.17142330854E+03  0.12509000000E+03 0.  0.
         25    1    4    4    0    0  0.52925343165E+02 -0.14867861895E+02 -0.20230830368E+02  0.13812653570E+03  0.12509000000E+03 0.  0.
         25    1    4    4    0    0 -0.74648706746E+01 -0.68872792856E+02 -0.16884499447E+02  0.14398534756E+03  0.12509000000E+03 0.  0.
<mgrwt>
<rscale>  2 0.45246463E+03</rscale>
<asrwt>0</asrwt>
<pdfrwt beam="1">  1       21 0.35638152E-01 0.45246463E+03</pdfrwt>
<pdfrwt beam="2">  1       21 0.31058200E-01 0.45246463E+03</pdfrwt>
<totfact> 0.70059832E+04</totfact>
</mgrwt>
</event>
<event>
 7    0  0.4750554E-002  0.4540593E+03  0.7546771E-02  0.1026518E+00
         21   -1    0    0  502  501  0.00000000000E+00  0.00000000000E+00  0.54445005820E+03  0.54445005820E+03  0.00000000000E+00 0. -1.
         21   -1    0    0  501  502 -0.00000000000E+00 -0.00000000000E+00 -0.94668865567E+02  0.94668865567E+02  0.00000000000E+00 0. -1.
      99926    2    1    2    0    0  0.17763568394E-14  0.00000000000E+00  0.44978119263E+03  0.63911892377E+03  0.45405933254E+03 0.  0.
      99925    2    3    3    0    0 -0.13738633153E+02 -0.30071451802E+02  0.13141651663E+03  0.29546703990E+03  0.26255938104E+03 0.  0.
         25    1    4    4    0    0 -0.14713838186E+02  0.11569402079E+02  0.96465513931E+02  0.15907058677E+03  0.12509000000E+03 0.  0.
         25    1    3    3    0    0  0.13738633153E+02  0.30071451802E+02  0.31836467601E+03  0.34365188386E+03  0.12509000000E+03 0.  0.
         25    1    4    4    0    0  0.97520503227E+00 -0.41640853881E+02  0.34951002696E+02  0.13639645313E+03  0.12509000000E+03 0.  0.
<mgrwt>
<rscale>  2 0.45405933E+03</rscale>
<asrwt>0</asrwt>
<pdfrwt beam="1">  1       21 0.80066184E-01 0.45405933E+03</pdfrwt>
<pdfrwt beam="2">  1       21 0.13921892E-01 0.45405933E+03</pdfrwt>
<totfact> 0.56752871E+04</totfact>
</mgrwt>
</event>
<event>
 7    0  0.4750554E-002  0.4545963E+03  0.7546771E-02  0.1026360E+00
         21   -1    0    0  502  501  0.00000000000E+00  0.00000000000E+00  0.27155411234E+03  0.27155411234E+03  0.00000000000E+00 0. -1.
         21   -1    0    0  501  502 -0.00000000000E+00 -0.00000000000E+00 -0.19025473022E+03  0.19025473022E+03  0.00000000000E+00 0. -1.
      99926    2    1    2    0    0 -0.17763568394E-14  0.00000000000E+00  0.81299382121E+02  0.46180884256E+03  0.45459632371E+03 0.  0.
      99925    2    3    3    0    0  0.84522040794E+01  0.16489875979E+02  0.16435155924E+03  0.31051929240E+03  0.26280684954E+03 0.  0.
         25    1    4    4    0    0  0.25198086238E+02 -0.10230590074E+02  0.47746581109E+02  0.13662669077E+03  0.12509000000E+03 0.  0.
         25    1    3    3    0    0 -0.84522040794E+01 -0.16489875979E+02 -0.83052177121E+02  0.15128955016E+03  0.12509000000E+03 0.  0.
         25    1    4    4    0    0 -0.16745882159E+02  0.26720466053E+02  0.11660497813E+03  0.17389260163E+03  0.12509000000E+03 0.  0.
<mgrwt>
<rscale>  2 0.45459632E+03</rscale>
<asrwt>0</asrwt>
<pdfrwt beam="1">  1       21 0.39934429E-01 0.45459632E+03</pdfrwt>
<pdfrwt beam="2">  1       21 0.27978637E-01 0.45459632E+03</pdfrwt>
<totfact> 0.68266460E+04</totfact>
</mgrwt>
</event>
<event>
 7    0  0.4750554E-002  0.4087330E+03  0.7546771E-02  0.1040797E+00
         21   -1    0    0  502  501  0.00000000000E+00  0.00000000000E+00  0.21731403151E+02  0.21731403151E+02  0.00000000000E+00 0.  1.
         21   -1    0    0  501  502 -0.00000000000E+00 -0.00000000000E+00 -0.19219037202E+04  0.19219037202E+04  0.00000000000E+00 0.  1.
      99926    2    1    2    0    0  0.00000000000E+00  0.17763568394E-14 -0.19001723170E+04  0.19436351233E+04  0.40873299138E+03 0.  0.
      99925    2    3    3    0    0  0.46932673294E+02 -0.14731529673E+02 -0.14208166816E+04  0.14457907429E+04  0.26300406045E+03 0.  0.
         25    1    4    4    0    0  0.54942455250E+02  0.18494913995E+02 -0.72354897158E+03  0.73656727976E+03  0.12509000000E+03 0.  0.
         25    1    3    3    0    0 -0.46932673294E+02  0.14731529673E+02 -0.47935563543E+03  0.49784438041E+03  0.12509000000E+03 0.  0.
         25    1    4    4    0    0 -0.80097819556E+01 -0.33226443667E+02 -0.69726771000E+03  0.70922346315E+03  0.12509000000E+03 0.  0.
<mgrwt>
<rscale>  2 0.40873299E+03</rscale>
<asrwt>0</asrwt>
<pdfrwt beam="1">  1       21 0.31957945E-02 0.40873299E+03</pdfrwt>
<pdfrwt beam="2">  1       21 0.28263290E+00 0.40873299E+03</pdfrwt>
<totfact> 0.21352630E+04</totfact>
</mgrwt>
</event>
<event>
 7    0  0.4750554E-002  0.4597927E+03  0.7546771E-02  0.1024841E+00
         21   -1    0    0  502  501  0.00000000000E+00  0.00000000000E+00  0.71730683223E+02  0.71730683223E+02  0.00000000000E+00 0. -1.
         21   -1    0    0  501  502 -0.00000000000E+00 -0.00000000000E+00 -0.73681627668E+03  0.73681627668E+03  0.00000000000E+00 0. -1.
      99926    2    1    2    0    0  0.00000000000E+00  0.00000000000E+00 -0.66508559346E+03  0.80854695990E+03  0.45979271389E+03 0.  0.
      99925    2    3    3    0    0  0.35655492466E+02  0.98708476164E+02 -0.51100794388E+03  0.58404282273E+03  0.26260659295E+03 0.  0.
         25    1    3    3    0    0 -0.35655492466E+02 -0.98708476164E+02 -0.15407764957E+03  0.22450413717E+03  0.12509000000E+03 0.  0.
         25    1    4    4    0    0  0.40118826675E+02  0.84745923729E+02 -0.30061076135E+03  0.33882994227E+03  0.12509000000E+03 0.  0.
         25    1    4    4    0    0 -0.44633342096E+01  0.13962552435E+02 -0.21039718254E+03  0.24521288046E+03  0.12509000000E+03 0.  0.
<mgrwt>
<rscale>  2 0.45979271E+03</rscale>
<asrwt>0</asrwt>
<pdfrwt beam="1">  1       21 0.10548629E-01 0.45979271E+03</pdfrwt>
<pdfrwt beam="2">  1       21 0.10835534E+00 0.45979271E+03</pdfrwt>
<totfact> 0.45614281E+04</totfact>
</mgrwt>
</event>
<event>
 7    0  0.4750554E-002  0.4616970E+03  0.7546771E-02  0.1024290E+00
         21   -1    0    0  502  501  0.00000000000E+00  0.00000000000E+00  0.10047158095E+03  0.10047158095E+03  0.00000000000E+00 0. -1.
         21   -1    0    0  501  502 -0.00000000000E+00 -0.00000000000E+00 -0.53040907266E+03  0.53040907266E+03  0.00000000000E+00 0. -1.
      99926    2    1    2    0    0  0.00000000000E+00  0.14210854715E-13 -0.42993749171E+03  0.63088065361E+03  0.46169703521E+03 0.  0.
      99925    2    3    3    0    0  0.63642949943E+02 -0.10025702910E+03 -0.25125544113E+03  0.38253275195E+03  0.26286900284E+03 0.  0.
         25    1    4    4    0    0  0.58030095181E+02 -0.47781836329E+02 -0.88868617727E+02  0.17086759537E+03  0.12509000000E+03 0.  0.
         25    1    4    4    0    0  0.56128547620E+01 -0.52475192773E+02 -0.16238682340E+03  0.21166515658E+03  0.12509000000E+03 0.  0.
         25    1    3    3    0    0 -0.63642949943E+02  0.10025702910E+03 -0.17868205058E+03  0.24834790166E+03  0.12509000000E+03 0.  0.
<mgrwt>
<rscale>  2 0.46169704E+03</rscale>
<asrwt>0</asrwt>
<pdfrwt beam="1">  1       21 0.14775232E-01 0.46169704E+03</pdfrwt>
<pdfrwt beam="2">  1       21 0.78001336E-01 0.46169704E+03</pdfrwt>
<totfact> 0.53909509E+04</totfact>
</mgrwt>
</event>
<event>
 7    0  0.4750554E-002  0.4126097E+03  0.7546771E-02  0.1039499E+00
         21   -1    0    0  502  501  0.00000000000E+00  0.00000000000E+00  0.19499237746E+03  0.19499237746E+03  0.00000000000E+00 0. -1.
         21   -1    0    0  501  502 -0.00000000000E+00 -0.00000000000E+00 -0.21827360799E+03  0.21827360799E+03  0.00000000000E+00 0. -1.
      99926    2    1    2    0    0  0.00000000000E+00 -0.71054273576E-14 -0.23281230527E+02  0.41326598545E+03  0.41260969334E+03 0.  0.
      99925    2    3    3    0    0 -0.38769495220E+02  0.51047748042E+02  0.72012321645E+00  0.27067384183E+03  0.26297312360E+03 0.  0.
         25    1    4    4    0    0 -0.43065242058E+02  0.38339391013E+02  0.31196829905E+02  0.14122773903E+03  0.12509000000E+03 0.  0.
         25    1    4    4    0    0  0.42957468375E+01  0.12708357029E+02 -0.30476706688E+02  0.12944610280E+03  0.12509000000E+03 0.  0.
         25    1    3    3    0    0  0.38769495220E+02 -0.51047748042E+02 -0.24001353744E+02  0.14259214362E+03  0.12509000000E+03 0.  0.
<mgrwt>
<rscale>  2 0.41260969E+03</rscale>
<asrwt>0</asrwt>
<pdfrwt beam="1">  1       21 0.28675350E-01 0.41260969E+03</pdfrwt>
<pdfrwt beam="2">  1       21 0.32099060E-01 0.41260969E+03</pdfrwt>
<totfact> 0.10213187E+05</totfact>
</mgrwt>
</event>
<event>
 7    0  0.4750554E-002  0.4677310E+03  0.7546771E-02  0.1022563E+00
         21   -1    0    0  502  501  0.00000000000E+00  0.00000000000E+00  0.41875940929E+03  0.41875940929E+03  0.00000000000E+00 0. -1.
         21   -1    0    0  501  502 -0.00000000000E+00 -0.00000000000E+00 -0.13060738866E+03  0.13060738866E+03  0.00000000000E+00 0. -1.
      99926    2    1    2    0    0  0.00000000000E+00  0.00000000000E+00  0.28815202063E+03  0.54936679794E+03  0.46773100356E+03 0.  0.
      99925    2    3    3    0    0 -0.14668522650E+02 -0.64142526812E+02  0.54899555297E+02  0.27663313668E+03  0.26302566764E+03 0.  0.
         25    1    3    3    0    0  0.14668522650E+02  0.64142526812E+02  0.23325246533E+03  0.27273366126E+03  0.12509000000E+03 0.  0.
         25    1    4    4    0    0 -0.10814694504E+02 -0.68075334377E+02  0.84150019651E+01  0.14307176215E+03  0.12509000000E+03 0.  0.
         25    1    4    4    0    0 -0.38538281463E+01  0.39328075659E+01  0.46484553332E+02  0.13356137453E+03  0.12509000000E+03 0.  0.
<mgrwt>
<rscale>  2 0.46773100E+03</rscale>
<asrwt>0</asrwt>
<pdfrwt beam="1">  1       21 0.61582266E-01 0.46773100E+03</pdfrwt>
<pdfrwt beam="2">  1       21 0.19206969E-01 0.46773100E+03</pdfrwt>
<totfact> 0.56043635E+04</totfact>
</mgrwt>
</event>
<event>
 7    0  0.4750554E-002  0.4524113E+03  0.7546771E-02  0.1027005E+00
         21   -1    0    0  502  501  0.00000000000E+00  0.00000000000E+00  0.15105198985E+04  0.15105198985E+04  0.00000000000E+00 0.  1.
         21   -1    0    0  501  502 -0.00000000000E+00 -0.00000000000E+00 -0.33875094472E+02  0.33875094472E+02  0.00000000000E+00 0.  1.
      99926    2    1    2    0    0  0.48849813084E-14  0.71054273576E-14  0.14766448040E+04  0.15443949930E+04  0.45241133612E+03 0.  0.
      99925    2    3    3    0    0 -0.29944265311E+01 -0.46701337121E+02  0.12739950031E+04  0.13016926415E+04  0.26296479542E+03 0.  0.
         25    1    4    4    0    0 -0.40982835254E+02 -0.27664682845E+02  0.68164005554E+03  0.69478457156E+03  0.12509000000E+03 0.  0.
         25    1    4    4    0    0  0.37988408723E+02 -0.19036654276E+02  0.59235494752E+03  0.60690806994E+03  0.12509000000E+03 0.  0.
         25    1    3    3    0    0  0.29944265311E+01  0.46701337121E+02  0.20264980098E+03  0.24270235148E+03  0.12509000000E+03 0.  0.
<mgrwt>
<rscale>  2 0.45241134E+03</rscale>
<asrwt>0</asrwt>
<pdfrwt beam="1">  1       21 0.22213523E+00 0.45241134E+03</pdfrwt>
<pdfrwt beam="2">  1       21 0.49816325E-02 0.45241134E+03</pdfrwt>
<totfact> 0.23174196E+04</totfact>
</mgrwt>
</event>
<event>
 7    0  0.4750554E-002  0.4329207E+03  0.7546771E-02  0.1032941E+00
         21   -1    0    0  502  501  0.00000000000E+00  0.00000000000E+00  0.18983803806E+03  0.18983803806E+03  0.00000000000E+00 0.  1.
         21   -1    0    0  501  502 -0.00000000000E+00 -0.00000000000E+00 -0.24681607786E+03  0.24681607786E+03  0.00000000000E+00 0.  1.
      99926    2    1    2    0    0  0.00000000000E+00 -0.71054273576E-14 -0.56978039796E+02  0.43665411592E+03  0.43292068550E+03 0.  0.
      99925    2    3    3    0    0 -0.44524902437E+02 -0.52438818241E+02  0.23046228748E+02  0.27299688800E+03  0.26318031006E+03 0.  0.
         25    1    4    4    0    0 -0.58021228159E+02 -0.74237565819E+01  0.52495588183E+01  0.13819059681E+03  0.12509000000E+03 0.  0.
         25    1    4    4    0    0  0.13496325723E+02 -0.45015061659E+02  0.17796669929E+02  0.13480629119E+03  0.12509000000E+03 0.  0.
         25    1    3    3    0    0  0.44524902437E+02  0.52438818241E+02 -0.80024268544E+02  0.16365722792E+03  0.12509000000E+03 0.  0.
<mgrwt>
<rscale>  2 0.43292069E+03</rscale>
<asrwt>0</asrwt>
<pdfrwt beam="1">  1       21 0.27917359E-01 0.43292069E+03</pdfrwt>
<pdfrwt beam="2">  1       21 0.36296482E-01 0.43292069E+03</pdfrwt>
<totfact> 0.83713894E+04</totfact>
</mgrwt>
</event>
<event>
 7    0  0.4750554E-002  0.4533144E+03  0.7546771E-02  0.1026738E+00
         21   -1    0    0  502  501  0.00000000000E+00  0.00000000000E+00  0.90023469829E+03  0.90023469829E+03  0.00000000000E+00 0.  1.
         21   -1    0    0  501  502 -0.00000000000E+00 -0.00000000000E+00 -0.57066766346E+02  0.57066766346E+02  0.00000000000E+00 0.  1.
      99926    2    1    2    0    0  0.00000000000E+00 -0.71054273576E-14  0.84316793194E+03  0.95730146463E+03  0.45331438620E+03 0.  0.
      99925    2    3    3    0    0  0.96268942018E+02 -0.47884284374E+02  0.59454766638E+03  0.65893900313E+03  0.26296970997E+03 0.  0.
         25    1    4    4    0    0  0.23178818309E+02 -0.33798336246E+02  0.21092857359E+03  0.24863217090E+03  0.12509000000E+03 0.  0.
         25    1    3    3    0    0 -0.96268942018E+02  0.47884284374E+02  0.24862026556E+03  0.29836246151E+03  0.12509000000E+03 0.  0.
         25    1    4    4    0    0  0.73090123709E+02 -0.14085948129E+02  0.38361909279E+03  0.41030683222E+03  0.12509000000E+03 0.  0.
<mgrwt>
<rscale>  2 0.45331439E+03</rscale>
<asrwt>0</asrwt>
<pdfrwt beam="1">  1       21 0.13238745E+00 0.45331439E+03</pdfrwt>
<pdfrwt beam="2">  1       21 0.83921721E-02 0.45331439E+03</pdfrwt>
<totfact> 0.41389403E+04</totfact>
</mgrwt>
</event>
<event>
 7    0  0.4750554E-002  0.4601582E+03  0.7546771E-02  0.1024735E+00
         21   -1    0    0  502  501  0.00000000000E+00  0.00000000000E+00  0.35960429337E+02  0.35960429337E+02  0.00000000000E+00 0. -1.
         21   -1    0    0  501  502 -0.00000000000E+00 -0.00000000000E+00 -0.14720735901E+04  0.14720735901E+04  0.00000000000E+00 0. -1.
      99926    2    1    2    0    0  0.00000000000E+00 -0.17763568394E-14 -0.14361131608E+04  0.15080340194E+04  0.46015822633E+03 0.  0.
      99925    2    3    3    0    0 -0.28457210238E+02  0.85890348689E+01 -0.12736660748E+04  0.13008622352E+04  0.26293288236E+03 0.  0.
         25    1    4    4    0    0 -0.54046250920E+02 -0.30452753806E+01 -0.63860465883E+03  0.65298827656E+03  0.12509000000E+03 0.  0.
         25    1    4    4    0    0  0.25589040682E+02  0.11634310250E+02 -0.63506141593E+03  0.64787395863E+03  0.12509000000E+03 0.  0.
         25    1    3    3    0    0  0.28457210238E+02 -0.85890348689E+01 -0.16244708600E+03  0.20717178424E+03  0.12509000000E+03 0.  0.
<mgrwt>
<rscale>  2 0.46015823E+03</rscale>
<asrwt>0</asrwt>
<pdfrwt beam="1">  1       21 0.52882991E-02 0.46015823E+03</pdfrwt>
<pdfrwt beam="2">  1       21 0.21648138E+00 0.46015823E+03</pdfrwt>
<totfact> 0.22661308E+04</totfact>
</mgrwt>
</event>
<event>
 7    0  0.4750554E-002  0.4503989E+03  0.7546771E-02  0.1027603E+00
         21   -1    0    0  502  501  0.00000000000E+00  0.00000000000E+00  0.58872227294E+03  0.58872227294E+03  0.00000000000E+00 0.  1.
         21   -1    0    0  501  502 -0.00000000000E+00 -0.00000000000E+00 -0.86143818114E+02  0.86143818114E+02  0.00000000000E+00 0.  1.
      99926    2    1    2    0    0  0.00000000000E+00  0.00000000000E+00  0.50257845483E+03  0.67486609106E+03  0.45039886501E+03 0.  0.
      99925    2    3    3    0    0 -0.37059257813E+02 -0.10046340323E+03  0.28944070107E+03  0.40553080901E+03  0.26308370083E+03 0.  0.
         25    1    4    4    0    0 -0.87022092221E+01 -0.78146347443E+01  0.13528737770E+03  0.18462659512E+03  0.12509000000E+03 0.  0.
         25    1    3    3    0    0  0.37059257813E+02  0.10046340323E+03  0.21313775376E+03  0.26933528205E+03  0.12509000000E+03 0.  0.
         25    1    4    4    0    0 -0.28357048591E+02 -0.92648768486E+02  0.15415332337E+03  0.22090421389E+03  0.12509000000E+03 0.  0.
<mgrwt>
<rscale>  2 0.45039887E+03</rscale>
<asrwt>0</asrwt>
<pdfrwt beam="1">  1       21 0.86576803E-01 0.45039887E+03</pdfrwt>
<pdfrwt beam="2">  1       21 0.12668209E-01 0.45039887E+03</pdfrwt>
<totfact> 0.56302161E+04</totfact>
</mgrwt>
</event>
<event>
 7    0  0.4750554E-002  0.4409749E+03  0.7546771E-02  0.1030448E+00
         21   -1    0    0  502  501  0.00000000000E+00  0.00000000000E+00  0.37103161036E+03  0.37103161036E+03  0.00000000000E+00 0. -1.
         21   -1    0    0  501  502 -0.00000000000E+00 -0.00000000000E+00 -0.13102583412E+03  0.13102583412E+03  0.00000000000E+00 0. -1.
      99926    2    1    2    0    0  0.14210854715E-13  0.00000000000E+00  0.24000577624E+03  0.50205744447E+03  0.44097494818E+03 0.  0.
      99925    2    3    3    0    0  0.89740343021E+02  0.42277251732E+02  0.14558027856E+03  0.31657327293E+03  0.26302913232E+03 0.  0.
         25    1    4    4    0    0  0.64605768860E+02  0.31890984260E+02  0.37779838246E+02  0.14921717235E+03  0.12509000000E+03 0.  0.
         25    1    3    3    0    0 -0.89740343021E+02 -0.42277251732E+02  0.94425497683E+02  0.18548417154E+03  0.12509000000E+03 0.  0.
         25    1    4    4    0    0  0.25134574161E+02  0.10386267472E+02  0.10780044031E+03  0.16735610058E+03  0.12509000000E+03 0.  0.
<mgrwt>
<rscale>  2 0.44097495E+03</rscale>
<asrwt>0</asrwt>
<pdfrwt beam="1">  1       21 0.54563472E-01 0.44097495E+03</pdfrwt>
<pdfrwt beam="2">  1       21 0.19268505E-01 0.44097495E+03</pdfrwt>
<totfact> 0.72909886E+04</totfact>
</mgrwt>
</event>
<event>
 7    0  0.4750554E-002  0.4613291E+03  0.7546771E-02  0.1024396E+00
         21   -1    0    0  502  501  0.00000000000E+00  0.00000000000E+00  0.65470118618E+02  0.65470118618E+02  0.00000000000E+00 0. -1.
         21   -1    0    0  501  502 -0.00000000000E+00 -0.00000000000E+00 -0.81267797401E+03  0.81267797401E+03  0.00000000000E+00 0. -1.
      99926    2    1    2    0    0  0.71054273576E-14  0.00000000000E+00 -0.74720785539E+03  0.87814809263E+03  0.46132905114E+03 0.  0.
      99925    2    3    3    0    0 -0.63610901569E+02  0.86397810642E+02 -0.36906497585E+03  0.46565509399E+03  0.26289690313E+03 0.  0.
         25    1    3    3    0    0  0.63610901569E+02 -0.86397810642E+02 -0.37814287954E+03  0.41249299864E+03  0.12509000000E+03 0.  0.
         25    1    4    4    0    0  0.50298687915E+01  0.21092585499E+02 -0.15987563276E+03  0.20415171514E+03  0.12509000000E+03 0.  0.
         25    1    4    4    0    0 -0.68640770360E+02  0.65305225143E+02 -0.20918934309E+03  0.26150337885E+03  0.12509000000E+03 0.  0.
<mgrwt>
<rscale>  2 0.46132905E+03</rscale>
<asrwt>0</asrwt>
<pdfrwt beam="1">  1       21 0.96279585E-02 0.46132905E+03</pdfrwt>
<pdfrwt beam="2">  1       21 0.11951147E+00 0.46132905E+03</pdfrwt>
<totfact> 0.42067609E+04</totfact>
</mgrwt>
</event>
<event>
 7    0  0.4750554E-002  0.4553813E+03  0.7546771E-02  0.1026129E+00
         21   -1    0    0  502  501  0.00000000000E+00  0.00000000000E+00  0.99892183022E+02  0.99892183022E+02  0.00000000000E+00 0. -1.
         21   -1    0    0  501  502 -0.00000000000E+00 -0.00000000000E+00 -0.51898979356E+03  0.51898979356E+03  0.00000000000E+00 0. -1.
      99926    2    1    2    0    0  0.71054273576E-14 -0.71054273576E-14 -0.41909761054E+03  0.61888197658E+03  0.45538126200E+03 0.  0.
      99925    2    3    3    0    0  0.60536579751E+02 -0.55401586242E+02 -0.37003597440E+03  0.46143812791E+03  0.26318151585E+03 0.  0.
         25    1    3    3    0    0 -0.60536579751E+02  0.55401586242E+02 -0.49061636136E+02  0.15744384868E+03  0.12509000000E+03 0.  0.
         25    1    4    4    0    0  0.21103555348E+02 -0.28695088993E+02 -0.24926386347E+03  0.28115609528E+03  0.12509000000E+03 0.  0.
         25    1    4    4    0    0  0.39433024403E+02 -0.26706497249E+02 -0.12077211093E+03  0.18028203263E+03  0.12509000000E+03 0.  0.
<mgrwt>
<rscale>  2 0.45538126E+03</rscale>
<asrwt>0</asrwt>
<pdfrwt beam="1">  1       21 0.14690027E-01 0.45538126E+03</pdfrwt>
<pdfrwt beam="2">  1       21 0.76322028E-01 0.45538126E+03</pdfrwt>
<totfact> 0.57357945E+04</totfact>
</mgrwt>
</event>
<event>
 7    0  0.4750554E-002  0.4419041E+03  0.7546771E-02  0.1030164E+00
         21   -1    0    0  502  501  0.00000000000E+00  0.00000000000E+00  0.14197617529E+04  0.14197617529E+04  0.00000000000E+00 0.  1.
         21   -1    0    0  501  502 -0.00000000000E+00 -0.00000000000E+00 -0.34385908669E+02  0.34385908669E+02  0.00000000000E+00 0.  1.
      99926    2    1    2    0    0  0.71054273576E-14  0.00000000000E+00  0.13853758442E+04  0.14541476616E+04  0.44190405279E+03 0.  0.
      99925    2    3    3    0    0  0.53610604907E+02  0.75169121492E+02  0.10141822278E+04  0.10517092156E+04  0.26268267794E+03 0.  0.
         25    1    4    4    0    0 -0.75627900300E+01  0.56622815479E+02  0.47206325740E+03  0.49168543410E+03  0.12509000000E+03 0.  0.
         25    1    3    3    0    0 -0.53610604907E+02 -0.75169121492E+02  0.37119361646E+03  0.40243844596E+03  0.12509000000E+03 0.  0.
         25    1    4    4    0    0  0.61173394937E+02  0.18546306013E+02  0.54211897037E+03  0.56002378150E+03  0.12509000000E+03 0.  0.
<mgrwt>
<rscale>  2 0.44190405E+03</rscale>
<asrwt>0</asrwt>
<pdfrwt beam="1">  1       21 0.20878845E+00 0.44190405E+03</pdfrwt>
<pdfrwt beam="2">  1       21 0.50567522E-02 0.44190405E+03</pdfrwt>
<totfact> 0.27630340E+04</totfact>
</mgrwt>
</event>
<event>
 7    0  0.4750554E-002  0.4597168E+03  0.7546771E-02  0.1024863E+00
         21   -1    0    0  502  501  0.00000000000E+00  0.00000000000E+00  0.83243276426E+02  0.83243276426E+02  0.00000000000E+00 0. -1.
         21   -1    0    0  501  502 -0.00000000000E+00 -0.00000000000E+00 -0.63470442771E+03  0.63470442771E+03  0.00000000000E+00 0. -1.
      99926    2    1    2    0    0  0.00000000000E+00 -0.35527136788E-14 -0.55146115129E+03  0.71794770414E+03  0.45971676552E+03 0.  0.
      99925    2    3    3    0    0  0.10504791710E+03  0.22027162905E+02 -0.42021626922E+03  0.50725126857E+03  0.26306249402E+03 0.  0.
         25    1    4    4    0    0  0.32806324799E+02  0.46456266889E+02 -0.19383739118E+03  0.23760236110E+03  0.12509000000E+03 0.  0.
         25    1    4    4    0    0  0.72241592298E+02 -0.24429103984E+02 -0.22637887804E+03  0.26964890747E+03  0.12509000000E+03 0.  0.
         25    1    3    3    0    0 -0.10504791710E+03 -0.22027162905E+02 -0.13124488207E+03  0.21069643557E+03  0.12509000000E+03 0.  0.
<mgrwt>
<rscale>  2 0.45971677E+03</rscale>
<asrwt>0</asrwt>
<pdfrwt beam="1">  1       21 0.12241658E-01 0.45971677E+03</pdfrwt>
<pdfrwt beam="2">  1       21 0.93338889E-01 0.45971677E+03</pdfrwt>
<totfact> 0.50056134E+04</totfact>
</mgrwt>
</event>
<event>
 7    0  0.4750554E-002  0.4492110E+03  0.7546771E-02  0.1027958E+00
         21   -1    0    0  502  501  0.00000000000E+00  0.00000000000E+00  0.13765570250E+04  0.13765570250E+04  0.00000000000E+00 0. -1.
         21   -1    0    0  501  502 -0.00000000000E+00 -0.00000000000E+00 -0.36647685982E+02  0.36647685982E+02  0.00000000000E+00 0. -1.
      99926    2    1    2    0    0  0.00000000000E+00  0.14210854715E-13  0.13399093390E+04  0.14132047110E+04  0.44921099536E+03 0.  0.
      99925    2    3    3    0    0 -0.16132832886E+02 -0.85075145997E+02  0.64678952635E+03  0.70358464956E+03  0.26305250224E+03 0.  0.
         25    1    4    4    0    0  0.95446839447E+01 -0.24929072606E+02  0.39158051268E+03  0.41194097352E+03  0.12509000000E+03 0.  0.
         25    1    3    3    0    0  0.16132832886E+02  0.85075145997E+02  0.69311981267E+03  0.70962006142E+03  0.12509000000E+03 0.  0.
         25    1    4    4    0    0 -0.25677516831E+02 -0.60146073391E+02  0.25520901367E+03  0.29164367604E+03  0.12509000000E+03 0.  0.
<mgrwt>
<rscale>  2 0.44921100E+03</rscale>
<asrwt>0</asrwt>
<pdfrwt beam="1">  1       21 0.20243482E+00 0.44921100E+03</pdfrwt>
<pdfrwt beam="2">  1       21 0.53893665E-02 0.44921100E+03</pdfrwt>
<totfact> 0.27184747E+04</totfact>
</mgrwt>
</event>
<event>
 7    0  0.4750554E-002  0.4491813E+03  0.7546771E-02  0.1027966E+00
         21   -1    0    0  502  501  0.00000000000E+00  0.00000000000E+00  0.59656620561E+02  0.59656620561E+02  0.00000000000E+00 0. -1.
         21   -1    0    0  501  502 -0.00000000000E+00 -0.00000000000E+00 -0.84552148643E+03  0.84552148643E+03  0.00000000000E+00 0. -1.
      99926    2    1    2    0    0  0.44408920985E-15  0.00000000000E+00 -0.78586486586E+03  0.90517810699E+03  0.44918127517E+03 0.  0.
      99925    2    3    3    0    0 -0.17937363469E+01  0.77100460467E+02 -0.34587224186E+03  0.44129372940E+03  0.26299210905E+03 0.  0.
         25    1    4    4    0    0  0.11428800380E+02  0.86047765290E+01 -0.12060609511E+03  0.17435021633E+03  0.12509000000E+03 0.  0.
         25    1    3    3    0    0  0.17937363469E+01 -0.77100460467E+02 -0.43999262400E+03  0.46388437759E+03  0.12509000000E+03 0.  0.
         25    1    4    4    0    0 -0.13222536727E+02  0.68495683937E+02 -0.22526614675E+03  0.26694351306E+03  0.12509000000E+03 0.  0.
<mgrwt>
<rscale>  2 0.44918128E+03</rscale>
<asrwt>0</asrwt>
<pdfrwt beam="1">  1       21 0.87730324E-02 0.44918128E+03</pdfrwt>
<pdfrwt beam="2">  1       21 0.12434140E+00 0.44918128E+03</pdfrwt>
<totfact> 0.45026270E+04</totfact>
</mgrwt>
</event>
<event>
 7    0  0.4750554E-002  0.4662930E+03  0.7546771E-02  0.1022972E+00
         21   -1    0    0  502  501  0.00000000000E+00  0.00000000000E+00  0.83530259575E+03  0.83530259575E+03  0.00000000000E+00 0.  1.
         21   -1    0    0  501  502 -0.00000000000E+00 -0.00000000000E+00 -0.65074970699E+02  0.65074970699E+02  0.00000000000E+00 0.  1.
      99926    2    1    2    0    0  0.14210854715E-13  0.00000000000E+00  0.77022762505E+03  0.90037756645E+03  0.46629300635E+03 0.  0.
      99925    2    3    3    0    0 -0.79856376638E+02 -0.33656777761E+02  0.64961032759E+03  0.70619759805E+03  0.26308107155E+03 0.  0.
         25    1    4    4    0    0 -0.12779940037E+02  0.47683639995E+01  0.23989646622E+03  0.27089460454E+03  0.12509000000E+03 0.  0.
         25    1    3    3    0    0  0.79856376638E+02  0.33656777761E+02  0.12061729746E+03  0.19417996840E+03  0.12509000000E+03 0.  0.
         25    1    4    4    0    0 -0.67076436601E+02 -0.38425141760E+02  0.40971386137E+03  0.43530299351E+03  0.12509000000E+03 0.  0.
<mgrwt>
<rscale>  2 0.46629301E+03</rscale>
<asrwt>0</asrwt>
<pdfrwt beam="1">  1       21 0.12283861E+00 0.46629301E+03</pdfrwt>
<pdfrwt beam="2">  1       21 0.95698491E-02 0.46629301E+03</pdfrwt>
<totfact> 0.39598277E+04</totfact>
</mgrwt>
</event>
<event>
 7    0  0.4750554E-002  0.4628681E+03  0.7546771E-02  0.1023953E+00
         21   -1    0    0  502  501  0.00000000000E+00  0.00000000000E+00  0.99833729981E+03  0.99833729981E+03  0.00000000000E+00 0. -1.
         21   -1    0    0  501  502 -0.00000000000E+00 -0.00000000000E+00 -0.53650916799E+02  0.53650916799E+02  0.00000000000E+00 0. -1.
      99926    2    1    2    0    0  0.71054273576E-14 -0.14210854715E-13  0.94468638301E+03  0.10519882166E+04  0.46286806505E+03 0.  0.
      99925    2    3    3    0    0 -0.49093406278E+02  0.10881450171E+03  0.55623275633E+03  0.62678886748E+03  0.26309436872E+03 0.  0.
         25    1    4    4    0    0 -0.22548859137E+02  0.23682854467E+02  0.19189335667E+03  0.23138689911E+03  0.12509000000E+03 0.  0.
         25    1    4    4    0    0 -0.26544547141E+02  0.85131647245E+02  0.36433939966E+03  0.39540196837E+03  0.12509000000E+03 0.  0.
         25    1    3    3    0    0  0.49093406278E+02 -0.10881450171E+03  0.38845362668E+03  0.42519934914E+03  0.12509000000E+03 0.  0.
<mgrwt>
<rscale>  2 0.46286807E+03</rscale>
<asrwt>0</asrwt>
<pdfrwt beam="1">  1       21 0.14681430E+00 0.46286807E+03</pdfrwt>
<pdfrwt beam="2">  1       21 0.78898413E-02 0.46286807E+03</pdfrwt>
<totfact> 0.35004895E+04</totfact>
</mgrwt>
</event>
<event>
 7    0  0.4750554E-002  0.4505491E+03  0.7546771E-02  0.1027558E+00
         21   -1    0    0  502  501  0.00000000000E+00  0.00000000000E+00  0.48490745979E+02  0.48490745979E+02  0.00000000000E+00 0.  1.
         21   -1    0    0  501  502 -0.00000000000E+00 -0.00000000000E+00 -0.10465630435E+04  0.10465630435E+04  0.00000000000E+00 0.  1.
      99926    2    1    2    0    0 -0.88817841970E-15  0.00000000000E+00 -0.99807229748E+03  0.10950537894E+04  0.45054909917E+03 0.  0.
      99925    2    3    3    0    0 -0.45652892951E+01 -0.44271396599E+02 -0.87237166969E+03  0.91221792220E+03  0.26292281961E+03 0.  0.
         25    1    3    3    0    0  0.45652892951E+01  0.44271396599E+02 -0.12570062779E+03  0.18283586724E+03  0.12509000000E+03 0.  0.
         25    1    4    4    0    0 -0.12961968004E+02  0.79206694431E+01 -0.33389965723E+03  0.35688547017E+03  0.12509000000E+03 0.  0.
         25    1    4    4    0    0  0.83966787086E+01 -0.52192066042E+02 -0.53847201246E+03  0.55533245203E+03  0.12509000000E+03 0.  0.
<mgrwt>
<rscale>  2 0.45054910E+03</rscale>
<asrwt>0</asrwt>
<pdfrwt beam="1">  1       21 0.71309923E-02 0.45054910E+03</pdfrwt>
<pdfrwt beam="2">  1       21 0.15390633E+00 0.45054910E+03</pdfrwt>
<totfact> 0.36932077E+04</totfact>
</mgrwt>
</event>
<event>
 6    0  0.4750554E-002  0.4541340E+03  0.7546771E-02  0.1026496E+00
         21   -1    0    0  502  501  0.00000000000E+00  0.00000000000E+00  0.13273560447E+03  0.13273560447E+03  0.00000000000E+00 0. -1.
         21   -1    0    0  501  502 -0.00000000000E+00 -0.00000000000E+00 -0.38843703033E+03  0.38843703033E+03  0.00000000000E+00 0. -1.
      99926    2    1    2    0    0  0.00000000000E+00  0.00000000000E+00 -0.25570142587E+03  0.52117263480E+03  0.45413400673E+03 0.  0.
         25    1    3    3    0    0  0.55805932928E+02  0.33314142600E+02 -0.72585247935E+02  0.15855680548E+03  0.12509000000E+03 0.  0.
         25    1    3    3    0    0 -0.33267060597E+02 -0.10320136611E+03 -0.75196233811E+02  0.18182189353E+03  0.12509000000E+03 0.  0.
         25    1    3    3    0    0 -0.22538872331E+02  0.69887223513E+02 -0.10791994412E+03  0.18079393578E+03  0.12509000000E+03 0.  0.
<mgrwt>
<rscale>  2 0.45413401E+03</rscale>
<asrwt>0</asrwt>
<pdfrwt beam="1">  1       21 0.19519942E-01 0.45413401E+03</pdfrwt>
<pdfrwt beam="2">  1       21 0.57123093E-01 0.45413401E+03</pdfrwt>
<totfact> 0.64247689E+04</totfact>
</mgrwt>
</event>
<event>
 7    0  0.4750554E-002  0.4554032E+03  0.7546771E-02  0.1026123E+00
         21   -1    0    0  502  501  0.00000000000E+00  0.00000000000E+00  0.48104882905E+02  0.48104882905E+02  0.00000000000E+00 0. -1.
         21   -1    0    0  501  502 -0.00000000000E+00 -0.00000000000E+00 -0.10778119445E+04  0.10778119445E+04  0.00000000000E+00 0. -1.
      99926    2    1    2    0    0  0.00000000000E+00  0.14210854715E-13 -0.10297070616E+04  0.11259168274E+04  0.45540319447E+03 0.  0.
      99925    2    3    3    0    0  0.19769633186E+02 -0.11213565450E+03 -0.65994380509E+03  0.71929954129E+03  0.26248954420E+03 0.  0.
         25    1    3    3    0    0 -0.19769633186E+02  0.11213565450E+03 -0.36976325651E+03  0.40661728612E+03  0.12509000000E+03 0.  0.
         25    1    4    4    0    0  0.25910345690E+02 -0.91928628056E+02 -0.40584691313E+03  0.43529466303E+03  0.12509000000E+03 0.  0.
         25    1    4    4    0    0 -0.61407125031E+01 -0.20207026448E+02 -0.25409689196E+03  0.28400487826E+03  0.12509000000E+03 0.  0.
<mgrwt>
<rscale>  2 0.45540319E+03</rscale>
<asrwt>0</asrwt>
<pdfrwt beam="1">  1       21 0.70742473E-02 0.45540319E+03</pdfrwt>
<pdfrwt beam="2">  1       21 0.15850176E+00 0.45540319E+03</pdfrwt>
<totfact> 0.34488169E+04</totfact>
</mgrwt>
</event>
<event>
 7    0  0.4750554E-002  0.4565854E+03  0.7546771E-02  0.1025776E+00
         21   -1    0    0  502  501  0.00000000000E+00  0.00000000000E+00  0.50576548677E+02  0.50576548677E+02  0.00000000000E+00 0. -1.
         21   -1    0    0  501  502 -0.00000000000E+00 -0.00000000000E+00 -0.10304686250E+04  0.10304686250E+04  0.00000000000E+00 0. -1.
      99926    2    1    2    0    0  0.00000000000E+00  0.00000000000E+00 -0.97989207631E+03  0.10810451737E+04  0.45658535488E+03 0.  0.
      99925    2    3    3    0    0 -0.44514244097E+02  0.86348332031E+02 -0.75971496778E+03  0.80982013870E+03  0.26306704925E+03 0.  0.
         25    1    4    4    0    0 -0.27723230202E+02  0.62511779591E+02 -0.29436813739E+03  0.32707248201E+03  0.12509000000E+03 0.  0.
         25    1    3    3    0    0  0.44514244097E+02 -0.86348332031E+02 -0.22017710853E+03  0.27122503497E+03  0.12509000000E+03 0.  0.
         25    1    4    4    0    0 -0.16791013895E+02  0.23836552441E+02 -0.46534683039E+03  0.48274765668E+03  0.12509000000E+03 0.  0.
<mgrwt>
<rscale>  2 0.45658535E+03</rscale>
<asrwt>0</asrwt>
<pdfrwt beam="1">  1       21 0.74377284E-02 0.45658535E+03</pdfrwt>
<pdfrwt beam="2">  1       21 0.15153949E+00 0.45658535E+03</pdfrwt>
<totfact> 0.35714615E+04</totfact>
</mgrwt>
</event>
<event>
 7    0  0.4750554E-002  0.4632047E+03  0.7546771E-02  0.1023856E+00
         21   -1    0    0  502  501  0.00000000000E+00  0.00000000000E+00  0.51228448143E+02  0.51228448143E+02  0.00000000000E+00 0.  1.
         21   -1    0    0  501  502 -0.00000000000E+00 -0.00000000000E+00 -0.10470674283E+04  0.10470674283E+04  0.00000000000E+00 0.  1.
      99926    2    1    2    0    0  0.00000000000E+00  0.00000000000E+00 -0.99583898011E+03  0.10982958764E+04  0.46320466082E+03 0.  0.
      99925    2    3    3    0    0  0.67585910123E+02  0.93079468733E+02 -0.53569676552E+03  0.60777573563E+03  0.26303740701E+03 0.  0.
         25    1    3    3    0    0 -0.67585910123E+02 -0.93079468733E+02 -0.46014221459E+03  0.49052014077E+03  0.12509000000E+03 0.  0.
         25    1    4    4    0    0  0.19467843519E+02  0.67920243152E+02 -0.34143649793E+03  0.37043021824E+03  0.12509000000E+03 0.  0.
         25    1    4    4    0    0  0.48118066604E+02  0.25159225581E+02 -0.19426026758E+03  0.23734551739E+03  0.12509000000E+03 0.  0.
<mgrwt>
<rscale>  2 0.46320466E+03</rscale>
<asrwt>0</asrwt>
<pdfrwt beam="1">  1       21 0.75335958E-02 0.46320466E+03</pdfrwt>
<pdfrwt beam="2">  1       21 0.15398049E+00 0.46320466E+03</pdfrwt>
<totfact> 0.33366039E+04</totfact>
</mgrwt>
</event>
<event>
 7    0  0.4750554E-002  0.4401880E+03  0.7546771E-02  0.1030689E+00
         21   -1    0    0  502  501  0.00000000000E+00  0.00000000000E+00  0.82834307683E+02  0.82834307683E+02  0.00000000000E+00 0.  1.
         21   -1    0    0  501  502 -0.00000000000E+00 -0.00000000000E+00 -0.58479828462E+03  0.58479828462E+03  0.00000000000E+00 0.  1.
      99926    2    1    2    0    0  0.00000000000E+00 -0.13322676296E-14 -0.50196397694E+03  0.66763259231E+03  0.44018796458E+03 0.  0.
      99925    2    3    3    0    0 -0.69739761203E+02 -0.39264642211E+01 -0.42605583601E+03  0.50549497985E+03  0.26291167308E+03 0.  0.
         25    1    4    4    0    0 -0.45397827010E+02 -0.36842564408E+02 -0.25107485686E+03  0.28653870436E+03  0.12509000000E+03 0.  0.
         25    1    4    4    0    0 -0.24341934192E+02  0.32916100187E+02 -0.17498097915E+03  0.21895627549E+03  0.12509000000E+03 0.  0.
         25    1    3    3    0    0  0.69739761203E+02  0.39264642211E+01 -0.75908140935E+02  0.16213761246E+03  0.12509000000E+03 0.  0.
<mgrwt>
<rscale>  2 0.44018796E+03</rscale>
<asrwt>0</asrwt>
<pdfrwt beam="1">  1       21 0.12181516E-01 0.44018796E+03</pdfrwt>
<pdfrwt beam="2">  1       21 0.85999749E-01 0.44018796E+03</pdfrwt>
<totfact> 0.61572236E+04</totfact>
</mgrwt>
</event>
<event>
 7    0  0.4750554E-002  0.4584461E+03  0.7546771E-02  0.1025233E+00
         21   -1    0    0  502  501  0.00000000000E+00  0.00000000000E+00  0.38197295805E+02  0.38197295805E+02  0.00000000000E+00 0. -1.
         21   -1    0    0  501  502 -0.00000000000E+00 -0.00000000000E+00 -0.13755742531E+04  0.13755742531E+04  0.00000000000E+00 0. -1.
      99926    2    1    2    0    0  0.00000000000E+00  0.00000000000E+00 -0.13373769573E+04  0.14137715489E+04  0.45844614361E+03 0.  0.
      99925    2    3    3    0    0  0.83096605378E+02  0.81314170927E+02 -0.82327366780E+03  0.87204584286E+03  0.26299691964E+03 0.  0.
         25    1    4    4    0    0  0.60693221437E+02  0.35728387784E+02 -0.53159001014E+03  0.55063202940E+03  0.12509000000E+03 0.  0.
         25    1    3    3    0    0 -0.83096605378E+02 -0.81314170927E+02 -0.51410328951E+03  0.54172570606E+03  0.12509000000E+03 0.  0.
         25    1    4    4    0    0  0.22403383941E+02  0.45585783143E+02 -0.29168365766E+03  0.32141381346E+03  0.12509000000E+03 0.  0.
<mgrwt>
<rscale>  2 0.45844614E+03</rscale>
<asrwt>0</asrwt>
<pdfrwt beam="1">  1       21 0.56172503E-02 0.45844614E+03</pdfrwt>
<pdfrwt beam="2">  1       21 0.20229030E+00 0.45844614E+03</pdfrwt>
<totfact> 0.25283457E+04</totfact>
</mgrwt>
</event>
<event>
 7    0  0.4750554E-002  0.4511464E+03  0.7546771E-02  0.1027381E+00
         21   -1    0    0  502  501  0.00000000000E+00  0.00000000000E+00  0.16087296179E+03  0.16087296179E+03  0.00000000000E+00 0.  1.
         21   -1    0    0  501  502 -0.00000000000E+00 -0.00000000000E+00 -0.31629469309E+03  0.31629469309E+03  0.00000000000E+00 0.  1.
      99926    2    1    2    0    0  0.71054273576E-14  0.00000000000E+00 -0.15542173130E+03  0.47716765488E+03  0.45114638013E+03 0.  0.
      99925    2    3    3    0    0 -0.60480794500E+02  0.56995494834E+02 -0.21990410389E+02  0.27627505065E+03  0.26256030265E+03 0.  0.
         25    1    4    4    0    0 -0.15579145284E+01  0.12229627279E+02 -0.34653759218E+02  0.13038551303E+03  0.12509000000E+03 0.  0.
         25    1    3    3    0    0  0.60480794500E+02 -0.56995494834E+02 -0.13343132091E+03  0.20089260423E+03  0.12509000000E+03 0.  0.
         25    1    4    4    0    0 -0.58922879972E+02  0.44765867555E+02  0.12663348828E+02  0.14588953762E+03  0.12509000000E+03 0.  0.
<mgrwt>
<rscale>  2 0.45114638E+03</rscale>
<asrwt>0</asrwt>
<pdfrwt beam="1">  1       21 0.23657789E-01 0.45114638E+03</pdfrwt>
<pdfrwt beam="2">  1       21 0.46513925E-01 0.45114638E+03</pdfrwt>
<totfact> 0.68993137E+04</totfact>
</mgrwt>
</event>
<event>
 7    0  0.4750554E-002  0.4551276E+03  0.7546771E-02  0.1026204E+00
         21   -1    0    0  502  501  0.00000000000E+00  0.00000000000E+00  0.52397744178E+03  0.52397744178E+03  0.00000000000E+00 0. -1.
         21   -1    0    0  501  502 -0.00000000000E+00 -0.00000000000E+00 -0.98831144201E+02  0.98831144201E+02  0.00000000000E+00 0. -1.
      99926    2    1    2    0    0  0.41633363423E-15 -0.14210854715E-13  0.42514629758E+03  0.62280858598E+03  0.45512763092E+03 0.  0.
      99925    2    3    3    0    0  0.24075427627E+00  0.85352794324E+02  0.36943329525E+03  0.46144996616E+03  0.26300181401E+03 0.  0.
         25    1    4    4    0    0  0.14579395715E+02  0.37712159961E+01  0.18226923818E+03  0.22157699370E+03  0.12509000000E+03 0.  0.
         25    1    4    4    0    0 -0.14338641439E+02  0.81581578328E+02  0.18716405707E+03  0.23987297246E+03  0.12509000000E+03 0.  0.
         25    1    3    3    0    0 -0.24075427627E+00 -0.85352794324E+02  0.55713002333E+02  0.16135861982E+03  0.12509000000E+03 0.  0.
<mgrwt>
<rscale>  2 0.45512763E+03</rscale>
<asrwt>0</asrwt>
<pdfrwt beam="1">  1       21 0.77055505E-01 0.45512763E+03</pdfrwt>
<pdfrwt beam="2">  1       21 0.14533992E-01 0.45512763E+03</pdfrwt>
<totfact> 0.57238150E+04</totfact>
</mgrwt>
</event>
<event>
 7    0  0.4750554E-002  0.4560738E+03  0.7546771E-02  0.1025926E+00
         21   -1    0    0  502  501  0.00000000000E+00  0.00000000000E+00  0.34956139489E+03  0.34956139489E+03  0.00000000000E+00 0. -1.
         21   -1    0    0  501  502 -0.00000000000E+00 -0.00000000000E+00 -0.14876019144E+03  0.14876019144E+03  0.00000000000E+00 0. -1.
      99926    2    1    2    0    0  0.00000000000E+00  0.00000000000E+00  0.20080120345E+03  0.49832158633E+03  0.45607376607E+03 0.  0.
      99925    2    3    3    0    0  0.90132704257E+02 -0.68145255681E+02  0.10887419965E+03  0.30631699687E+03  0.26307571339E+03 0.  0.
         25    1    3    3    0    0 -0.90132704257E+02  0.68145255681E+02  0.91927003794E+02  0.19200458946E+03  0.12509000000E+03 0.  0.
         25    1    4    4    0    0  0.62475608890E+02 -0.65177864180E+02  0.84428342036E+02  0.17586076516E+03  0.12509000000E+03 0.  0.
         25    1    4    4    0    0  0.27657095367E+02 -0.29673915008E+01  0.24445857619E+02  0.13045623171E+03  0.12509000000E+03 0.  0.
<mgrwt>
<rscale>  2 0.45607377E+03</rscale>
<asrwt>0</asrwt>
<pdfrwt beam="1">  1       21 0.51406088E-01 0.45607377E+03</pdfrwt>
<pdfrwt beam="2">  1       21 0.21876499E-01 0.45607377E+03</pdfrwt>
<totfact> 0.64834329E+04</totfact>
</mgrwt>
</event>
<event>
 7    0  0.4750554E-002  0.4691377E+03  0.7546771E-02  0.1022164E+00
         21   -1    0    0  502  501  0.00000000000E+00  0.00000000000E+00  0.43801048759E+02  0.43801048759E+02  0.00000000000E+00 0. -1.
         21   -1    0    0  501  502 -0.00000000000E+00 -0.00000000000E+00 -0.12561925420E+04  0.12561925420E+04  0.00000000000E+00 0. -1.
      99926    2    1    2    0    0 -0.14210854715E-13 -0.35527136788E-14 -0.12123914932E+04  0.12999935907E+04  0.46913772298E+03 0.  0.
      99925    2    3    3    0    0 -0.77598919995E+02  0.17253455971E+02 -0.48307321205E+03  0.55576786055E+03  0.26305686170E+03 0.  0.
         25    1    3    3    0    0  0.77598919995E+02 -0.17253455971E+02 -0.72931828115E+03  0.74422573017E+03  0.12509000000E+03 0.  0.
         25    1    4    4    0    0 -0.62258402493E+02  0.36417748927E+02 -0.29667621745E+03  0.32994946161E+03  0.12509000000E+03 0.  0.
         25    1    4    4    0    0 -0.15340517502E+02 -0.19164292956E+02 -0.18639699460E+03  0.22581839894E+03  0.12509000000E+03 0.  0.
<mgrwt>
<rscale>  2 0.46913772E+03</rscale>
<asrwt>0</asrwt>
<pdfrwt beam="1">  1       21 0.64413320E-02 0.46913772E+03</pdfrwt>
<pdfrwt beam="2">  1       21 0.18473416E+00 0.46913772E+03</pdfrwt>
<totfact> 0.26121205E+04</totfact>
</mgrwt>
</event>
<event>
 7    0  0.4750554E-002  0.4693074E+03  0.7546771E-02  0.1022116E+00
         21   -1    0    0  502  501  0.00000000000E+00  0.00000000000E+00  0.23949267918E+03  0.23949267918E+03  0.00000000000E+00 0. -1.
         21   -1    0    0  501  502 -0.00000000000E+00 -0.00000000000E+00 -0.22991253430E+03  0.22991253430E+03  0.00000000000E+00 0. -1.
      99926    2    1    2    0    0  0.14210854715E-13  0.35527136788E-14  0.95801448776E+01  0.46940521348E+03  0.46930744216E+03 0.  0.
      99925    2    3    3    0    0  0.95455477726E+02  0.18705163591E+02  0.87466169143E+02  0.29283972350E+03  0.26199836172E+03 0.  0.
         25    1    3    3    0    0 -0.95455477726E+02 -0.18705163591E+02 -0.77886024265E+02  0.17656548997E+03  0.12509000000E+03 0.  0.
         25    1    4    4    0    0  0.22595587740E+02  0.10829524028E+01  0.94950295802E+01  0.12747312288E+03  0.12509000000E+03 0.  0.
         25    1    4    4    0    0  0.72859889986E+02  0.17622211189E+02  0.77971139563E+02  0.16536660062E+03  0.12509000000E+03 0.  0.
<mgrwt>
<rscale>  2 0.46930744E+03</rscale>
<asrwt>0</asrwt>
<pdfrwt beam="1">  1       21 0.35219512E-01 0.46930744E+03</pdfrwt>
<pdfrwt beam="2">  1       21 0.33810666E-01 0.46930744E+03</pdfrwt>
<totfact> 0.60317623E+04</totfact>
</mgrwt>
</event>
<event>
 7    0  0.4750554E-002  0.4560774E+03  0.7546771E-02  0.1025925E+00
         21   -1    0    0  502  501  0.00000000000E+00  0.00000000000E+00  0.33844882469E+02  0.33844882469E+02  0.00000000000E+00 0.  1.
         21   -1    0    0  501  502 -0.00000000000E+00 -0.00000000000E+00 -0.15364700346E+04  0.15364700346E+04  0.00000000000E+00 0.  1.
      99926    2    1    2    0    0  0.71054273576E-14 -0.17763568394E-14 -0.15026251522E+04  0.15703149171E+04  0.45607739580E+03 0.  0.
      99925    2    3    3    0    0 -0.48655738693E+02 -0.34767855994E+01 -0.58939590355E+03  0.64726852738E+03  0.26303905884E+03 0.  0.
         25    1    4    4    0    0 -0.30478807659E+02  0.19477111269E+02 -0.37905400471E+03  0.40079640987E+03  0.12509000000E+03 0.  0.
         25    1    4    4    0    0 -0.18176931035E+02 -0.22953896868E+02 -0.21034189884E+03  0.24647211751E+03  0.12509000000E+03 0.  0.
         25    1    3    3    0    0  0.48655738693E+02  0.34767855994E+01 -0.91322924863E+03  0.92304638973E+03  0.12509000000E+03 0.  0.
<mgrwt>
<rscale>  2 0.45607740E+03</rscale>
<asrwt>0</asrwt>
<pdfrwt beam="1">  1       21 0.49771905E-02 0.45607740E+03</pdfrwt>
<pdfrwt beam="2">  1       21 0.22595139E+00 0.45607740E+03</pdfrwt>
<totfact> 0.21923250E+04</totfact>
</mgrwt>
</event>
<event>
 7    0  0.4750554E-002  0.3964409E+03  0.7546771E-02  0.1045019E+00
         21   -1    0    0  502  501  0.00000000000E+00  0.00000000000E+00  0.13554237073E+03  0.13554237073E+03  0.00000000000E+00 0.  1.
         21   -1    0    0  501  502 -0.00000000000E+00 -0.00000000000E+00 -0.28988244897E+03  0.28988244897E+03  0.00000000000E+00 0.  1.
      99926    2    1    2    0    0 -0.35527136788E-14 -0.71054273576E-14 -0.15434007824E+03  0.42542481971E+03  0.39644093819E+03 0.  0.
      99925    2    3    3    0    0 -0.93240067532E+01 -0.33736560145E+02 -0.11939181122E+03  0.29091094659E+03  0.26296327057E+03 0.  0.
         25    1    4    4    0    0 -0.29431294640E+02 -0.24803614441E+02 -0.26441805306E+02  0.13352189918E+03  0.12509000000E+03 0.  0.
         25    1    3    3    0    0  0.93240067532E+01  0.33736560145E+02 -0.34948267019E+02  0.13451387311E+03  0.12509000000E+03 0.  0.
         25    1    4    4    0    0  0.20107287887E+02 -0.89329457035E+01 -0.92950005917E+02  0.15738904741E+03  0.12509000000E+03 0.  0.
<mgrwt>
<rscale>  2 0.39644094E+03</rscale>
<asrwt>0</asrwt>
<pdfrwt beam="1">  1       21 0.19932702E-01 0.39644094E+03</pdfrwt>
<pdfrwt beam="2">  1       21 0.42629772E-01 0.39644094E+03</pdfrwt>
<totfact> 0.11621837E+05</totfact>
</mgrwt>
</event>
<event>
 7    0  0.4750554E-002  0.4556624E+03  0.7546771E-02  0.1026047E+00
         21   -1    0    0  502  501  0.00000000000E+00  0.00000000000E+00  0.41565916684E+03  0.41565916684E+03  0.00000000000E+00 0. -1.
         21   -1    0    0  501  502 -0.00000000000E+00 -0.00000000000E+00 -0.12487887280E+03  0.12487887280E+03  0.00000000000E+00 0. -1.
      99926    2    1    2    0    0  0.00000000000E+00 -0.71054273576E-14  0.29078029404E+03  0.54053803965E+03  0.45566236722E+03 0.  0.
      99925    2    3    3    0    0 -0.99366618625E+02  0.33635633418E+02  0.23499280910E+03  0.36801316518E+03  0.26307221193E+03 0.  0.
         25    1    4    4    0    0 -0.70453399264E+02  0.34122273984E+01  0.16483673561E+03  0.21861834843E+03  0.12509000000E+03 0.  0.
         25    1    4    4    0    0 -0.28913219361E+02  0.30223406020E+02  0.70156073487E+02  0.14939481675E+03  0.12509000000E+03 0.  0.
         25    1    3    3    0    0  0.99366618625E+02 -0.33635633418E+02  0.55787484945E+02  0.17252487446E+03  0.12509000000E+03 0.  0.
<mgrwt>
<rscale>  2 0.45566237E+03</rscale>
<asrwt>0</asrwt>
<pdfrwt beam="1">  1       21 0.61126347E-01 0.45566237E+03</pdfrwt>
<pdfrwt beam="2">  1       21 0.18364540E-01 0.45566237E+03</pdfrwt>
<totfact> 0.62169605E+04</totfact>
</mgrwt>
</event>
<event>
 7    0  0.4750554E-002  0.4534654E+03  0.7546771E-02  0.1026694E+00
         21   -1    0    0  502  501  0.00000000000E+00  0.00000000000E+00  0.70242796461E+03  0.70242796461E+03  0.00000000000E+00 0.  1.
         21   -1    0    0  501  502 -0.00000000000E+00 -0.00000000000E+00 -0.73185754050E+02  0.73185754050E+02  0.00000000000E+00 0.  1.
      99926    2    1    2    0    0  0.00000000000E+00 -0.44408920985E-14  0.62924221056E+03  0.77561371866E+03  0.45346541326E+03 0.  0.
      99925    2    3    3    0    0 -0.27066995837E+02  0.65557395895E+01  0.58131103029E+03  0.63879081807E+03  0.26335450504E+03 0.  0.
         25    1    4    4    0    0  0.12515971753E+02  0.34039267064E+02  0.26627739403E+03  0.29642280601E+03  0.12509000000E+03 0.  0.
         25    1    3    3    0    0  0.27066995837E+02 -0.65557395895E+01  0.47931180276E+02  0.13682290060E+03  0.12509000000E+03 0.  0.
         25    1    4    4    0    0 -0.39582967590E+02 -0.27483527474E+02  0.31503363626E+03  0.34236801206E+03  0.12509000000E+03 0.  0.
<mgrwt>
<rscale>  2 0.45346541E+03</rscale>
<asrwt>0</asrwt>
<pdfrwt beam="1">  1       21 0.10329823E+00 0.45346541E+03</pdfrwt>
<pdfrwt beam="2">  1       21 0.10762611E-01 0.45346541E+03</pdfrwt>
<totfact> 0.49561304E+04</totfact>
</mgrwt>
</event>
<event>
 7    0  0.4750554E-002  0.4063317E+03  0.7546771E-02  0.1041609E+00
         21   -1    0    0  502  501  0.00000000000E+00  0.00000000000E+00  0.23328074587E+02  0.23328074587E+02  0.00000000000E+00 0. -1.
         21   -1    0    0  501  502 -0.00000000000E+00 -0.00000000000E+00 -0.17693858273E+04  0.17693858273E+04  0.00000000000E+00 0. -1.
      99926    2    1    2    0    0 -0.71054273576E-14  0.00000000000E+00 -0.17460577527E+04  0.17927139019E+04  0.40633170958E+03 0.  0.
      99925    2    3    3    0    0  0.36858868567E+02 -0.33561857956E+02 -0.10374874314E+04  0.10714619467E+04  0.26299345702E+03 0.  0.
         25    1    4    4    0    0  0.55981921035E+02 -0.12993042807E+02 -0.47475330522E+03  0.49430861166E+03  0.12509000000E+03 0.  0.
         25    1    4    4    0    0 -0.19123052468E+02 -0.20568815149E+02 -0.56273412622E+03  0.57715333509E+03  0.12509000000E+03 0.  0.
         25    1    3    3    0    0 -0.36858868567E+02  0.33561857956E+02 -0.70857032128E+03  0.72125195514E+03  0.12509000000E+03 0.  0.
<mgrwt>
<rscale>  2 0.40633171E+03</rscale>
<asrwt>0</asrwt>
<pdfrwt beam="1">  1       21 0.34305987E-02 0.40633171E+03</pdfrwt>
<pdfrwt beam="2">  1       21 0.26020383E+00 0.40633171E+03</pdfrwt>
<totfact> 0.25883546E+04</totfact>
</mgrwt>
</event>
<event>
 7    0  0.4750554E-002  0.4579135E+03  0.7546771E-02  0.1025388E+00
         21   -1    0    0  502  501  0.00000000000E+00  0.00000000000E+00  0.53897246512E+03  0.53897246512E+03  0.00000000000E+00 0. -1.
         21   -1    0    0  501  502 -0.00000000000E+00 -0.00000000000E+00 -0.97261347149E+02  0.97261347149E+02  0.00000000000E+00 0. -1.
      99926    2    1    2    0    0  0.00000000000E+00  0.00000000000E+00  0.44171111797E+03  0.63623381227E+03  0.45791347669E+03 0.  0.
      99925    2    3    3    0    0 -0.92021101167E+02 -0.69639853859E+02  0.28495140743E+03  0.40484948424E+03  0.26341641557E+03 0.  0.
         25    1    3    3    0    0  0.92021101167E+02  0.69639853859E+02  0.15675971055E+03  0.23138432803E+03  0.12509000000E+03 0.  0.
         25    1    4    4    0    0 -0.35268957406E+02  0.13390424105E+01  0.10136046918E+03  0.16482458920E+03  0.12509000000E+03 0.  0.
         25    1    4    4    0    0 -0.56752143762E+02 -0.70978896270E+02  0.18359093824E+03  0.24002489505E+03  0.12509000000E+03 0.  0.
<mgrwt>
<rscale>  2 0.45791348E+03</rscale>
<asrwt>0</asrwt>
<pdfrwt beam="1">  1       21 0.79260656E-01 0.45791348E+03</pdfrwt>
<pdfrwt beam="2">  1       21 0.14303139E-01 0.45791348E+03</pdfrwt>
<totfact> 0.55220804E+04</totfact>
</mgrwt>
</event>
<event>
 7    0  0.4750554E-002  0.4577001E+03  0.7546771E-02  0.1025450E+00
         21   -1    0    0  502  501  0.00000000000E+00  0.00000000000E+00  0.74387101102E+03  0.74387101102E+03  0.00000000000E+00 0.  1.
         21   -1    0    0  501  502 -0.00000000000E+00 -0.00000000000E+00 -0.70405142446E+02  0.70405142446E+02  0.00000000000E+00 0.  1.
      99926    2    1    2    0    0  0.00000000000E+00  0.00000000000E+00  0.67346586857E+03  0.81427615347E+03  0.45770009610E+03 0.  0.
      99925    2    3    3    0    0  0.88087834484E+02  0.11561609181E+02  0.55626759765E+03  0.62120601026E+03  0.26185898800E+03 0.  0.
         25    1    4    4    0    0  0.49086262189E+01  0.15818071504E+02  0.24760767069E+03  0.27790533043E+03  0.12509000000E+03 0.  0.
         25    1    3    3    0    0 -0.88087834484E+02 -0.11561609181E+02  0.11719827092E+03  0.19307014321E+03  0.12509000000E+03 0.  0.
         25    1    4    4    0    0  0.83179208265E+02 -0.42564623233E+01  0.30865992696E+03  0.34330067983E+03  0.12509000000E+03 0.  0.
<mgrwt>
<rscale>  2 0.45770010E+03</rscale>
<asrwt>0</asrwt>
<pdfrwt beam="1">  1       21 0.10939279E+00 0.45770010E+03</pdfrwt>
<pdfrwt beam="2">  1       21 0.10353698E-01 0.45770010E+03</pdfrwt>
<totfact> 0.46097548E+04</totfact>
</mgrwt>
</event>
<event>
 7    0  0.4750554E-002  0.4623120E+03  0.7546771E-02  0.1024113E+00
         21   -1    0    0  502  501  0.00000000000E+00  0.00000000000E+00  0.10509146830E+03  0.10509146830E+03  0.00000000000E+00 0.  1.
         21   -1    0    0  501  502 -0.00000000000E+00 -0.00000000000E+00 -0.50844381353E+03  0.50844381353E+03  0.00000000000E+00 0.  1.
      99926    2    1    2    0    0  0.00000000000E+00 -0.14210854715E-13 -0.40335234523E+03  0.61353528183E+03  0.46231204576E+03 0.  0.
      99925    2    3    3    0    0  0.91466112051E+02 -0.74645675437E+02 -0.22426864579E+03  0.36522800039E+03  0.26297726188E+03 0.  0.
         25    1    4    4    0    0  0.35708590673E+02 -0.73178070568E+02 -0.13856788819E+03  0.20366320531E+03  0.12509000000E+03 0.  0.
         25    1    4    4    0    0  0.55757521379E+02 -0.14676048692E+01 -0.85700757603E+02  0.16156479508E+03  0.12509000000E+03 0.  0.
         25    1    3    3    0    0 -0.91466112051E+02  0.74645675437E+02 -0.17908369944E+03  0.24830728145E+03  0.12509000000E+03 0.  0.
<mgrwt>
<rscale>  2 0.46231205E+03</rscale>
<asrwt>0</asrwt>
<pdfrwt beam="1">  1       21 0.15454628E-01 0.46231205E+03</pdfrwt>
<pdfrwt beam="2">  1       21 0.74771149E-01 0.46231205E+03</pdfrwt>
<totfact> 0.54628741E+04</totfact>
</mgrwt>
</event>
<event>
 7    0  0.4750554E-002  0.4551494E+03  0.7546771E-02  0.1026197E+00
         21   -1    0    0  502  501  0.00000000000E+00  0.00000000000E+00  0.11045416895E+04  0.11045416895E+04  0.00000000000E+00 0.  1.
         21   -1    0    0  501  502 -0.00000000000E+00 -0.00000000000E+00 -0.46888448739E+02  0.46888448739E+02  0.00000000000E+00 0.  1.
      99926    2    1    2    0    0  0.14210854715E-13  0.00000000000E+00  0.10576532407E+04  0.11514301382E+04  0.45514941014E+03 0.  0.
      99925    2    3    3    0    0  0.77474523006E+02  0.79189530481E+02  0.60451071340E+03  0.66846125554E+03  0.26293338336E+03 0.  0.
         25    1    4    4    0    0  0.47710900001E+01  0.49929211692E+02  0.33656863639E+03  0.36254881682E+03  0.12509000000E+03 0.  0.
         25    1    4    4    0    0  0.72703433006E+02  0.29260318789E+02  0.26794207701E+03  0.30591243871E+03  0.12509000000E+03 0.  0.
         25    1    3    3    0    0 -0.77474523006E+02 -0.79189530481E+02  0.45314252734E+03  0.48296888268E+03  0.12509000000E+03 0.  0.
<mgrwt>
<rscale>  2 0.45514941E+03</rscale>
<asrwt>0</asrwt>
<pdfrwt beam="1">  1       21 0.16243258E+00 0.45514941E+03</pdfrwt>
<pdfrwt beam="2">  1       21 0.68953608E-02 0.45514941E+03</pdfrwt>
<totfact> 0.33695401E+04</totfact>
</mgrwt>
</event>
<event>
 7    0  0.4750554E-002  0.4118583E+03  0.7546771E-02  0.1039749E+00
         21   -1    0    0  502  501  0.00000000000E+00  0.00000000000E+00  0.36718131492E+03  0.36718131492E+03  0.00000000000E+00 0. -1.
         21   -1    0    0  501  502 -0.00000000000E+00 -0.00000000000E+00 -0.11549284427E+03  0.11549284427E+03  0.00000000000E+00 0. -1.
      99926    2    1    2    0    0 -0.35527136788E-14  0.00000000000E+00  0.25168847065E+03  0.48267415919E+03  0.41185829807E+03 0.  0.
      99925    2    3    3    0    0 -0.16564520725E+02 -0.61215952082E+02  0.18107028784E+03  0.32565119278E+03  0.26313584720E+03 0.  0.
         25    1    4    4    0    0  0.17595194747E+01 -0.55746224748E+01  0.12389454279E+03  0.17615770820E+03  0.12509000000E+03 0.  0.
         25    1    4    4    0    0 -0.18324040199E+02 -0.55641329607E+02  0.57175745045E+02  0.14949348458E+03  0.12509000000E+03 0.  0.
         25    1    3    3    0    0  0.16564520725E+02  0.61215952082E+02  0.70618182814E+02  0.15702296641E+03  0.12509000000E+03 0.  0.
<mgrwt>
<rscale>  2 0.41185830E+03</rscale>
<asrwt>0</asrwt>
<pdfrwt beam="1">  1       21 0.53997252E-01 0.41185830E+03</pdfrwt>
<pdfrwt beam="2">  1       21 0.16984242E-01 0.41185830E+03</pdfrwt>
<totfact> 0.95127924E+04</totfact>
</mgrwt>
</event>
<event>
 7    0  0.4750554E-002  0.4528491E+03  0.7546771E-02  0.1026876E+00
         21   -1    0    0  502  501  0.00000000000E+00  0.00000000000E+00  0.16189676028E+03  0.16189676028E+03  0.00000000000E+00 0.  1.
         21   -1    0    0  501  502 -0.00000000000E+00 -0.00000000000E+00 -0.31667144296E+03  0.31667144296E+03  0.00000000000E+00 0.  1.
      99926    2    1    2    0    0  0.00000000000E+00  0.00000000000E+00 -0.15477468267E+03  0.47856820324E+03  0.45284911699E+03 0.  0.
      99925    2    3    3    0    0 -0.86426637085E+02  0.49599776753E+02 -0.14965965414E+03  0.31855766275E+03  0.26296629245E+03 0.  0.
         25    1    3    3    0    0  0.86426637085E+02 -0.49599776753E+02 -0.51150285329E+01  0.16001054049E+03  0.12509000000E+03 0.  0.
         25    1    4    4    0    0 -0.10665496679E+02  0.44690749801E+02 -0.54287844172E+02  0.14389473257E+03  0.12509000000E+03 0.  0.
         25    1    4    4    0    0 -0.75761140406E+02  0.49090269522E+01 -0.95371809965E+02  0.17466293017E+03  0.12509000000E+03 0.  0.
<mgrwt>
<rscale>  2 0.45284912E+03</rscale>
<asrwt>0</asrwt>
<pdfrwt beam="1">  1       21 0.23808348E-01 0.45284912E+03</pdfrwt>
<pdfrwt beam="2">  1       21 0.46569329E-01 0.45284912E+03</pdfrwt>
<totfact> 0.67957273E+04</totfact>
</mgrwt>
</event>
<event>
 7    0  0.4750554E-002  0.4452199E+03  0.7546771E-02  0.1029157E+00
         21   -1    0    0  502  501  0.00000000000E+00  0.00000000000E+00  0.52235710692E+03  0.52235710692E+03  0.00000000000E+00 0. -1.
         21   -1    0    0  501  502 -0.00000000000E+00 -0.00000000000E+00 -0.94868411278E+02  0.94868411278E+02  0.00000000000E+00 0. -1.
      99926    2    1    2    0    0  0.00000000000E+00 -0.14210854715E-13  0.42748869564E+03  0.61722551820E+03  0.44521989557E+03 0.  0.
      99925    2    3    3    0    0 -0.56068181642E+02  0.77500193918E+02  0.21566204047E+03  0.35327862773E+03  0.26295579868E+03 0.  0.
         25    1    4    4    0    0 -0.15352525971E+01  0.49488356136E+01  0.10040942863E+03  0.16048803517E+03  0.12509000000E+03 0.  0.
         25    1    3    3    0    0  0.56068181642E+02 -0.77500193918E+02  0.21182665517E+03  0.26394689047E+03  0.12509000000E+03 0.  0.
         25    1    4    4    0    0 -0.54532929045E+02  0.72551358304E+02  0.11525261184E+03  0.19279059256E+03  0.12509000000E+03 0.  0.
<mgrwt>
<rscale>  2 0.44521990E+03</rscale>
<asrwt>0</asrwt>
<pdfrwt beam="1">  1       21 0.76817220E-01 0.44521990E+03</pdfrwt>
<pdfrwt beam="2">  1       21 0.13951237E-01 0.44521990E+03</pdfrwt>
<totfact> 0.62304520E+04</totfact>
</mgrwt>
</event>
<event>
 7    0  0.4750554E-002  0.4499943E+03  0.7546771E-02  0.1027724E+00
         21   -1    0    0  502  501  0.00000000000E+00  0.00000000000E+00  0.20947073389E+03  0.20947073389E+03  0.00000000000E+00 0. -1.
         21   -1    0    0  501  502 -0.00000000000E+00 -0.00000000000E+00 -0.24167445547E+03  0.24167445547E+03  0.00000000000E+00 0. -1.
      99926    2    1    2    0    0  0.00000000000E+00  0.00000000000E+00 -0.32203721581E+02  0.45114518936E+03  0.44999433574E+03 0.  0.
      99925    2    3    3    0    0  0.27092542415E+02 -0.16626534783E+02  0.82259302690E+02  0.27863507505E+03  0.26431130255E+03 0.  0.
         25    1    4    4    0    0  0.38459976773E+02  0.20602726357E+02  0.21460083597E+02  0.13420762063E+03  0.12509000000E+03 0.  0.
         25    1    4    4    0    0 -0.11367434357E+02 -0.37229261140E+02  0.60799219093E+02  0.14442745442E+03  0.12509000000E+03 0.  0.
         25    1    3    3    0    0 -0.27092542415E+02  0.16626534783E+02 -0.11446302427E+03  0.17251011431E+03  0.12509000000E+03 0.  0.
<mgrwt>
<rscale>  2 0.44999434E+03</rscale>
<asrwt>0</asrwt>
<pdfrwt beam="1">  1       21 0.30804520E-01 0.44999434E+03</pdfrwt>
<pdfrwt beam="2">  1       21 0.35540361E-01 0.44999434E+03</pdfrwt>
<totfact> 0.71648237E+04</totfact>
</mgrwt>
</event>
<event>
 7    0  0.4750554E-002  0.4522831E+03  0.7546771E-02  0.1027043E+00
         21   -1    0    0  502  501  0.00000000000E+00  0.00000000000E+00  0.14536718145E+04  0.14536718145E+04  0.00000000000E+00 0. -1.
         21   -1    0    0  501  502 -0.00000000000E+00 -0.00000000000E+00 -0.35179883319E+02  0.35179883319E+02  0.00000000000E+00 0. -1.
      99926    2    1    2    0    0  0.00000000000E+00  0.00000000000E+00  0.14184919312E+04  0.14888516978E+04  0.45228311849E+03 0.  0.
      99925    2    3    3    0    0  0.83729544582E+02  0.71060355380E+02  0.92822406077E+03  0.97109663643E+03  0.26337911751E+03 0.  0.
         25    1    4    4    0    0  0.58143640453E+02  0.35785472294E+02  0.35013676093E+03  0.37802717152E+03  0.12509000000E+03 0.  0.
         25    1    4    4    0    0  0.25585904129E+02  0.35274883087E+02  0.57808729984E+03  0.59306946491E+03  0.12509000000E+03 0.  0.
         25    1    3    3    0    0 -0.83729544582E+02 -0.71060355380E+02  0.49026787041E+03  0.51775506140E+03  0.12509000000E+03 0.  0.
<mgrwt>
<rscale>  2 0.45228312E+03</rscale>
<asrwt>0</asrwt>
<pdfrwt beam="1">  1       21 0.21377523E+00 0.45228312E+03</pdfrwt>
<pdfrwt beam="2">  1       21 0.51735132E-02 0.45228312E+03</pdfrwt>
<totfact> 0.24568088E+04</totfact>
</mgrwt>
</event>
<event>
 7    0  0.4750554E-002  0.4592707E+03  0.7546771E-02  0.1024993E+00
         21   -1    0    0  502  501  0.00000000000E+00  0.00000000000E+00  0.68906152453E+03  0.68906152453E+03  0.00000000000E+00 0.  1.
         21   -1    0    0  501  502 -0.00000000000E+00 -0.00000000000E+00 -0.76527845819E+02  0.76527845819E+02  0.00000000000E+00 0.  1.
      99926    2    1    2    0    0  0.00000000000E+00  0.35527136788E-14  0.61253367871E+03  0.76558937035E+03  0.45927070061E+03 0.  0.
      99925    2    3    3    0    0  0.70830300087E+02  0.31287893572E+02  0.53049370083E+03  0.59714374183E+03  0.26298520509E+03 0.  0.
         25    1    4    4    0    0  0.41595041423E+02  0.54226848561E+02  0.30370871320E+03  0.33549543835E+03  0.12509000000E+03 0.  0.
         25    1    3    3    0    0 -0.70830300087E+02 -0.31287893572E+02  0.82039977877E+02  0.16844562851E+03  0.12509000000E+03 0.  0.
         25    1    4    4    0    0  0.29235258664E+02 -0.22938954989E+02  0.22678498763E+03  0.26164830349E+03  0.12509000000E+03 0.  0.
<mgrwt>
<rscale>  2 0.45927070E+03</rscale>
<asrwt>0</asrwt>
<pdfrwt beam="1">  1       21 0.10133257E+00 0.45927070E+03</pdfrwt>
<pdfrwt beam="2">  1       21 0.11254095E-01 0.45927070E+03</pdfrwt>
<totfact> 0.47849511E+04</totfact>
</mgrwt>
</event>
<event>
 7    0  0.4750554E-002  0.4541461E+03  0.7546771E-02  0.1026493E+00
         21   -1    0    0  502  501  0.00000000000E+00  0.00000000000E+00  0.21975507057E+03  0.21975507057E+03  0.00000000000E+00 0.  1.
         21   -1    0    0  501  502 -0.00000000000E+00 -0.00000000000E+00 -0.23463468333E+03  0.23463468333E+03  0.00000000000E+00 0.  1.
      99926    2    1    2    0    0  0.00000000000E+00 -0.71054273576E-14 -0.14879612762E+02  0.45438975390E+03  0.45414606194E+03 0.  0.
      99925    2    3    3    0    0  0.31417500921E+02 -0.53052763184E+02 -0.10334140476E+03  0.28923936247E+03  0.26301769488E+03 0.  0.
         25    1    4    4    0    0  0.22525071603E+02  0.13984458823E+02 -0.45414236076E+02  0.13569415934E+03  0.12509000000E+03 0.  0.
         25    1    3    3    0    0 -0.31417500921E+02  0.53052763184E+02  0.88461792000E+02  0.16515039143E+03  0.12509000000E+03 0.  0.
         25    1    4    4    0    0  0.88924293174E+01 -0.67037222007E+02 -0.57927168686E+02  0.15354520313E+03  0.12509000000E+03 0.  0.
<mgrwt>
<rscale>  2 0.45414606E+03</rscale>
<asrwt>0</asrwt>
<pdfrwt beam="1">  1       21 0.32316922E-01 0.45414606E+03</pdfrwt>
<pdfrwt beam="2">  1       21 0.34505100E-01 0.45414606E+03</pdfrwt>
<totfact> 0.69059876E+04</totfact>
</mgrwt>
</event>
<event>
 7    0  0.4750554E-002  0.4526418E+03  0.7546771E-02  0.1026937E+00
         21   -1    0    0  502  501  0.00000000000E+00  0.00000000000E+00  0.15582188489E+03  0.15582188489E+03  0.00000000000E+00 0. -1.
         21   -1    0    0  501  502 -0.00000000000E+00 -0.00000000000E+00 -0.32871604802E+03  0.32871604802E+03  0.00000000000E+00 0. -1.
      99926    2    1    2    0    0  0.00000000000E+00  0.00000000000E+00 -0.17289416313E+03  0.48453793290E+03  0.45264181952E+03 0.  0.
      99925    2    3    3    0    0 -0.94496744140E+02  0.39719120087E+02 -0.15487246710E+03  0.32181260364E+03  0.26281291377E+03 0.  0.
         25    1    4    4    0    0 -0.45607085454E+02  0.13970916093E+02 -0.12209193626E+03  0.18118813907E+03  0.12509000000E+03 0.  0.
         25    1    3    3    0    0  0.94496744140E+02 -0.39719120087E+02 -0.18021696035E+02  0.16272532926E+03  0.12509000000E+03 0.  0.
         25    1    4    4    0    0 -0.48889658686E+02  0.25748203994E+02 -0.32780530839E+02  0.14062446458E+03  0.12509000000E+03 0.  0.
<mgrwt>
<rscale>  2 0.45264182E+03</rscale>
<asrwt>0</asrwt>
<pdfrwt beam="1">  1       21 0.22914983E-01 0.45264182E+03</pdfrwt>
<pdfrwt beam="2">  1       21 0.48340595E-01 0.45264182E+03</pdfrwt>
<totfact> 0.67628416E+04</totfact>
</mgrwt>
</event>
<event>
 7    0  0.4750554E-002  0.4531091E+03  0.7546771E-02  0.1026799E+00
         21   -1    0    0  502  501  0.00000000000E+00  0.00000000000E+00  0.99226339890E+02  0.99226339890E+02  0.00000000000E+00 0.  1.
         21   -1    0    0  501  502 -0.00000000000E+00 -0.00000000000E+00 -0.51727151147E+03  0.51727151147E+03  0.00000000000E+00 0.  1.
      99926    2    1    2    0    0  0.00000000000E+00 -0.14210854715E-13 -0.41804517158E+03  0.61649785136E+03  0.45310907655E+03 0.  0.
      99925    2    3    3    0    0  0.76175232546E+02 -0.79064261437E+02 -0.28899544339E+03  0.40589119445E+03  0.26301230378E+03 0.  0.
         25    1    4    4    0    0  0.61235734027E+02 -0.50571657011E+02 -0.20055286846E+03  0.24935169693E+03  0.12509000000E+03 0.  0.
         25    1    4    4    0    0  0.14939498520E+02 -0.28492604426E+02 -0.88442574927E+02  0.15653949752E+03  0.12509000000E+03 0.  0.
         25    1    3    3    0    0 -0.76175232546E+02  0.79064261437E+02 -0.12904972820E+03  0.21060665692E+03  0.12509000000E+03 0.  0.
<mgrwt>
<rscale>  2 0.45310908E+03</rscale>
<asrwt>0</asrwt>
<pdfrwt beam="1">  1       21 0.14592109E-01 0.45310908E+03</pdfrwt>
<pdfrwt beam="2">  1       21 0.76069339E-01 0.45310908E+03</pdfrwt>
<totfact> 0.58543457E+04</totfact>
</mgrwt>
</event>
<event>
 7    0  0.4750554E-002  0.4551889E+03  0.7546771E-02  0.1026186E+00
         21   -1    0    0  502  501  0.00000000000E+00  0.00000000000E+00  0.19540817726E+03  0.19540817726E+03  0.00000000000E+00 0.  1.
         21   -1    0    0  501  502 -0.00000000000E+00 -0.00000000000E+00 -0.26508224215E+03  0.26508224215E+03  0.00000000000E+00 0.  1.
      99926    2    1    2    0    0  0.00000000000E+00  0.00000000000E+00 -0.69674064891E+02  0.46049041941E+03  0.45518891798E+03 0.  0.
      99925    2    3    3    0    0 -0.20140410742E+02 -0.74795219207E+02 -0.12678610199E+03  0.30266376183E+03  0.26368670066E+03 0.  0.
         25    1    4    4    0    0 -0.11920028184E+02 -0.42668423086E+01 -0.88701755285E+02  0.15386943331E+03  0.12509000000E+03 0.  0.
         25    1    3    3    0    0  0.20140410742E+02  0.74795219207E+02  0.57112037103E+02  0.15782665758E+03  0.12509000000E+03 0.  0.
         25    1    4    4    0    0 -0.82203825578E+01 -0.70528376898E+02 -0.38084346708E+02  0.14879432853E+03  0.12509000000E+03 0.  0.
<mgrwt>
<rscale>  2 0.45518892E+03</rscale>
<asrwt>0</asrwt>
<pdfrwt beam="1">  1       21 0.28736497E-01 0.45518892E+03</pdfrwt>
<pdfrwt beam="2">  1       21 0.38982682E-01 0.45518892E+03</pdfrwt>
<totfact> 0.68042268E+04</totfact>
</mgrwt>
</event>
<event>
 7    0  0.4750554E-002  0.4930429E+03  0.7546771E-02  0.1015611E+00
         21   -1    0    0  502  501  0.00000000000E+00  0.00000000000E+00  0.22648114726E+03  0.22648114726E+03  0.00000000000E+00 0.  1.
         21   -1    0    0  501  502 -0.00000000000E+00 -0.00000000000E+00 -0.26833505836E+03  0.26833505836E+03  0.00000000000E+00 0.  1.
      99926    2    1    2    0    0  0.00000000000E+00  0.00000000000E+00 -0.41853911103E+02  0.49481620562E+03  0.49304292660E+03 0.  0.
      99925    2    3    3    0    0 -0.22859054775E+02  0.12241716416E+03  0.51205564624E+02  0.29527655395E+03  0.26278838444E+03 0.  0.
         25    1    4    4    0    0 -0.37303904946E+02  0.78823836537E+02 -0.10043787043E+00  0.15248703787E+03  0.12509000000E+03 0.  0.
         25    1    4    4    0    0  0.14444850171E+02  0.43593327624E+02  0.51306002494E+02  0.14278951608E+03  0.12509000000E+03 0.  0.
         25    1    3    3    0    0  0.22859054775E+02 -0.12241716416E+03 -0.93059475727E+02  0.19953965167E+03  0.12509000000E+03 0.  0.
<mgrwt>
<rscale>  2 0.49304293E+03</rscale>
<asrwt>0</asrwt>
<pdfrwt beam="1">  1       21 0.33306051E-01 0.49304293E+03</pdfrwt>
<pdfrwt beam="2">  1       21 0.39461038E-01 0.49304293E+03</pdfrwt>
<totfact> 0.49054236E+04</totfact>
</mgrwt>
</event>
<event>
 7    0  0.4750554E-002  0.4546993E+03  0.7546771E-02  0.1026330E+00
         21   -1    0    0  502  501  0.00000000000E+00  0.00000000000E+00  0.78517484239E+03  0.78517484239E+03  0.00000000000E+00 0.  1.
         21   -1    0    0  501  502 -0.00000000000E+00 -0.00000000000E+00 -0.65829745866E+02  0.65829745866E+02  0.00000000000E+00 0.  1.
      99926    2    1    2    0    0  0.14210854715E-13  0.00000000000E+00  0.71934509652E+03  0.85100458825E+03  0.45469928672E+03 0.  0.
      99925    2    3    3    0    0 -0.10987080927E+03  0.22082629933E+02  0.47632570651E+03  0.55559780212E+03  0.26314160021E+03 0.  0.
         25    1    4    4    0    0 -0.93797339105E+02  0.28172397512E+02  0.28683787111E+03  0.32789494844E+03  0.12509000000E+03 0.  0.
         25    1    4    4    0    0 -0.16073470161E+02 -0.60897675790E+01  0.18948783540E+03  0.22770285369E+03  0.12509000000E+03 0.  0.
         25    1    3    3    0    0  0.10987080927E+03 -0.22082629933E+02  0.24301939001E+03  0.29540678613E+03  0.12509000000E+03 0.  0.
<mgrwt>
<rscale>  2 0.45469929E+03</rscale>
<asrwt>0</asrwt>
<pdfrwt beam="1">  1       21 0.11546688E+00 0.45469929E+03</pdfrwt>
<pdfrwt beam="2">  1       21 0.96808455E-02 0.45469929E+03</pdfrwt>
<totfact> 0.45501712E+04</totfact>
</mgrwt>
</event>
<event>
 7    0  0.4750554E-002  0.4482467E+03  0.7546771E-02  0.1028246E+00
         21   -1    0    0  502  501  0.00000000000E+00  0.00000000000E+00  0.15457281392E+04  0.15457281392E+04  0.00000000000E+00 0. -1.
         21   -1    0    0  501  502 -0.00000000000E+00 -0.00000000000E+00 -0.32496841350E+02  0.32496841350E+02  0.00000000000E+00 0. -1.
      99926    2    1    2    0    0  0.88817841970E-15  0.00000000000E+00  0.15132312979E+04  0.15782249806E+04  0.44824672719E+03 0.  0.
      99925    2    3    3    0    0 -0.18310255086E+01  0.61704685501E+02  0.65225225867E+03  0.70601902157E+03  0.26309509501E+03 0.  0.
         25    1    4    4    0    0  0.36028558816E+02  0.42209326804E+02  0.36573332310E+03  0.39049719083E+03  0.12509000000E+03 0.  0.
         25    1    3    3    0    0  0.18310255086E+01 -0.61704685501E+02  0.86097903920E+03  0.87220595900E+03  0.12509000000E+03 0.  0.
         25    1    4    4    0    0 -0.37859584325E+02  0.19495358697E+02  0.28651893557E+03  0.31552183074E+03  0.12509000000E+03 0.  0.
<mgrwt>
<rscale>  2 0.44824673E+03</rscale>
<asrwt>0</asrwt>
<pdfrwt beam="1">  1       21 0.22731291E+00 0.44824673E+03</pdfrwt>
<pdfrwt beam="2">  1       21 0.47789483E-02 0.44824673E+03</pdfrwt>
<totfact> 0.23114088E+04</totfact>
</mgrwt>
</event>
<event>
 7    0  0.4750554E-002  0.4547701E+03  0.7546771E-02  0.1026309E+00
         21   -1    0    0  502  501  0.00000000000E+00  0.00000000000E+00  0.28319932255E+03  0.28319932255E+03  0.00000000000E+00 0.  1.
         21   -1    0    0  501  502 -0.00000000000E+00 -0.00000000000E+00 -0.18257092731E+03  0.18257092731E+03  0.00000000000E+00 0.  1.
      99926    2    1    2    0    0  0.00000000000E+00 -0.17763568394E-14  0.10062839524E+03  0.46577024986E+03  0.45477010866E+03 0.  0.
      99925    2    3    3    0    0 -0.36332703345E+02 -0.11106840117E+01 -0.45891949144E+02  0.26971663890E+03  0.26328633719E+03 0.  0.
         25    1    3    3    0    0  0.36332703345E+02  0.11106840117E+01  0.14652034439E+03  0.19605361096E+03  0.12509000000E+03 0.  0.
         25    1    4    4    0    0 -0.53959466748E+02 -0.20530675337E+02 -0.29080158230E+02  0.14080588192E+03  0.12509000000E+03 0.  0.
         25    1    4    4    0    0  0.17626763403E+02  0.19419991326E+02 -0.16811790914E+02  0.12891075698E+03  0.12509000000E+03 0.  0.
<mgrwt>
<rscale>  2 0.45477011E+03</rscale>
<asrwt>0</asrwt>
<pdfrwt beam="1">  1       21 0.41646960E-01 0.45477011E+03</pdfrwt>
<pdfrwt beam="2">  1       21 0.26848666E-01 0.45477011E+03</pdfrwt>
<totfact> 0.67875733E+04</totfact>
</mgrwt>
</event>
<event>
 7    0  0.4750554E-002  0.4567688E+03  0.7546771E-02  0.1025723E+00
         21   -1    0    0  502  501  0.00000000000E+00  0.00000000000E+00  0.85568716358E+02  0.85568716358E+02  0.00000000000E+00 0. -1.
         21   -1    0    0  501  502 -0.00000000000E+00 -0.00000000000E+00 -0.60956200158E+03  0.60956200158E+03  0.00000000000E+00 0. -1.
      99926    2    1    2    0    0  0.14210854715E-13  0.00000000000E+00 -0.52399328522E+03  0.69513071794E+03  0.45676881687E+03 0.  0.
      99925    2    3    3    0    0 -0.10144621535E+03  0.10655553302E+02 -0.24871761550E+03  0.37602403066E+03  0.26292345644E+03 0.  0.
         25    1    3    3    0    0  0.10144621535E+03 -0.10655553302E+02 -0.27527566972E+03  0.31910668728E+03  0.12509000000E+03 0.  0.
         25    1    4    4    0    0 -0.58445867205E+02 -0.33999005929E+02 -0.11818190767E+03  0.18489543856E+03  0.12509000000E+03 0.  0.
         25    1    4    4    0    0 -0.43000348148E+02  0.44654559231E+02 -0.13053570783E+03  0.19112859210E+03  0.12509000000E+03 0.  0.
<mgrwt>
<rscale>  2 0.45676882E+03</rscale>
<asrwt>0</asrwt>
<pdfrwt beam="1">  1       21 0.12583635E-01 0.45676882E+03</pdfrwt>
<pdfrwt beam="2">  1       21 0.89641468E-01 0.45676882E+03</pdfrwt>
<totfact> 0.52434334E+04</totfact>
</mgrwt>
</event>
<event>
 7    0  0.4750554E-002  0.4551133E+03  0.7546771E-02  0.1026208E+00
         21   -1    0    0  502  501  0.00000000000E+00  0.00000000000E+00  0.12487501937E+03  0.12487501937E+03  0.00000000000E+00 0. -1.
         21   -1    0    0  501  502 -0.00000000000E+00 -0.00000000000E+00 -0.41467079299E+03  0.41467079299E+03  0.00000000000E+00 0. -1.
      99926    2    1    2    0    0 -0.35527136788E-14  0.14210854715E-13 -0.28979577363E+03  0.53954581236E+03  0.45511327516E+03 0.  0.
      99925    2    3    3    0    0 -0.26630342164E+02  0.74955964512E+02 -0.27786619457E+03  0.39082663170E+03  0.26307463242E+03 0.  0.
         25    1    4    4    0    0 -0.14958461200E+02  0.76852410686E+02 -0.12884581463E+03  0.19590508068E+03  0.12509000000E+03 0.  0.
         25    1    3    3    0    0  0.26630342164E+02 -0.74955964512E+02 -0.11929579052E+02  0.14871918066E+03  0.12509000000E+03 0.  0.
         25    1    4    4    0    0 -0.11671880964E+02 -0.18964461745E+01 -0.14902037994E+03  0.19492155102E+03  0.12509000000E+03 0.  0.
<mgrwt>
<rscale>  2 0.45511328E+03</rscale>
<asrwt>0</asrwt>
<pdfrwt beam="1">  1       21 0.18363974E-01 0.45511328E+03</pdfrwt>
<pdfrwt beam="2">  1       21 0.60980999E-01 0.45511328E+03</pdfrwt>
<totfact> 0.62506611E+04</totfact>
</mgrwt>
</event>
<event>
 7    0  0.4750554E-002  0.4712453E+03  0.7546771E-02  0.1021569E+00
         21   -1    0    0  502  501  0.00000000000E+00  0.00000000000E+00  0.10340287358E+03  0.10340287358E+03  0.00000000000E+00 0. -1.
         21   -1    0    0  501  502 -0.00000000000E+00 -0.00000000000E+00 -0.53691001092E+03  0.53691001092E+03  0.00000000000E+00 0. -1.
      99926    2    1    2    0    0 -0.88817841970E-15  0.00000000000E+00 -0.43350713734E+03  0.64031288450E+03  0.47124532034E+03 0.  0.
      99925    2    3    3    0    0 -0.54833547219E+01  0.12762906587E+03 -0.27219218932E+03  0.39950327882E+03  0.26304949387E+03 0.  0.
         25    1    4    4    0    0 -0.50715568938E+01  0.77357814148E+02 -0.19451194639E+03  0.24391055223E+03  0.12509000000E+03 0.  0.
         25    1    4    4    0    0 -0.41179782808E+00  0.50271251725E+02 -0.77680242929E+02  0.15559272659E+03  0.12509000000E+03 0.  0.
         25    1    3    3    0    0  0.54833547219E+01 -0.12762906587E+03 -0.16131494802E+03  0.24080960568E+03  0.12509000000E+03 0.  0.
<mgrwt>
<rscale>  2 0.47124532E+03</rscale>
<asrwt>0</asrwt>
<pdfrwt beam="1">  1       21 0.15206305E-01 0.47124532E+03</pdfrwt>
<pdfrwt beam="2">  1       21 0.78957354E-01 0.47124532E+03</pdfrwt>
<totfact> 0.49592061E+04</totfact>
</mgrwt>
</event>
<event>
 7    0  0.4750554E-002  0.4542109E+03  0.7546771E-02  0.1026474E+00
         21   -1    0    0  502  501  0.00000000000E+00  0.00000000000E+00  0.79585421153E+03  0.79585421153E+03  0.00000000000E+00 0. -1.
         21   -1    0    0  501  502 -0.00000000000E+00 -0.00000000000E+00 -0.64806944086E+02  0.64806944086E+02  0.00000000000E+00 0. -1.
      99926    2    1    2    0    0 -0.71054273576E-14  0.00000000000E+00  0.73104726744E+03  0.86066115561E+03  0.45421087344E+03 0.  0.
      99925    2    3    3    0    0  0.55114121335E+02  0.93547390102E+02  0.40413524489E+03  0.49418106181E+03  0.26287058627E+03 0.  0.
         25    1    4    4    0    0  0.19867210117E+02  0.86473922346E+02  0.19897762710E+03  0.25122111669E+03  0.12509000000E+03 0.  0.
         25    1    4    4    0    0  0.35246911218E+02  0.70734677565E+01  0.20515761779E+03  0.24295994512E+03  0.12509000000E+03 0.  0.
         25    1    3    3    0    0 -0.55114121335E+02 -0.93547390102E+02  0.32691202256E+03  0.36648009381E+03  0.12509000000E+03 0.  0.
<mgrwt>
<rscale>  2 0.45421087E+03</rscale>
<asrwt>0</asrwt>
<pdfrwt beam="1">  1       21 0.11703738E+00 0.45421087E+03</pdfrwt>
<pdfrwt beam="2">  1       21 0.95304334E-02 0.45421087E+03</pdfrwt>
<totfact> 0.45245531E+04</totfact>
</mgrwt>
</event>
<event>
 7    0  0.4750554E-002  0.4536381E+03  0.7546771E-02  0.1026643E+00
         21   -1    0    0  502  501  0.00000000000E+00  0.00000000000E+00  0.60032848735E+03  0.60032848735E+03  0.00000000000E+00 0.  1.
         21   -1    0    0  501  502 -0.00000000000E+00 -0.00000000000E+00 -0.85697878948E+02  0.85697878948E+02  0.00000000000E+00 0.  1.
      99926    2    1    2    0    0  0.00000000000E+00  0.00000000000E+00  0.51463060840E+03  0.68602636630E+03  0.45363808499E+03 0.  0.
      99925    2    3    3    0    0 -0.20928050198E+02  0.78880785479E+02  0.20890082194E+03  0.34576415560E+03  0.26315990630E+03 0.  0.
         25    1    4    4    0    0 -0.29377513613E+02  0.47703822249E+02  0.62889727508E+02  0.15080225094E+03  0.12509000000E+03 0.  0.
         25    1    4    4    0    0  0.84494634149E+01  0.31176963230E+02  0.14601109443E+03  0.19496190465E+03  0.12509000000E+03 0.  0.
         25    1    3    3    0    0  0.20928050198E+02 -0.78880785479E+02  0.30572978646E+03  0.34026221070E+03  0.12509000000E+03 0.  0.
<mgrwt>
<rscale>  2 0.45363808E+03</rscale>
<asrwt>0</asrwt>
<pdfrwt beam="1">  1       21 0.88283599E-01 0.45363808E+03</pdfrwt>
<pdfrwt beam="2">  1       21 0.12602630E-01 0.45363808E+03</pdfrwt>
<totfact> 0.54247735E+04</totfact>
</mgrwt>
</event>
<event>
 7    0  0.4750554E-002  0.4502968E+03  0.7546771E-02  0.1027634E+00
         21   -1    0    0  502  501  0.00000000000E+00  0.00000000000E+00  0.22630974865E+04  0.22630974865E+04  0.00000000000E+00 0.  1.
         21   -1    0    0  501  502 -0.00000000000E+00 -0.00000000000E+00 -0.22399304638E+02  0.22399304638E+02  0.00000000000E+00 0.  1.
      99926    2    1    2    0    0  0.00000000000E+00  0.88817841970E-15  0.22406981819E+04  0.22854967912E+04  0.45029683555E+03 0.  0.
      99925    2    3    3    0    0 -0.16097184490E+02  0.32114260865E+01  0.86989346829E+03  0.90889862774E+03  0.26289282367E+03 0.  0.
         25    1    4    4    0    0 -0.75776506932E+01 -0.35478859326E+02  0.37821453894E+03  0.40001239458E+03  0.12509000000E+03 0.  0.
         25    1    3    3    0    0  0.16097184490E+02 -0.32114260865E+01  0.13708047136E+04  0.13765981634E+04  0.12509000000E+03 0.  0.
         25    1    4    4    0    0 -0.85195337965E+01  0.38690285413E+02  0.49167892935E+03  0.50888623317E+03  0.12509000000E+03 0.  0.
<mgrwt>
<rscale>  2 0.45029684E+03</rscale>
<asrwt>0</asrwt>
<pdfrwt beam="1">  1       21 0.33280830E+00 0.45029684E+03</pdfrwt>
<pdfrwt beam="2">  1       21 0.32940169E-02 0.45029684E+03</pdfrwt>
<totfact> 0.99417417E+03</totfact>
</mgrwt>
</event>
<event>
 7    0  0.4750554E-002  0.4288237E+03  0.7546771E-02  0.1034232E+00
         21   -1    0    0  502  501  0.00000000000E+00  0.00000000000E+00  0.19416345061E+02  0.19416345061E+02  0.00000000000E+00 0. -1.
         21   -1    0    0  501  502 -0.00000000000E+00 -0.00000000000E+00 -0.23677181844E+04  0.23677181844E+04  0.00000000000E+00 0. -1.
      99926    2    1    2    0    0  0.00000000000E+00  0.17763568394E-14 -0.23483018393E+04  0.23871345294E+04  0.42882366201E+03 0.  0.
      99925    2    3    3    0    0 -0.80110898319E+02 -0.11384957545E+02 -0.16835293455E+04  0.17058729424E+04  0.26302863969E+03 0.  0.
         25    1    4    4    0    0 -0.72018848127E+02 -0.10268135852E+02 -0.10633877463E+04  0.10731883135E+04  0.12509000000E+03 0.  0.
         25    1    4    4    0    0 -0.80920501919E+01 -0.11168216932E+01 -0.62014159916E+03  0.63268462893E+03  0.12509000000E+03 0.  0.
         25    1    3    3    0    0  0.80110898319E+02  0.11384957545E+02 -0.66477249382E+03  0.68126158701E+03  0.12509000000E+03 0.  0.
<mgrwt>
<rscale>  2 0.42882366E+03</rscale>
<asrwt>0</asrwt>
<pdfrwt beam="1">  1       21 0.28553447E-02 0.42882366E+03</pdfrwt>
<pdfrwt beam="2">  1       21 0.34819387E+00 0.42882366E+03</pdfrwt>
<totfact> 0.10297446E+04</totfact>
</mgrwt>
</event>
<event>
 7    0  0.4750554E-002  0.4533188E+03  0.7546771E-02  0.1026737E+00
         21   -1    0    0  502  501  0.00000000000E+00  0.00000000000E+00  0.13307982546E+04  0.13307982546E+04  0.00000000000E+00 0.  1.
         21   -1    0    0  501  502 -0.00000000000E+00 -0.00000000000E+00 -0.38604257800E+02  0.38604257800E+02  0.00000000000E+00 0.  1.
      99926    2    1    2    0    0  0.00000000000E+00  0.00000000000E+00  0.12921939968E+04  0.13694025124E+04  0.45331877923E+03 0.  0.
      99925    2    3    3    0    0  0.58733094900E+02  0.49698132482E+02  0.57013905760E+03  0.63256445412E+03  0.26298243821E+03 0.  0.
         25    1    4    4    0    0  0.14644838867E+02 -0.11936934952E+02  0.23460207783E+03  0.26653818627E+03  0.12509000000E+03 0.  0.
         25    1    4    4    0    0  0.44088256033E+02  0.61635067435E+02  0.33553697977E+03  0.36602626785E+03  0.12509000000E+03 0.  0.
         25    1    3    3    0    0 -0.58733094900E+02 -0.49698132482E+02  0.72205493920E+03  0.73683805828E+03  0.12509000000E+03 0.  0.
<mgrwt>
<rscale>  2 0.45331878E+03</rscale>
<asrwt>0</asrwt>
<pdfrwt beam="1">  1       21 0.19570560E+00 0.45331878E+03</pdfrwt>
<pdfrwt beam="2">  1       21 0.56770976E-02 0.45331878E+03</pdfrwt>
<totfact> 0.27516731E+04</totfact>
</mgrwt>
</event>
<event>
 7    0  0.4750554E-002  0.4515539E+03  0.7546771E-02  0.1027260E+00
         21   -1    0    0  502  501  0.00000000000E+00  0.00000000000E+00  0.26483805125E+03  0.26483805125E+03  0.00000000000E+00 0. -1.
         21   -1    0    0  501  502 -0.00000000000E+00 -0.00000000000E+00 -0.19247700270E+03  0.19247700270E+03  0.00000000000E+00 0. -1.
      99926    2    1    2    0    0  0.00000000000E+00  0.00000000000E+00  0.72361048544E+02  0.45731505395E+03  0.45155391397E+03 0.  0.
      99925    2    3    3    0    0  0.51699506826E+02  0.88696367916E+02  0.59972417401E+01  0.28241065823E+03  0.26302077539E+03 0.  0.
         25    1    4    4    0    0  0.21775257450E+02  0.44124473628E+02 -0.37419521950E+02  0.13953085585E+03  0.12509000000E+03 0.  0.
         25    1    4    4    0    0  0.29924249376E+02  0.44571894288E+02  0.43416763690E+02  0.14287980239E+03  0.12509000000E+03 0.  0.
         25    1    3    3    0    0 -0.51699506826E+02 -0.88696367916E+02  0.66363806804E+02  0.17490439572E+03  0.12509000000E+03 0.  0.
<mgrwt>
<rscale>  2 0.45155391E+03</rscale>
<asrwt>0</asrwt>
<pdfrwt beam="1">  1       21 0.38946772E-01 0.45155391E+03</pdfrwt>
<pdfrwt beam="2">  1       21 0.28305441E-01 0.45155391E+03</pdfrwt>
<totfact> 0.70288468E+04</totfact>
</mgrwt>
</event>
<event>
 7    0  0.4750554E-002  0.4577976E+03  0.7546771E-02  0.1025422E+00
         21   -1    0    0  502  501  0.00000000000E+00  0.00000000000E+00  0.54255442650E+02  0.54255442650E+02  0.00000000000E+00 0.  1.
         21   -1    0    0  501  502 -0.00000000000E+00 -0.00000000000E+00 -0.96570338301E+03  0.96570338301E+03  0.00000000000E+00 0.  1.
      99926    2    1    2    0    0  0.00000000000E+00  0.00000000000E+00 -0.91144794036E+03  0.10199588257E+04  0.45779761692E+03 0.  0.
      99925    2    3    3    0    0 -0.51985998099E+02  0.88640214818E+01 -0.80178054994E+03  0.84544361287E+03  0.26294816485E+03 0.  0.
         25    1    4    4    0    0 -0.35625244281E+02  0.14413871010E+02 -0.52751522926E+03  0.54350413329E+03  0.12509000000E+03 0.  0.
         25    1    3    3    0    0  0.51985998099E+02 -0.88640214818E+01 -0.10966739042E+03  0.17451521279E+03  0.12509000000E+03 0.  0.
         25    1    4    4    0    0 -0.16360753818E+02 -0.55498495286E+01 -0.27426532069E+03  0.30193947958E+03  0.12509000000E+03 0.  0.
<mgrwt>
<rscale>  2 0.45779762E+03</rscale>
<asrwt>0</asrwt>
<pdfrwt beam="1">  1       21 0.79787422E-02 0.45779762E+03</pdfrwt>
<pdfrwt beam="2">  1       21 0.14201519E+00 0.45779762E+03</pdfrwt>
<totfact> 0.37571913E+04</totfact>
</mgrwt>
</event>
<event>
 7    0  0.4750554E-002  0.4564633E+03  0.7546771E-02  0.1025812E+00
         21   -1    0    0  502  501  0.00000000000E+00  0.00000000000E+00  0.11068289125E+03  0.11068289125E+03  0.00000000000E+00 0. -1.
         21   -1    0    0  501  502 -0.00000000000E+00 -0.00000000000E+00 -0.47062088857E+03  0.47062088857E+03  0.00000000000E+00 0. -1.
      99926    2    1    2    0    0 -0.35527136788E-14  0.00000000000E+00 -0.35993799732E+03  0.58130377982E+03  0.45646327620E+03 0.  0.
      99925    2    3    3    0    0 -0.25755612069E+02  0.75750395612E+02 -0.12193394890E+03  0.30077765064E+03  0.26305481034E+03 0.  0.
         25    1    4    4    0    0  0.21016208575E+02  0.41443681083E+02 -0.84338519965E+02  0.15785991820E+03  0.12509000000E+03 0.  0.
         25    1    4    4    0    0 -0.46771820644E+02  0.34306714529E+02 -0.37595428934E+02  0.14291773244E+03  0.12509000000E+03 0.  0.
         25    1    3    3    0    0  0.25755612069E+02 -0.75750395612E+02 -0.23800404843E+03  0.28052612918E+03  0.12509000000E+03 0.  0.
<mgrwt>
<rscale>  2 0.45646328E+03</rscale>
<asrwt>0</asrwt>
<pdfrwt beam="1">  1       21 0.16276895E-01 0.45646328E+03</pdfrwt>
<pdfrwt beam="2">  1       21 0.69208956E-01 0.45646328E+03</pdfrwt>
<totfact> 0.59156787E+04</totfact>
</mgrwt>
</event>
<event>
 7    0  0.4750554E-002  0.4495170E+03  0.7546771E-02  0.1027866E+00
         21   -1    0    0  502  501  0.00000000000E+00  0.00000000000E+00  0.10000024774E+03  0.10000024774E+03  0.00000000000E+00 0.  1.
         21   -1    0    0  501  502 -0.00000000000E+00 -0.00000000000E+00 -0.50516259667E+03  0.50516259667E+03  0.00000000000E+00 0.  1.
      99926    2    1    2    0    0 -0.14210854715E-13 -0.14210854715E-13 -0.40516234893E+03  0.60516284442E+03  0.44951700665E+03 0.  0.
      99925    2    3    3    0    0 -0.77873602615E+02 -0.70667597584E+02 -0.22333930871E+03  0.36069335064E+03  0.26298486467E+03 0.  0.
         25    1    3    3    0    0  0.77873602615E+02  0.70667597584E+02 -0.18182304022E+03  0.24446949378E+03  0.12509000000E+03 0.  0.
         25    1    4    4    0    0 -0.58536545115E+02 -0.24474791278E+01 -0.12677137151E+03  0.18748601548E+03  0.12509000000E+03 0.  0.
         25    1    4    4    0    0 -0.19337057501E+02 -0.68220118456E+02 -0.96567937204E+02  0.17320733515E+03  0.12509000000E+03 0.  0.
<mgrwt>
<rscale>  2 0.44951701E+03</rscale>
<asrwt>0</asrwt>
<pdfrwt beam="1">  1       21 0.14705919E-01 0.44951701E+03</pdfrwt>
<pdfrwt beam="2">  1       21 0.74288618E-01 0.44951701E+03</pdfrwt>
<totfact> 0.60959446E+04</totfact>
</mgrwt>
</event>
<event>
 7    0  0.4750554E-002  0.4395137E+03  0.7546771E-02  0.1030896E+00
         21   -1    0    0  502  501  0.00000000000E+00  0.00000000000E+00  0.19044724303E+03  0.19044724303E+03  0.00000000000E+00 0.  1.
         21   -1    0    0  501  502 -0.00000000000E+00 -0.00000000000E+00 -0.25357715825E+03  0.25357715825E+03  0.00000000000E+00 0.  1.
      99926    2    1    2    0    0 -0.44408920985E-14  0.00000000000E+00 -0.63129915229E+02  0.44402440128E+03  0.43951368891E+03 0.  0.
      99925    2    3    3    0    0  0.68658252611E+01  0.65077712986E+02 -0.11400917988E+03  0.29396289404E+03  0.26293315061E+03 0.  0.
         25    1    4    4    0    0  0.40798198068E+02  0.20149844597E+02 -0.45834743468E+02  0.14077940550E+03  0.12509000000E+03 0.  0.
         25    1    3    3    0    0 -0.68658252611E+01 -0.65077712986E+02  0.50879264650E+02  0.15006150724E+03  0.12509000000E+03 0.  0.
         25    1    4    4    0    0 -0.33932372807E+02  0.44927868390E+02 -0.68174436411E+02  0.15318348854E+03  0.12509000000E+03 0.  0.
<mgrwt>
<rscale>  2 0.43951369E+03</rscale>
<asrwt>0</asrwt>
<pdfrwt beam="1">  1       21 0.28006947E-01 0.43951369E+03</pdfrwt>
<pdfrwt beam="2">  1       21 0.37290759E-01 0.43951369E+03</pdfrwt>
<totfact> 0.78632300E+04</totfact>
</mgrwt>
</event>
<event>
 7    0  0.4750554E-002  0.4450847E+03  0.7546771E-02  0.1029198E+00
         21   -1    0    0  502  501  0.00000000000E+00  0.00000000000E+00  0.62835852520E+02  0.62835852520E+02  0.00000000000E+00 0.  1.
         21   -1    0    0  501  502 -0.00000000000E+00 -0.00000000000E+00 -0.78816640370E+03  0.78816640370E+03  0.00000000000E+00 0.  1.
      99926    2    1    2    0    0 -0.17763568394E-14  0.00000000000E+00 -0.72533055118E+03  0.85100225622E+03  0.44508474656E+03 0.  0.
      99925    2    3    3    0    0 -0.15125667883E+02 -0.50998150466E+02 -0.63062719701E+03  0.68533442419E+03  0.26298861988E+03 0.  0.
         25    1    4    4    0    0  0.16413398594E+02 -0.40821768810E+01 -0.36714141604E+03  0.38823496918E+03  0.12509000000E+03 0.  0.
         25    1    4    4    0    0 -0.31539066476E+02 -0.46915973585E+02 -0.26348578097E+03  0.29709945501E+03  0.12509000000E+03 0.  0.
         25    1    3    3    0    0  0.15125667883E+02  0.50998150466E+02 -0.94703354166E+02  0.16566783203E+03  0.12509000000E+03 0.  0.
<mgrwt>
<rscale>  2 0.44508475E+03</rscale>
<asrwt>0</asrwt>
<pdfrwt beam="1">  1       21 0.92405679E-02 0.44508475E+03</pdfrwt>
<pdfrwt beam="2">  1       21 0.11590681E+00 0.44508475E+03</pdfrwt>
<totfact> 0.49103794E+04</totfact>
</mgrwt>
</event>
<event>
 7    0  0.4750554E-002  0.4229687E+03  0.7546771E-02  0.1036104E+00
         21   -1    0    0  502  501  0.00000000000E+00  0.00000000000E+00  0.21774205239E+03  0.21774205239E+03  0.00000000000E+00 0. -1.
         21   -1    0    0  501  502 -0.00000000000E+00 -0.00000000000E+00 -0.20540645141E+03  0.20540645141E+03  0.00000000000E+00 0. -1.
      99926    2    1    2    0    0 -0.35527136788E-14  0.00000000000E+00  0.12335600974E+02  0.42314850380E+03  0.42296866222E+03 0.  0.
      99925    2    3    3    0    0 -0.29782888446E+02  0.64921471915E+02 -0.26946732241E+02  0.27384201445E+03  0.26298574969E+03 0.  0.
         25    1    3    3    0    0  0.29782888446E+02 -0.64921471915E+02  0.39282333215E+02  0.14930648935E+03  0.12509000000E+03 0.  0.
         25    1    4    4    0    0 -0.30121193439E+02 -0.47571143174E+01 -0.39077995642E+01  0.12881263691E+03  0.12509000000E+03 0.  0.
         25    1    4    4    0    0  0.33830499314E+00  0.69678586232E+02 -0.23038932677E+02  0.14502937754E+03  0.12509000000E+03 0.  0.
<mgrwt>
<rscale>  2 0.42296866E+03</rscale>
<asrwt>0</asrwt>
<pdfrwt beam="1">  1       21 0.32020890E-01 0.42296866E+03</pdfrwt>
<pdfrwt beam="2">  1       21 0.30206831E-01 0.42296866E+03</pdfrwt>
<totfact> 0.92396143E+04</totfact>
</mgrwt>
</event>
<event>
 7    0  0.4750554E-002  0.4565384E+03  0.7546771E-02  0.1025790E+00
         21   -1    0    0  502  501  0.00000000000E+00  0.00000000000E+00  0.17670501751E+03  0.17670501751E+03  0.00000000000E+00 0. -1.
         21   -1    0    0  501  502 -0.00000000000E+00 -0.00000000000E+00 -0.29488034898E+03  0.29488034898E+03  0.00000000000E+00 0. -1.
      99926    2    1    2    0    0 -0.17763568394E-14  0.00000000000E+00 -0.11817533148E+03  0.47158536649E+03  0.45653844189E+03 0.  0.
      99925    2    3    3    0    0 -0.80086452321E+01  0.10801453192E+03 -0.35441385256E+02  0.28658890312E+03  0.26295594707E+03 0.  0.
         25    1    3    3    0    0  0.80086452321E+01 -0.10801453192E+03 -0.82733946220E+02  0.18499646337E+03  0.12509000000E+03 0.  0.
         25    1    4    4    0    0 -0.34198940370E+02  0.27630466097E+02 -0.57455903998E+01  0.13271597526E+03  0.12509000000E+03 0.  0.
         25    1    4    4    0    0  0.26190295138E+02  0.80384065818E+02 -0.29695794857E+02  0.15387292786E+03  0.12509000000E+03 0.  0.
<mgrwt>
<rscale>  2 0.45653844E+03</rscale>
<asrwt>0</asrwt>
<pdfrwt beam="1">  1       21 0.25986032E-01 0.45653844E+03</pdfrwt>
<pdfrwt beam="2">  1       21 0.43364757E-01 0.45653844E+03</pdfrwt>
<totfact> 0.66502623E+04</totfact>
</mgrwt>
</event>
<event>
 7    0  0.4750554E-002  0.4492653E+03  0.7546771E-02  0.1027941E+00
         21   -1    0    0  502  501  0.00000000000E+00  0.00000000000E+00  0.42432307514E+03  0.42432307514E+03  0.00000000000E+00 0. -1.
         21   -1    0    0  501  502 -0.00000000000E+00 -0.00000000000E+00 -0.11891840980E+03  0.11891840980E+03  0.00000000000E+00 0. -1.
      99926    2    1    2    0    0 -0.35527136788E-14  0.00000000000E+00  0.30540466534E+03  0.54324148494E+03  0.44926529061E+03 0.  0.
      99925    2    3    3    0    0  0.15808467063E+02 -0.39047308695E+02  0.31304243165E+03  0.41102785659E+03  0.26300900161E+03 0.  0.
         25    1    4    4    0    0  0.44191555866E+02 -0.10972950111E+02  0.18231009868E+03  0.22573829853E+03  0.12509000000E+03 0.  0.
         25    1    4    4    0    0 -0.28383088803E+02 -0.28074358585E+02  0.13073233298E+03  0.18528955806E+03  0.12509000000E+03 0.  0.
         25    1    3    3    0    0 -0.15808467063E+02  0.39047308695E+02 -0.76377663160E+01  0.13221362835E+03  0.12509000000E+03 0.  0.
<mgrwt>
<rscale>  2 0.44926529E+03</rscale>
<asrwt>0</asrwt>
<pdfrwt beam="1">  1       21 0.62400452E-01 0.44926529E+03</pdfrwt>
<pdfrwt beam="2">  1       21 0.17488002E-01 0.44926529E+03</pdfrwt>
<totfact> 0.65225239E+04</totfact>
</mgrwt>
</event>
<event>
 7    0  0.4750554E-002  0.4462459E+03  0.7546771E-02  0.1028848E+00
         21   -1    0    0  502  501  0.00000000000E+00  0.00000000000E+00  0.63874480690E+03  0.63874480690E+03  0.00000000000E+00 0.  1.
         21   -1    0    0  501  502 -0.00000000000E+00 -0.00000000000E+00 -0.77940114796E+02  0.77940114796E+02  0.00000000000E+00 0.  1.
      99926    2    1    2    0    0  0.00000000000E+00 -0.35527136788E-14  0.56080469210E+03  0.71668492170E+03  0.44624586755E+03 0.  0.
      99925    2    3    3    0    0 -0.27683070495E+02  0.17414569621E+02  0.51559132877E+03  0.57971274952E+03  0.26298827735E+03 0.  0.
         25    1    4    4    0    0 -0.27618609661E+02  0.45013783484E+02  0.23845851661E+03  0.27440663357E+03  0.12509000000E+03 0.  0.
         25    1    4    4    0    0 -0.64460834001E-01 -0.27599213864E+02  0.27713281215E+03  0.30530611594E+03  0.12509000000E+03 0.  0.
         25    1    3    3    0    0  0.27683070495E+02 -0.17414569621E+02  0.45213363336E+02  0.13697217218E+03  0.12509000000E+03 0.  0.
<mgrwt>
<rscale>  2 0.44624587E+03</rscale>
<asrwt>0</asrwt>
<pdfrwt beam="1">  1       21 0.93933057E-01 0.44624587E+03</pdfrwt>
<pdfrwt beam="2">  1       21 0.11461782E-01 0.44624587E+03</pdfrwt>
<totfact> 0.55747247E+04</totfact>
</mgrwt>
</event>
<event>
 7    0  0.4750554E-002  0.4597132E+03  0.7546771E-02  0.1024864E+00
         21   -1    0    0  502  501  0.00000000000E+00  0.00000000000E+00  0.10465507198E+04  0.10465507198E+04  0.00000000000E+00 0. -1.
         21   -1    0    0  501  502 -0.00000000000E+00 -0.00000000000E+00 -0.50483995171E+02  0.50483995171E+02  0.00000000000E+00 0. -1.
      99926    2    1    2    0    0  0.00000000000E+00 -0.14210854715E-13  0.99606672464E+03  0.10970347150E+04  0.45971322141E+03 0.  0.
      99925    2    3    3    0    0 -0.91881893175E+01  0.11765396841E+03  0.62159064863E+03  0.68495860707E+03  0.26242423637E+03 0.  0.
         25    1    4    4    0    0 -0.12967409654E+02  0.90135097374E+02  0.27651555840E+03  0.31686093421E+03  0.12509000000E+03 0.  0.
         25    1    4    4    0    0  0.37792203365E+01  0.27518871037E+02  0.34507509023E+03  0.36809767287E+03  0.12509000000E+03 0.  0.
         25    1    3    3    0    0  0.91881893175E+01 -0.11765396841E+03  0.37447607601E+03  0.41207610791E+03  0.12509000000E+03 0.  0.
<mgrwt>
<rscale>  2 0.45971322E+03</rscale>
<asrwt>0</asrwt>
<pdfrwt beam="1">  1       21 0.15390450E+00 0.45971322E+03</pdfrwt>
<pdfrwt beam="2">  1       21 0.74241176E-02 0.45971322E+03</pdfrwt>
<totfact> 0.34317930E+04</totfact>
</mgrwt>
</event>
<event>
 7    0  0.4750554E-002  0.4198278E+03  0.7546771E-02  0.1037122E+00
         21   -1    0    0  502  501  0.00000000000E+00  0.00000000000E+00  0.86142376437E+03  0.86142376437E+03  0.00000000000E+00 0. -1.
         21   -1    0    0  501  502 -0.00000000000E+00 -0.00000000000E+00 -0.51152349895E+02  0.51152349895E+02  0.00000000000E+00 0. -1.
      99926    2    1    2    0    0 -0.17763568394E-14  0.00000000000E+00  0.81027141448E+03  0.91257611427E+03  0.41982782091E+03 0.  0.
      99925    2    3    3    0    0 -0.14452215509E+02  0.61131045653E+02  0.61967735163E+03  0.67610312180E+03  0.26300102643E+03 0.  0.
         25    1    4    4    0    0 -0.40648950595E+02  0.19803020954E+02  0.35913212894E+03  0.38297244152E+03  0.12509000000E+03 0.  0.
         25    1    4    4    0    0  0.26196735086E+02  0.41328024698E+02  0.26054522270E+03  0.29313068028E+03  0.12509000000E+03 0.  0.
         25    1    3    3    0    0  0.14452215509E+02 -0.61131045653E+02  0.19059406284E+03  0.23647299247E+03  0.12509000000E+03 0.  0.
<mgrwt>
<rscale>  2 0.41982782E+03</rscale>
<asrwt>0</asrwt>
<pdfrwt beam="1">  1       21 0.12667996E+00 0.41982782E+03</pdfrwt>
<pdfrwt beam="2">  1       21 0.75224049E-02 0.41982782E+03</pdfrwt>
<totfact> 0.56781043E+04</totfact>
</mgrwt>
</event>
<event>
 7    0  0.4750554E-002  0.4475786E+03  0.7546771E-02  0.1028447E+00
         21   -1    0    0  502  501  0.00000000000E+00  0.00000000000E+00  0.10124845152E+03  0.10124845152E+03  0.00000000000E+00 0.  1.
         21   -1    0    0  501  502 -0.00000000000E+00 -0.00000000000E+00 -0.49464120910E+03  0.49464120910E+03  0.00000000000E+00 0.  1.
      99926    2    1    2    0    0  0.00000000000E+00 -0.35527136788E-14 -0.39339275758E+03  0.59588966062E+03  0.44757862540E+03 0.  0.
      99925    2    3    3    0    0 -0.79476977851E+02 -0.29035763325E+02 -0.16433993943E+03  0.32153156039E+03  0.26308793791E+03 0.  0.
         25    1    3    3    0    0  0.79476977851E+02  0.29035763325E+02 -0.22905281815E+03  0.27435810023E+03  0.12509000000E+03 0.  0.
         25    1    4    4    0    0 -0.34184739211E+02 -0.38514163036E+02 -0.45010401210E+02  0.14256711215E+03  0.12509000000E+03 0.  0.
         25    1    4    4    0    0 -0.45292238639E+02  0.94783997113E+01 -0.11932953822E+03  0.17896444824E+03  0.12509000000E+03 0.  0.
<mgrwt>
<rscale>  2 0.44757863E+03</rscale>
<asrwt>0</asrwt>
<pdfrwt beam="1">  1       21 0.14889478E-01 0.44757863E+03</pdfrwt>
<pdfrwt beam="2">  1       21 0.72741354E-01 0.44757863E+03</pdfrwt>
<totfact> 0.62518389E+04</totfact>
</mgrwt>
</event>
<event>
 7    0  0.4750554E-002  0.4428706E+03  0.7546771E-02  0.1029870E+00
         21   -1    0    0  502  501  0.00000000000E+00  0.00000000000E+00  0.20780280393E+03  0.20780280393E+03  0.00000000000E+00 0. -1.
         21   -1    0    0  501  502 -0.00000000000E+00 -0.00000000000E+00 -0.23596211169E+03  0.23596211169E+03  0.00000000000E+00 0. -1.
      99926    2    1    2    0    0  0.00000000000E+00  0.00000000000E+00 -0.28159307767E+02  0.44376491562E+03  0.44287058349E+03 0.  0.
      99925    2    3    3    0    0 -0.94933273364E+02  0.33504954537E+02 -0.60327058278E+01  0.28167850970E+03  0.26300471653E+03 0.  0.
         25    1    4    4    0    0 -0.45610247917E+02 -0.16417612425E+02 -0.26642325641E+02  0.13677409963E+03  0.12509000000E+03 0.  0.
         25    1    4    4    0    0 -0.49323025447E+02  0.49922566962E+02  0.20609619813E+02  0.14490441008E+03  0.12509000000E+03 0.  0.
         25    1    3    3    0    0  0.94933273364E+02 -0.33504954537E+02 -0.22126601939E+02  0.16208640592E+03  0.12509000000E+03 0.  0.
<mgrwt>
<rscale>  2 0.44287058E+03</rscale>
<asrwt>0</asrwt>
<pdfrwt beam="1">  1       21 0.30559236E-01 0.44287058E+03</pdfrwt>
<pdfrwt beam="2">  1       21 0.34700310E-01 0.44287058E+03</pdfrwt>
<totfact> 0.76518333E+04</totfact>
</mgrwt>
</event>
<event>
 7    0  0.4750554E-002  0.4546265E+03  0.7546771E-02  0.1026351E+00
         21   -1    0    0  502  501  0.00000000000E+00  0.00000000000E+00  0.34305885009E+02  0.34305885009E+02  0.00000000000E+00 0.  1.
         21   -1    0    0  501  502 -0.00000000000E+00 -0.00000000000E+00 -0.15061937181E+04  0.15061937181E+04  0.00000000000E+00 0.  1.
      99926    2    1    2    0    0  0.00000000000E+00  0.71054273576E-14 -0.14718878331E+04  0.15404996031E+04  0.45462647742E+03 0.  0.
      99925    2    3    3    0    0 -0.11035314961E+03 -0.17790991560E+02 -0.97800012430E+03  0.10188992638E+04  0.26301545497E+03 0.  0.
         25    1    4    4    0    0 -0.48562714359E+02 -0.35736615148E+02 -0.38001254551E+03  0.40458928030E+03  0.12509000000E+03 0.  0.
         25    1    3    3    0    0  0.11035314961E+03  0.17790991560E+02 -0.49388770876E+03  0.52160033932E+03  0.12509000000E+03 0.  0.
         25    1    4    4    0    0 -0.61790435253E+02  0.17945623588E+02 -0.59798757879E+03  0.61430998346E+03  0.12509000000E+03 0.  0.
<mgrwt>
<rscale>  2 0.45462648E+03</rscale>
<asrwt>0</asrwt>
<pdfrwt beam="1">  1       21 0.50449820E-02 0.45462648E+03</pdfrwt>
<pdfrwt beam="2">  1       21 0.22149912E+00 0.45462648E+03</pdfrwt>
<totfact> 0.22870050E+04</totfact>
</mgrwt>
</event>
<event>
 7    0  0.4750554E-002  0.4572740E+03  0.7546771E-02  0.1025575E+00
         21   -1    0    0  502  501  0.00000000000E+00  0.00000000000E+00  0.10590585920E+03  0.10590585920E+03  0.00000000000E+00 0.  1.
         21   -1    0    0  501  502 -0.00000000000E+00 -0.00000000000E+00 -0.49359765018E+03  0.49359765018E+03  0.00000000000E+00 0.  1.
      99926    2    1    2    0    0  0.00000000000E+00  0.00000000000E+00 -0.38769179098E+03  0.59950350937E+03  0.45727402392E+03 0.  0.
      99925    2    3    3    0    0 -0.11538883921E+02 -0.11463888131E+03 -0.24705576296E+03  0.37881998161E+03  0.26304526132E+03 0.  0.
         25    1    4    4    0    0  0.29928271449E+02 -0.45819457897E+02 -0.96254463573E+02  0.16705554170E+03  0.12509000000E+03 0.  0.
         25    1    3    3    0    0  0.11538883921E+02  0.11463888131E+03 -0.14063602802E+03  0.22068352776E+03  0.12509000000E+03 0.  0.
         25    1    4    4    0    0 -0.41467155370E+02 -0.68819423411E+02 -0.15080129939E+03  0.21176443991E+03  0.12509000000E+03 0.  0.
<mgrwt>
<rscale>  2 0.45727402E+03</rscale>
<asrwt>0</asrwt>
<pdfrwt beam="1">  1       21 0.15574391E-01 0.45727402E+03</pdfrwt>
<pdfrwt beam="2">  1       21 0.72587891E-01 0.45727402E+03</pdfrwt>
<totfact> 0.57665688E+04</totfact>
</mgrwt>
</event>
<event>
 7    0  0.4750554E-002  0.4516809E+03  0.7546771E-02  0.1027222E+00
         21   -1    0    0  502  501  0.00000000000E+00  0.00000000000E+00  0.22935155839E+03  0.22935155839E+03  0.00000000000E+00 0.  1.
         21   -1    0    0  501  502 -0.00000000000E+00 -0.00000000000E+00 -0.22238307457E+03  0.22238307457E+03  0.00000000000E+00 0.  1.
      99926    2    1    2    0    0 -0.14210854715E-13  0.71054273576E-14  0.69684838282E+01  0.45173463296E+03  0.45168088165E+03 0.  0.
      99925    2    3    3    0    0  0.93104304378E+02  0.54148413290E+02  0.26669170657E+02  0.28549358112E+03  0.26304919320E+03 0.  0.
         25    1    4    4    0    0  0.58989425235E+02  0.65850914782E+02  0.32145790768E+01  0.15321206508E+03  0.12509000000E+03 0.  0.
         25    1    3    3    0    0 -0.93104304378E+02 -0.54148413290E+02 -0.19700686829E+02  0.16624105184E+03  0.12509000000E+03 0.  0.
         25    1    4    4    0    0  0.34114879143E+02 -0.11702501492E+02  0.23454591580E+02  0.13228151604E+03  0.12509000000E+03 0.  0.
<mgrwt>
<rscale>  2 0.45168088E+03</rscale>
<asrwt>0</asrwt>
<pdfrwt beam="1">  1       21 0.33728171E-01 0.45168088E+03</pdfrwt>
<pdfrwt beam="2">  1       21 0.32703393E-01 0.45168088E+03</pdfrwt>
<totfact> 0.70637933E+04</totfact>
</mgrwt>
</event>
<event>
 7    0  0.4750554E-002  0.4481459E+03  0.7546771E-02  0.1028276E+00
         21   -1    0    0  502  501  0.00000000000E+00  0.00000000000E+00  0.34839952617E+03  0.34839952617E+03  0.00000000000E+00 0.  1.
         21   -1    0    0  501  502 -0.00000000000E+00 -0.00000000000E+00 -0.14411235922E+03  0.14411235922E+03  0.00000000000E+00 0.  1.
      99926    2    1    2    0    0  0.00000000000E+00  0.00000000000E+00  0.20428716695E+03  0.49251188540E+03  0.44814585871E+03 0.  0.
      99925    2    3    3    0    0 -0.22032637286E+02 -0.10356157949E+03  0.14342495994E+03  0.31769153706E+03  0.26295770712E+03 0.  0.
         25    1    4    4    0    0 -0.18929877199E+02 -0.67100496586E+02  0.11649470703E+03  0.18460590933E+03  0.12509000000E+03 0.  0.
         25    1    4    4    0    0 -0.31027600872E+01 -0.36461082900E+02  0.26930252906E+02  0.13308562773E+03  0.12509000000E+03 0.  0.
         25    1    3    3    0    0  0.22032637286E+02  0.10356157949E+03  0.60862207015E+02  0.17482034834E+03  0.12509000000E+03 0.  0.
<mgrwt>
<rscale>  2 0.44814586E+03</rscale>
<asrwt>0</asrwt>
<pdfrwt beam="1">  1       21 0.51235224E-01 0.44814586E+03</pdfrwt>
<pdfrwt beam="2">  1       21 0.21192994E-01 0.44814586E+03</pdfrwt>
<totfact> 0.69505565E+04</totfact>
</mgrwt>
</event>
<event>
 7    0  0.4750554E-002  0.4521787E+03  0.7546771E-02  0.1027074E+00
         21   -1    0    0  502  501  0.00000000000E+00  0.00000000000E+00  0.28820484171E+03  0.28820484171E+03  0.00000000000E+00 0.  1.
         21   -1    0    0  501  502 -0.00000000000E+00 -0.00000000000E+00 -0.17736132896E+03  0.17736132896E+03  0.00000000000E+00 0.  1.
      99926    2    1    2    0    0  0.00000000000E+00  0.71054273576E-14  0.11084351275E+03  0.46556617067E+03  0.45217869803E+03 0.  0.
      99925    2    3    3    0    0  0.39527657914E+02 -0.35350002985E+02  0.16875803556E+03  0.31787169378E+03  0.26410429888E+03 0.  0.
         25    1    4    4    0    0 -0.81724076328E+01 -0.41355612156E+02  0.58724327898E+02  0.14447536015E+03  0.12509000000E+03 0.  0.
         25    1    4    4    0    0  0.47700065546E+02  0.60056091703E+01  0.11003370766E+03  0.17339633363E+03  0.12509000000E+03 0.  0.
         25    1    3    3    0    0 -0.39527657914E+02  0.35350002985E+02 -0.57914522813E+02  0.14769447689E+03  0.12509000000E+03 0.  0.
<mgrwt>
<rscale>  2 0.45217870E+03</rscale>
<asrwt>0</asrwt>
<pdfrwt beam="1">  1       21 0.42383065E-01 0.45217870E+03</pdfrwt>
<pdfrwt beam="2">  1       21 0.26082548E-01 0.45217870E+03</pdfrwt>
<totfact> 0.69305108E+04</totfact>
</mgrwt>
</event>
<event>
 7    0  0.4750554E-002  0.4519574E+03  0.7546771E-02  0.1027140E+00
         21   -1    0    0  502  501  0.00000000000E+00  0.00000000000E+00  0.14643878677E+03  0.14643878677E+03  0.00000000000E+00 0.  1.
         21   -1    0    0  501  502 -0.00000000000E+00 -0.00000000000E+00 -0.34872163518E+03  0.34872163518E+03  0.00000000000E+00 0.  1.
      99926    2    1    2    0    0  0.00000000000E+00  0.00000000000E+00 -0.20228284842E+03  0.49516042195E+03  0.45195740143E+03 0.  0.
      99925    2    3    3    0    0  0.56477945795E+02  0.43774246639E+02 -0.21969428170E+03  0.35005146586E+03  0.26299146053E+03 0.  0.
         25    1    4    4    0    0  0.19690826706E+02  0.34068004360E+02 -0.61556152319E+02  0.14486209154E+03  0.12509000000E+03 0.  0.
         25    1    3    3    0    0 -0.56477945795E+02 -0.43774246639E+02  0.17411433281E+02  0.14510895609E+03  0.12509000000E+03 0.  0.
         25    1    4    4    0    0  0.36787119089E+02  0.97062422790E+01 -0.15813812938E+03  0.20518937432E+03  0.12509000000E+03 0.  0.
<mgrwt>
<rscale>  2 0.45195740E+03</rscale>
<asrwt>0</asrwt>
<pdfrwt beam="1">  1       21 0.21535116E-01 0.45195740E+03</pdfrwt>
<pdfrwt beam="2">  1       21 0.51282592E-01 0.45195740E+03</pdfrwt>
<totfact> 0.67221005E+04</totfact>
</mgrwt>
</event>
<event>
 7    0  0.4750554E-002  0.4547512E+03  0.7546771E-02  0.1026315E+00
         21   -1    0    0  502  501  0.00000000000E+00  0.00000000000E+00  0.12033873002E+03  0.12033873002E+03  0.00000000000E+00 0.  1.
         21   -1    0    0  501  502 -0.00000000000E+00 -0.00000000000E+00 -0.42961775893E+03  0.42961775893E+03  0.00000000000E+00 0.  1.
      99926    2    1    2    0    0  0.00000000000E+00  0.00000000000E+00 -0.30927902892E+03  0.54995648895E+03  0.45475116493E+03 0.  0.
      99925    2    3    3    0    0  0.81294143842E+02 -0.71066722152E+02 -0.23399072382E+03  0.36836614283E+03  0.26321614602E+03 0.  0.
         25    1    4    4    0    0  0.59129605210E+02 -0.43859734939E+02 -0.76071820320E+02  0.16387317202E+03  0.12509000000E+03 0.  0.
         25    1    4    4    0    0  0.22164538633E+02 -0.27206987214E+02 -0.15791890350E+03  0.20449297081E+03  0.12509000000E+03 0.  0.
         25    1    3    3    0    0 -0.81294143842E+02  0.71066722152E+02 -0.75288305094E+02  0.18159034612E+03  0.12509000000E+03 0.  0.
<mgrwt>
<rscale>  2 0.45475116E+03</rscale>
<asrwt>0</asrwt>
<pdfrwt beam="1">  1       21 0.17696872E-01 0.45475116E+03</pdfrwt>
<pdfrwt beam="2">  1       21 0.63179081E-01 0.45475116E+03</pdfrwt>
<totfact> 0.61991344E+04</totfact>
</mgrwt>
</event>
<event>
 7    0  0.4750554E-002  0.4551781E+03  0.7546771E-02  0.1026189E+00
         21   -1    0    0  502  501  0.00000000000E+00  0.00000000000E+00  0.55928071081E+02  0.55928071081E+02  0.00000000000E+00 0.  1.
         21   -1    0    0  501  502 -0.00000000000E+00 -0.00000000000E+00 -0.92613184917E+03  0.92613184917E+03  0.00000000000E+00 0.  1.
      99926    2    1    2    0    0  0.71054273576E-14 -0.71054273576E-14 -0.87020377809E+03  0.98205992025E+03  0.45517806578E+03 0.  0.
      99925    2    3    3    0    0 -0.50133752368E+02  0.51867125798E+02 -0.73596579427E+03  0.78490278428E+03  0.26310290490E+03 0.  0.
         25    1    3    3    0    0  0.50133752368E+02 -0.51867125798E+02 -0.13423798382E+03  0.19715713597E+03  0.12509000000E+03 0.  0.
         25    1    4    4    0    0 -0.40085479410E+02  0.25176762099E+02 -0.26590111131E+03  0.29764345131E+03  0.12509000000E+03 0.  0.
         25    1    4    4    0    0 -0.10048272958E+02  0.26690363699E+02 -0.47006468295E+03  0.48725933297E+03  0.12509000000E+03 0.  0.
<mgrwt>
<rscale>  2 0.45517807E+03</rscale>
<asrwt>0</asrwt>
<pdfrwt beam="1">  1       21 0.82247168E-02 0.45517807E+03</pdfrwt>
<pdfrwt beam="2">  1       21 0.13619585E+00 0.45517807E+03</pdfrwt>
<totfact> 0.39813519E+04</totfact>
</mgrwt>
</event>
<event>
 7    0  0.4750554E-002  0.4468088E+03  0.7546771E-02  0.1028678E+00
         21   -1    0    0  502  501  0.00000000000E+00  0.00000000000E+00  0.47649116001E+03  0.47649116001E+03  0.00000000000E+00 0.  1.
         21   -1    0    0  501  502 -0.00000000000E+00 -0.00000000000E+00 -0.10474385819E+03  0.10474385819E+03  0.00000000000E+00 0.  1.
      99926    2    1    2    0    0  0.00000000000E+00  0.88817841970E-15  0.37174730181E+03  0.58123501820E+03  0.44680878458E+03 0.  0.
      99925    2    3    3    0    0 -0.63437598785E+02 -0.79661219506E+01  0.34450034684E+03  0.43813472926E+03  0.26304707559E+03 0.  0.
         25    1    4    4    0    0 -0.25635727754E+02  0.14612800028E+02  0.11201565802E+03  0.17048677428E+03  0.12509000000E+03 0.  0.
         25    1    4    4    0    0 -0.37801871031E+02 -0.22578921979E+02  0.23248468882E+03  0.26764795499E+03  0.12509000000E+03 0.  0.
         25    1    3    3    0    0  0.63437598785E+02  0.79661219506E+01  0.27246954972E+02  0.14310028894E+03  0.12509000000E+03 0.  0.
<mgrwt>
<rscale>  2 0.44680878E+03</rscale>
<asrwt>0</asrwt>
<pdfrwt beam="1">  1       21 0.70072228E-01 0.44680878E+03</pdfrwt>
<pdfrwt beam="2">  1       21 0.15403509E-01 0.44680878E+03</pdfrwt>
<totfact> 0.63885839E+04</totfact>
</mgrwt>
</event>
<event>
 7    0  0.4750554E-002  0.4554717E+03  0.7546771E-02  0.1026103E+00
         21   -1    0    0  502  501  0.00000000000E+00  0.00000000000E+00  0.19745234033E+03  0.19745234033E+03  0.00000000000E+00 0. -1.
         21   -1    0    0  501  502 -0.00000000000E+00 -0.00000000000E+00 -0.26266402545E+03  0.26266402545E+03  0.00000000000E+00 0. -1.
      99926    2    1    2    0    0  0.71054273576E-14  0.71054273576E-14 -0.65211685111E+02  0.46011636578E+03  0.45547174027E+03 0.  0.
      99925    2    3    3    0    0 -0.48489584441E+02 -0.62742201213E+02 -0.12329357769E+03  0.30102884912E+03  0.26292439614E+03 0.  0.
         25    1    3    3    0    0  0.48489584441E+02  0.62742201213E+02  0.58081892582E+02  0.15908751666E+03  0.12509000000E+03 0.  0.
         25    1    4    4    0    0  0.35888020680E+01 -0.65941127876E+01 -0.36157773219E+02  0.13042719995E+03  0.12509000000E+03 0.  0.
         25    1    4    4    0    0 -0.52078386509E+02 -0.56148088426E+02 -0.87135804474E+02  0.17060164916E+03  0.12509000000E+03 0.  0.
<mgrwt>
<rscale>  2 0.45547174E+03</rscale>
<asrwt>0</asrwt>
<pdfrwt beam="1">  1       21 0.29037109E-01 0.45547174E+03</pdfrwt>
<pdfrwt beam="2">  1       21 0.38627062E-01 0.45547174E+03</pdfrwt>
<totfact> 0.67916236E+04</totfact>
</mgrwt>
</event>
<event>
 7    0  0.4750554E-002  0.4857462E+03  0.7546771E-02  0.1017568E+00
         21   -1    0    0  502  501  0.00000000000E+00  0.00000000000E+00  0.64510063686E+03  0.64510063686E+03  0.00000000000E+00 0.  1.
         21   -1    0    0  501  502 -0.00000000000E+00 -0.00000000000E+00 -0.91438992108E+02  0.91438992108E+02  0.00000000000E+00 0.  1.
      99926    2    1    2    0    0  0.00000000000E+00  0.00000000000E+00  0.55366164475E+03  0.73653962897E+03  0.48574623845E+03 0.  0.
      99925    2    3    3    0    0  0.35165639183E+02 -0.13502490232E+03  0.35836565816E+03  0.46588047633E+03  0.26296449733E+03 0.  0.
         25    1    4    4    0    0  0.28711721706E+02 -0.25743420494E+02  0.14375089685E+03  0.19441943089E+03  0.12509000000E+03 0.  0.
         25    1    3    3    0    0 -0.35165639183E+02  0.13502490232E+03  0.19529598659E+03  0.27065915263E+03  0.12509000000E+03 0.  0.
         25    1    4    4    0    0  0.64539174775E+01 -0.10928148183E+03  0.21461476131E+03  0.27146104544E+03  0.12509000000E+03 0.  0.
<mgrwt>
<rscale>  2 0.48574624E+03</rscale>
<asrwt>0</asrwt>
<pdfrwt beam="1">  1       21 0.94867739E-01 0.48574624E+03</pdfrwt>
<pdfrwt beam="2">  1       21 0.13446911E-01 0.48574624E+03</pdfrwt>
<totfact> 0.40298225E+04</totfact>
</mgrwt>
</event>
<event>
 7    0  0.4750554E-002  0.4534889E+03  0.7546771E-02  0.1026687E+00
         21   -1    0    0  502  501  0.00000000000E+00  0.00000000000E+00  0.16163333796E+03  0.16163333796E+03  0.00000000000E+00 0.  1.
         21   -1    0    0  501  502 -0.00000000000E+00 -0.00000000000E+00 -0.31808435915E+03  0.31808435915E+03  0.00000000000E+00 0.  1.
      99926    2    1    2    0    0  0.00000000000E+00 -0.14210854715E-13 -0.15645102119E+03  0.47971769711E+03  0.45348886082E+03 0.  0.
      99925    2    3    3    0    0  0.45359161897E+02  0.80759945370E+02 -0.16496587636E+03  0.32383430094E+03  0.26282178706E+03 0.  0.
         25    1    4    4    0    0 -0.16152358274E+02  0.33704443861E+02 -0.91196966007E+02  0.15925226191E+03  0.12509000000E+03 0.  0.
         25    1    3    3    0    0 -0.45359161897E+02 -0.80759945370E+02  0.85148551736E+01  0.15588339617E+03  0.12509000000E+03 0.  0.
         25    1    4    4    0    0  0.61511520171E+02  0.47055501508E+02 -0.73768910358E+02  0.16458203903E+03  0.12509000000E+03 0.  0.
<mgrwt>
<rscale>  2 0.45348886E+03</rscale>
<asrwt>0</asrwt>
<pdfrwt beam="1">  1       21 0.23769609E-01 0.45348886E+03</pdfrwt>
<pdfrwt beam="2">  1       21 0.46777111E-01 0.45348886E+03</pdfrwt>
<totfact> 0.67526998E+04</totfact>
</mgrwt>
</event>
<event>
 7    0  0.4750554E-002  0.4587981E+03  0.7546771E-02  0.1025130E+00
         21   -1    0    0  502  501  0.00000000000E+00  0.00000000000E+00  0.65324172908E+03  0.65324172908E+03  0.00000000000E+00 0.  1.
         21   -1    0    0  501  502 -0.00000000000E+00 -0.00000000000E+00 -0.80558116951E+02  0.80558116951E+02  0.00000000000E+00 0.  1.
      99926    2    1    2    0    0  0.00000000000E+00  0.00000000000E+00  0.57268361213E+03  0.73379984603E+03  0.45879809768E+03 0.  0.
      99925    2    3    3    0    0 -0.84476543484E+02 -0.44842559492E+02  0.25252366472E+03  0.37701273645E+03  0.26310313692E+03 0.  0.
         25    1    4    4    0    0 -0.45712905918E+02  0.18479262350E+02  0.11872034485E+03  0.17936884146E+03  0.12509000000E+03 0.  0.
         25    1    3    3    0    0  0.84476543484E+02  0.44842559492E+02  0.32015994741E+03  0.35678710958E+03  0.12509000000E+03 0.  0.
         25    1    4    4    0    0 -0.38763637566E+02 -0.63321821841E+02  0.13380331988E+03  0.19764389499E+03  0.12509000000E+03 0.  0.
<mgrwt>
<rscale>  2 0.45879810E+03</rscale>
<asrwt>0</asrwt>
<pdfrwt beam="1">  1       21 0.96064958E-01 0.45879810E+03</pdfrwt>
<pdfrwt beam="2">  1       21 0.11846782E-01 0.45879810E+03</pdfrwt>
<totfact> 0.49607837E+04</totfact>
</mgrwt>
</event>
<event>
 7    0  0.4750554E-002  0.4647373E+03  0.7546771E-02  0.1023416E+00
         21   -1    0    0  502  501  0.00000000000E+00  0.00000000000E+00  0.21425512510E+02  0.21425512510E+02  0.00000000000E+00 0.  1.
         21   -1    0    0  501  502 -0.00000000000E+00 -0.00000000000E+00 -0.25201348507E+04  0.25201348507E+04  0.00000000000E+00 0.  1.
      99926    2    1    2    0    0  0.00000000000E+00  0.00000000000E+00 -0.24987093382E+04  0.25415603632E+04  0.46473726242E+03 0.  0.
      99925    2    3    3    0    0  0.60639288304E+02  0.80304551230E+02 -0.19371338572E+04  0.19574880448E+04  0.26295611881E+03 0.  0.
         25    1    4    4    0    0  0.68802251933E+02  0.29839987258E+02 -0.94305056260E+03  0.95426204285E+03  0.12509000000E+03 0.  0.
         25    1    3    3    0    0 -0.60639288304E+02 -0.80304551230E+02 -0.56157548098E+03  0.58407231845E+03  0.12509000000E+03 0.  0.
         25    1    4    4    0    0 -0.81629636288E+01  0.50464563972E+02 -0.99408329460E+03  0.10032260019E+04  0.12509000000E+03 0.  0.
<mgrwt>
<rscale>  2 0.46473726E+03</rscale>
<asrwt>0</asrwt>
<pdfrwt beam="1">  1       21 0.31508115E-02 0.46473726E+03</pdfrwt>
<pdfrwt beam="2">  1       21 0.37060797E+00 0.46473726E+03</pdfrwt>
<totfact> 0.62306417E+03</totfact>
</mgrwt>
</event>
<event>
 7    0  0.4750554E-002  0.4568101E+03  0.7546771E-02  0.1025710E+00
         21   -1    0    0  502  501  0.00000000000E+00  0.00000000000E+00  0.25495149961E+03  0.25495149961E+03  0.00000000000E+00 0.  1.
         21   -1    0    0  501  502 -0.00000000000E+00 -0.00000000000E+00 -0.20462267504E+03  0.20462267504E+03  0.00000000000E+00 0.  1.
      99926    2    1    2    0    0  0.00000000000E+00  0.00000000000E+00  0.50328824568E+02  0.45957417465E+03  0.45681006056E+03 0.  0.
      99925    2    3    3    0    0  0.12712233629E+02 -0.16351145470E+02  0.14542583640E+03  0.30108155463E+03  0.26281641464E+03 0.  0.
         25    1    4    4    0    0  0.14696567275E+02 -0.46943981814E+02  0.82802472488E+02  0.15787173296E+03  0.12509000000E+03 0.  0.
         25    1    3    3    0    0 -0.12712233629E+02  0.16351145470E+02 -0.95097011831E+02  0.15849262002E+03  0.12509000000E+03 0.  0.
         25    1    4    4    0    0 -0.19843336454E+01  0.30592836344E+02  0.62623363912E+02  0.14320982167E+03  0.12509000000E+03 0.  0.
<mgrwt>
<rscale>  2 0.45681006E+03</rscale>
<asrwt>0</asrwt>
<pdfrwt beam="1">  1       21 0.37492868E-01 0.45681006E+03</pdfrwt>
<pdfrwt beam="2">  1       21 0.30091570E-01 0.45681006E+03</pdfrwt>
<totfact> 0.67235683E+04</totfact>
</mgrwt>
</event>
<event>
 7    0  0.4750554E-002  0.4640256E+03  0.7546771E-02  0.1023620E+00
         21   -1    0    0  502  501  0.00000000000E+00  0.00000000000E+00  0.27537106540E+03  0.27537106540E+03  0.00000000000E+00 0. -1.
         21   -1    0    0  501  502 -0.00000000000E+00 -0.00000000000E+00 -0.19548143612E+03  0.19548143612E+03  0.00000000000E+00 0. -1.
      99926    2    1    2    0    0  0.35527136788E-14 -0.14210854715E-13  0.79889629281E+02  0.47085250152E+03  0.46402556537E+03 0.  0.
      99925    2    3    3    0    0 -0.20775139557E+02  0.11644339535E+03  0.20168195364E+02  0.28863058046E+03  0.26250749537E+03 0.  0.
         25    1    4    4    0    0  0.16609391147E+02  0.71192155000E+02  0.36720536372E+02  0.14946605200E+03  0.12509000000E+03 0.  0.
         25    1    4    4    0    0 -0.37384530704E+02  0.45251240353E+02 -0.16552341007E+02  0.13916452846E+03  0.12509000000E+03 0.  0.
         25    1    3    3    0    0  0.20775139557E+02 -0.11644339535E+03  0.59721433916E+02  0.18222192106E+03  0.12509000000E+03 0.  0.
<mgrwt>
<rscale>  2 0.46402557E+03</rscale>
<asrwt>0</asrwt>
<pdfrwt beam="1">  1       21 0.40495745E-01 0.46402557E+03</pdfrwt>
<pdfrwt beam="2">  1       21 0.28747270E-01 0.46402557E+03</pdfrwt>
<totfact> 0.62753202E+04</totfact>
</mgrwt>
</event>
<event>
 7    0  0.4750554E-002  0.4556651E+03  0.7546771E-02  0.1026046E+00
         21   -1    0    0  502  501  0.00000000000E+00  0.00000000000E+00  0.10229510643E+03  0.10229510643E+03  0.00000000000E+00 0.  1.
         21   -1    0    0  501  502 -0.00000000000E+00 -0.00000000000E+00 -0.50743058878E+03  0.50743058878E+03  0.00000000000E+00 0.  1.
      99926    2    1    2    0    0  0.00000000000E+00  0.00000000000E+00 -0.40513548235E+03  0.60972569521E+03  0.45566507913E+03 0.  0.
      99925    2    3    3    0    0 -0.55114788542E+02 -0.57680518943E+02 -0.36350806599E+03  0.45563146406E+03  0.26286352889E+03 0.  0.
         25    1    4    4    0    0 -0.62413488666E+02 -0.10101069080E+02 -0.17191921866E+03  0.22181343739E+03  0.12509000000E+03 0.  0.
         25    1    3    3    0    0  0.55114788542E+02  0.57680518943E+02 -0.41627416365E+02  0.15409423115E+03  0.12509000000E+03 0.  0.
         25    1    4    4    0    0  0.72987001242E+01 -0.47579449864E+02 -0.19158884733E+03  0.23381802666E+03  0.12509000000E+03 0.  0.
<mgrwt>
<rscale>  2 0.45566508E+03</rscale>
<asrwt>0</asrwt>
<pdfrwt beam="1">  1       21 0.15043398E-01 0.45566508E+03</pdfrwt>
<pdfrwt beam="2">  1       21 0.74622147E-01 0.45566508E+03</pdfrwt>
<totfact> 0.57779444E+04</totfact>
</mgrwt>
</event>
<event>
 7    0  0.4750554E-002  0.4651565E+03  0.7546771E-02  0.1023296E+00
         21   -1    0    0  502  501  0.00000000000E+00  0.00000000000E+00  0.27710396423E+03  0.27710396423E+03  0.00000000000E+00 0. -1.
         21   -1    0    0  501  502 -0.00000000000E+00 -0.00000000000E+00 -0.19520702428E+03  0.19520702428E+03  0.00000000000E+00 0. -1.
      99926    2    1    2    0    0 -0.35527136788E-14  0.00000000000E+00  0.81896939948E+02  0.47231098851E+03  0.46515649097E+03 0.  0.
      99925    2    3    3    0    0  0.29466872176E+02  0.11226981075E+03  0.90913374154E+02  0.30142619940E+03  0.26290626680E+03 0.  0.
         25    1    4    4    0    0  0.36118616500E+02  0.34357278897E+02  0.14913834091E+02  0.13548028498E+03  0.12509000000E+03 0.  0.
         25    1    3    3    0    0 -0.29466872176E+02 -0.11226981075E+03 -0.90164342061E+01  0.17088478911E+03  0.12509000000E+03 0.  0.
         25    1    4    4    0    0 -0.66517443243E+01  0.77912531855E+02  0.75999540063E+02  0.16594591442E+03  0.12509000000E+03 0.  0.
<mgrwt>
<rscale>  2 0.46515649E+03</rscale>
<asrwt>0</asrwt>
<pdfrwt beam="1">  1       21 0.40750583E-01 0.46515649E+03</pdfrwt>
<pdfrwt beam="2">  1       21 0.28706915E-01 0.46515649E+03</pdfrwt>
<totfact> 0.62103303E+04</totfact>
</mgrwt>
</event>
<event>
 7    0  0.4750554E-002  0.4512810E+03  0.7546771E-02  0.1027341E+00
         21   -1    0    0  502  501  0.00000000000E+00  0.00000000000E+00  0.48585055114E+02  0.48585055114E+02  0.00000000000E+00 0.  1.
         21   -1    0    0  501  502 -0.00000000000E+00 -0.00000000000E+00 -0.10479277872E+04  0.10479277872E+04  0.00000000000E+00 0.  1.
      99926    2    1    2    0    0  0.00000000000E+00 -0.17763568394E-14 -0.99934273211E+03  0.10965128423E+04  0.45128097367E+03 0.  0.
      99925    2    3    3    0    0 -0.10693363559E+03  0.83449326864E+01 -0.68603458095E+03  0.74251574347E+03  0.26302422460E+03 0.  0.
         25    1    4    4    0    0 -0.87449423840E+02  0.89474025348E+01 -0.30824876525E+03  0.34408177389E+03  0.12509000000E+03 0.  0.
         25    1    4    4    0    0 -0.19484211750E+02 -0.60246984837E+00 -0.37778581569E+03  0.39843396958E+03  0.12509000000E+03 0.  0.
         25    1    3    3    0    0  0.10693363559E+03 -0.83449326864E+01 -0.31330815117E+03  0.35399709887E+03  0.12509000000E+03 0.  0.
<mgrwt>
<rscale>  2 0.45128097E+03</rscale>
<asrwt>0</asrwt>
<pdfrwt beam="1">  1       21 0.71448616E-02 0.45128097E+03</pdfrwt>
<pdfrwt beam="2">  1       21 0.15410702E+00 0.45128097E+03</pdfrwt>
<totfact> 0.36667762E+04</totfact>
</mgrwt>
</event>
<event>
 7    0  0.4750554E-002  0.4532638E+03  0.7546771E-02  0.1026753E+00
         21   -1    0    0  502  501  0.00000000000E+00  0.00000000000E+00  0.24983044458E+02  0.24983044458E+02  0.00000000000E+00 0.  1.
         21   -1    0    0  501  502 -0.00000000000E+00 -0.00000000000E+00 -0.20558750779E+04  0.20558750779E+04  0.00000000000E+00 0.  1.
      99926    2    1    2    0    0  0.00000000000E+00  0.00000000000E+00 -0.20308920335E+04  0.20808581224E+04  0.45326380165E+03 0.  0.
      99925    2    3    3    0    0 -0.48859906273E+02  0.10022461770E+03 -0.12695744422E+04  0.13013170732E+04  0.26301063927E+03 0.  0.
         25    1    4    4    0    0 -0.30390520361E+02  0.28424551222E+02 -0.44877791692E+03  0.46773995516E+03  0.12509000000E+03 0.  0.
         25    1    4    4    0    0 -0.18469385912E+02  0.71800066482E+02 -0.82079652526E+03  0.83357711806E+03  0.12509000000E+03 0.  0.
         25    1    3    3    0    0  0.48859906273E+02 -0.10022461770E+03 -0.76131759127E+03  0.77954104915E+03  0.12509000000E+03 0.  0.
<mgrwt>
<rscale>  2 0.45326380E+03</rscale>
<asrwt>0</asrwt>
<pdfrwt beam="1">  1       21 0.36739785E-02 0.45326380E+03</pdfrwt>
<pdfrwt beam="2">  1       21 0.30233446E+00 0.45326380E+03</pdfrwt>
<totfact> 0.12603392E+04</totfact>
</mgrwt>
</event>
<event>
 7    0  0.4750554E-002  0.4541291E+03  0.7546771E-02  0.1026498E+00
         21   -1    0    0  502  501  0.00000000000E+00  0.00000000000E+00  0.39564646585E+03  0.39564646585E+03  0.00000000000E+00 0.  1.
         21   -1    0    0  501  502 -0.00000000000E+00 -0.00000000000E+00 -0.13031408941E+03  0.13031408941E+03  0.00000000000E+00 0.  1.
      99926    2    1    2    0    0  0.00000000000E+00  0.00000000000E+00  0.26533237644E+03  0.52596055526E+03  0.45412909586E+03 0.  0.
      99925    2    3    3    0    0 -0.36075354029E+02  0.51126223692E+02  0.58967945443E+02  0.27666332624E+03  0.26296398152E+03 0.  0.
         25    1    4    4    0    0  0.10325837058E+02  0.51503929161E+02  0.42829882603E+02  0.14227151709E+03  0.12509000000E+03 0.  0.
         25    1    4    4    0    0 -0.46401191087E+02 -0.37770546967E+00  0.16138062840E+02  0.13439180916E+03  0.12509000000E+03 0.  0.
         25    1    3    3    0    0  0.36075354029E+02 -0.51126223692E+02  0.20636443100E+03  0.24929722902E+03  0.12509000000E+03 0.  0.
<mgrwt>
<rscale>  2 0.45412910E+03</rscale>
<asrwt>0</asrwt>
<pdfrwt beam="1">  1       21 0.58183304E-01 0.45412910E+03</pdfrwt>
<pdfrwt beam="2">  1       21 0.19163837E-01 0.45412910E+03</pdfrwt>
<totfact> 0.63920950E+04</totfact>
</mgrwt>
</event>
<event>
 7    0  0.4750554E-002  0.4495377E+03  0.7546771E-02  0.1027860E+00
         21   -1    0    0  502  501  0.00000000000E+00  0.00000000000E+00  0.89873765184E+03  0.89873765184E+03  0.00000000000E+00 0.  1.
         21   -1    0    0  501  502 -0.00000000000E+00 -0.00000000000E+00 -0.56213328739E+02  0.56213328739E+02  0.00000000000E+00 0.  1.
      99926    2    1    2    0    0  0.00000000000E+00  0.35527136788E-14  0.84252432310E+03  0.95495098058E+03  0.44953769619E+03 0.  0.
      99925    2    3    3    0    0  0.10267180789E+03 -0.16556795813E+02  0.47097815485E+03  0.54935303819E+03  0.26296902975E+03 0.  0.
         25    1    3    3    0    0 -0.10267180789E+03  0.16556795813E+02  0.37154616825E+03  0.40559794239E+03  0.12509000000E+03 0.  0.
         25    1    4    4    0    0  0.52766541072E+02 -0.47903124647E+02  0.22321956541E+03  0.26561908759E+03  0.12509000000E+03 0.  0.
         25    1    4    4    0    0  0.49905266822E+02  0.31346328834E+02  0.24775858944E+03  0.28373395061E+03  0.12509000000E+03 0.  0.
<mgrwt>
<rscale>  2 0.44953770E+03</rscale>
<asrwt>0</asrwt>
<pdfrwt beam="1">  1       21 0.13216729E+00 0.44953770E+03</pdfrwt>
<pdfrwt beam="2">  1       21 0.82666665E-02 0.44953770E+03</pdfrwt>
<totfact> 0.42737366E+04</totfact>
</mgrwt>
</event>
<event>
 7    0  0.4750554E-002  0.4604666E+03  0.7546771E-02  0.1024646E+00
         21   -1    0    0  502  501  0.00000000000E+00  0.00000000000E+00  0.32943324395E+03  0.32943324395E+03  0.00000000000E+00 0. -1.
         21   -1    0    0  501  502 -0.00000000000E+00 -0.00000000000E+00 -0.16090477532E+03  0.16090477532E+03  0.00000000000E+00 0. -1.
      99926    2    1    2    0    0  0.00000000000E+00  0.00000000000E+00  0.16852846863E+03  0.49033801927E+03  0.46046664201E+03 0.  0.
      99925    2    3    3    0    0 -0.70010289811E+02 -0.55345437076E+02  0.18814663577E+03  0.33542856615E+03  0.26296122975E+03 0.  0.
         25    1    4    4    0    0 -0.34031418836E+02 -0.56784024700E+02  0.63204370919E+02  0.15499955978E+03  0.12509000000E+03 0.  0.
         25    1    3    3    0    0  0.70010289811E+02  0.55345437076E+02 -0.19618167143E+02  0.15490945312E+03  0.12509000000E+03 0.  0.
         25    1    4    4    0    0 -0.35978870975E+02  0.14385876243E+01  0.12494226485E+03  0.18042900636E+03  0.12509000000E+03 0.  0.
<mgrwt>
<rscale>  2 0.46046664E+03</rscale>
<asrwt>0</asrwt>
<pdfrwt beam="1">  1       21 0.48446065E-01 0.46046664E+03</pdfrwt>
<pdfrwt beam="2">  1       21 0.23662467E-01 0.46046664E+03</pdfrwt>
<totfact> 0.63168747E+04</totfact>
</mgrwt>
</event>
<event>
 7    0  0.4750554E-002  0.4487922E+03  0.7546771E-02  0.1028083E+00
         21   -1    0    0  502  501  0.00000000000E+00  0.00000000000E+00  0.99377714839E+03  0.99377714839E+03  0.00000000000E+00 0. -1.
         21   -1    0    0  501  502 -0.00000000000E+00 -0.00000000000E+00 -0.50668910843E+02  0.50668910843E+02  0.00000000000E+00 0. -1.
      99926    2    1    2    0    0  0.71054273576E-14  0.00000000000E+00  0.94310823755E+03  0.10444460592E+04  0.44879218233E+03 0.  0.
      99925    2    3    3    0    0 -0.58087653841E+02 -0.51440428649E+02  0.76886103526E+03  0.81634544803E+03  0.26315832828E+03 0.  0.
         25    1    4    4    0    0 -0.12638577215E+02 -0.18020921387E+02  0.26086771724E+03  0.29014472464E+03  0.12509000000E+03 0.  0.
         25    1    3    3    0    0  0.58087653841E+02  0.51440428649E+02  0.17424720229E+03  0.22810061121E+03  0.12509000000E+03 0.  0.
         25    1    4    4    0    0 -0.45449076626E+02 -0.33419507262E+02  0.50799331802E+03  0.52620072338E+03  0.12509000000E+03 0.  0.
<mgrwt>
<rscale>  2 0.44879218E+03</rscale>
<asrwt>0</asrwt>
<pdfrwt beam="1">  1       21 0.14614369E+00 0.44879218E+03</pdfrwt>
<pdfrwt beam="2">  1       21 0.74513110E-02 0.44879218E+03</pdfrwt>
<totfact> 0.39354504E+04</totfact>
</mgrwt>
</event>
<event>
 7    0  0.4750554E-002  0.4547140E+03  0.7546771E-02  0.1026326E+00
         21   -1    0    0  502  501  0.00000000000E+00  0.00000000000E+00  0.56897698659E+03  0.56897698659E+03  0.00000000000E+00 0.  1.
         21   -1    0    0  501  502 -0.00000000000E+00 -0.00000000000E+00 -0.90849387507E+02  0.90849387507E+02  0.00000000000E+00 0.  1.
      99926    2    1    2    0    0  0.00000000000E+00  0.00000000000E+00  0.47812759909E+03  0.65982637410E+03  0.45471402326E+03 0.  0.
      99925    2    3    3    0    0 -0.91112669802E+02 -0.42673482496E+02  0.37522686158E+03  0.46914702392E+03  0.26302316950E+03 0.  0.
         25    1    3    3    0    0  0.91112669802E+02  0.42673482496E+02  0.10290073750E+03  0.19067935018E+03  0.12509000000E+03 0.  0.
         25    1    4    4    0    0 -0.44886564627E+02  0.61993719028E+01  0.23197523197E+03  0.26741961829E+03  0.12509000000E+03 0.  0.
         25    1    4    4    0    0 -0.46226105175E+02 -0.48872854399E+02  0.14325162961E+03  0.20172740563E+03  0.12509000000E+03 0.  0.
<mgrwt>
<rscale>  2 0.45471402E+03</rscale>
<asrwt>0</asrwt>
<pdfrwt beam="1">  1       21 0.83673085E-01 0.45471402E+03</pdfrwt>
<pdfrwt beam="2">  1       21 0.13360204E-01 0.45471402E+03</pdfrwt>
<totfact> 0.55263030E+04</totfact>
</mgrwt>
</event>
<event>
 7    0  0.4750554E-002  0.4501488E+03  0.7546771E-02  0.1027678E+00
         21   -1    0    0  502  501  0.00000000000E+00  0.00000000000E+00  0.39806924040E+03  0.39806924040E+03  0.00000000000E+00 0.  1.
         21   -1    0    0  501  502 -0.00000000000E+00 -0.00000000000E+00 -0.12726048623E+03  0.12726048623E+03  0.00000000000E+00 0.  1.
      99926    2    1    2    0    0 -0.71054273576E-14  0.14210854715E-13  0.27080875417E+03  0.52532972663E+03  0.45014879801E+03 0.  0.
      99925    2    3    3    0    0 -0.55983437297E+02  0.76957268600E+02  0.11053037024E+03  0.30084535102E+03  0.26312429770E+03 0.  0.
         25    1    4    4    0    0 -0.60766271737E+02  0.21545477369E+02  0.37275366908E+02  0.14558059092E+03  0.12509000000E+03 0.  0.
         25    1    4    4    0    0  0.47828344404E+01  0.55411791231E+02  0.73255003336E+02  0.15526476009E+03  0.12509000000E+03 0.  0.
         25    1    3    3    0    0  0.55983437297E+02 -0.76957268600E+02  0.16027838393E+03  0.22448437562E+03  0.12509000000E+03 0.  0.
<mgrwt>
<rscale>  2 0.45014880E+03</rscale>
<asrwt>0</asrwt>
<pdfrwt beam="1">  1       21 0.58539594E-01 0.45014880E+03</pdfrwt>
<pdfrwt beam="2">  1       21 0.18714777E-01 0.45014880E+03</pdfrwt>
<totfact> 0.66026270E+04</totfact>
</mgrwt>
</event>
<event>
 7    0  0.4750554E-002  0.4590883E+03  0.7546771E-02  0.1025046E+00
         21   -1    0    0  502  501  0.00000000000E+00  0.00000000000E+00  0.51843306120E+03  0.51843306120E+03  0.00000000000E+00 0.  1.
         21   -1    0    0  501  502 -0.00000000000E+00 -0.00000000000E+00 -0.10163415830E+03  0.10163415830E+03  0.00000000000E+00 0.  1.
      99926    2    1    2    0    0  0.00000000000E+00  0.71054273576E-14  0.41679890290E+03  0.62006721950E+03  0.45908826084E+03 0.  0.
      99925    2    3    3    0    0  0.83148979243E+02  0.61129385825E+02  0.18734083566E+03  0.33908845290E+03  0.26312323277E+03 0.  0.
         25    1    3    3    0    0 -0.83148979243E+02 -0.61129385825E+02  0.22945806724E+03  0.28097876660E+03  0.12509000000E+03 0.  0.
         25    1    4    4    0    0  0.62491361944E+02  0.11505479892E+01  0.11624136796E+03  0.18184074847E+03  0.12509000000E+03 0.  0.
         25    1    4    4    0    0  0.20657617300E+02  0.59978837836E+02  0.71099467697E+02  0.15724770443E+03  0.12509000000E+03 0.  0.
<mgrwt>
<rscale>  2 0.45908826E+03</rscale>
<asrwt>0</asrwt>
<pdfrwt beam="1">  1       21 0.76240155E-01 0.45908826E+03</pdfrwt>
<pdfrwt beam="2">  1       21 0.14946200E-01 0.45908826E+03</pdfrwt>
<totfact> 0.55641575E+04</totfact>
</mgrwt>
</event>
<event>
 7    0  0.4750554E-002  0.4545661E+03  0.7546771E-02  0.1026369E+00
         21   -1    0    0  502  501  0.00000000000E+00  0.00000000000E+00  0.41871766802E+02  0.41871766802E+02  0.00000000000E+00 0.  1.
         21   -1    0    0  501  502 -0.00000000000E+00 -0.00000000000E+00 -0.12337089658E+04  0.12337089658E+04  0.00000000000E+00 0.  1.
      99926    2    1    2    0    0  0.71054273576E-14 -0.35527136788E-14 -0.11918371990E+04  0.12755807326E+04  0.45456605293E+03 0.  0.
      99925    2    3    3    0    0  0.59719267634E+02  0.21282484890E+02 -0.48754535188E+03  0.55746246302E+03  0.26276337729E+03 0.  0.
         25    1    3    3    0    0 -0.59719267634E+02 -0.21282484890E+02 -0.70429184715E+03  0.71811826962E+03  0.12509000000E+03 0.  0.
         25    1    4    4    0    0  0.26823877739E+02 -0.24494344945E+02 -0.27786724643E+03  0.30688305279E+03  0.12509000000E+03 0.  0.
         25    1    4    4    0    0  0.32895389895E+02  0.45776829835E+02 -0.20967810545E+03  0.25057941023E+03  0.12509000000E+03 0.  0.
<mgrwt>
<rscale>  2 0.45456605E+03</rscale>
<asrwt>0</asrwt>
<pdfrwt beam="1">  1       21 0.61576136E-02 0.45456605E+03</pdfrwt>
<pdfrwt beam="2">  1       21 0.18142776E+00 0.45456605E+03</pdfrwt>
<totfact> 0.29933233E+04</totfact>
</mgrwt>
</event>
<event>
 7    0  0.4750554E-002  0.4556806E+03  0.7546771E-02  0.1026041E+00
         21   -1    0    0  502  501  0.00000000000E+00  0.00000000000E+00  0.83957031210E+02  0.83957031210E+02  0.00000000000E+00 0.  1.
         21   -1    0    0  501  502 -0.00000000000E+00 -0.00000000000E+00 -0.61830676714E+03  0.61830676714E+03  0.00000000000E+00 0.  1.
      99926    2    1    2    0    0  0.00000000000E+00  0.71054273576E-14 -0.53434973593E+03  0.70226379835E+03  0.45568059228E+03 0.  0.
      99925    2    3    3    0    0  0.97893523158E+02 -0.57254291879E+02 -0.34954895170E+03  0.45194393544E+03  0.26307347896E+03 0.  0.
         25    1    3    3    0    0 -0.97893523158E+02  0.57254291879E+02 -0.18480078423E+03  0.25031986291E+03  0.12509000000E+03 0.  0.
         25    1    4    4    0    0  0.34495988970E+02 -0.34250012378E+02 -0.11049416496E+03  0.17383758280E+03  0.12509000000E+03 0.  0.
         25    1    4    4    0    0  0.63397534188E+02 -0.23004279501E+02 -0.23905478674E+03  0.27810635264E+03  0.12509000000E+03 0.  0.
<mgrwt>
<rscale>  2 0.45568059E+03</rscale>
<asrwt>0</asrwt>
<pdfrwt beam="1">  1       21 0.12346622E-01 0.45568059E+03</pdfrwt>
<pdfrwt beam="2">  1       21 0.90927466E-01 0.45568059E+03</pdfrwt>
<totfact> 0.52498478E+04</totfact>
</mgrwt>
</event>
<event>
 7    0  0.4750554E-002  0.4111271E+03  0.7546771E-02  0.1039993E+00
         21   -1    0    0  502  501  0.00000000000E+00  0.00000000000E+00  0.10074693775E+04  0.10074693775E+04  0.00000000000E+00 0.  1.
         21   -1    0    0  501  502 -0.00000000000E+00 -0.00000000000E+00 -0.41943093585E+02  0.41943093585E+02  0.00000000000E+00 0.  1.
      99926    2    1    2    0    0  0.35527136788E-14  0.00000000000E+00  0.96552628395E+03  0.10494124711E+04  0.41112714523E+03 0.  0.
      99925    2    3    3    0    0  0.17234499221E+02  0.13997195753E+02  0.78826574311E+03  0.83132588994E+03  0.26314806492E+03 0.  0.
         25    1    4    4    0    0  0.40775112495E+02 -0.16750422069E+02  0.42236469779E+03  0.44269925737E+03  0.12509000000E+03 0.  0.
         25    1    3    3    0    0 -0.17234499221E+02 -0.13997195753E+02  0.17726054084E+03  0.21808658118E+03  0.12509000000E+03 0.  0.
         25    1    4    4    0    0 -0.23540613274E+02  0.30747617821E+02  0.36590104532E+03  0.38862663257E+03  0.12509000000E+03 0.  0.
<mgrwt>
<rscale>  2 0.41112715E+03</rscale>
<asrwt>0</asrwt>
<pdfrwt beam="1">  1       21 0.14815725E+00 0.41112715E+03</pdfrwt>
<pdfrwt beam="2">  1       21 0.61681026E-02 0.41112715E+03</pdfrwt>
<totfact> 0.53361312E+04</totfact>
</mgrwt>
</event>
<event>
 7    0  0.4750554E-002  0.4516083E+03  0.7546771E-02  0.1027244E+00
         21   -1    0    0  502  501  0.00000000000E+00  0.00000000000E+00  0.65997784140E+02  0.65997784140E+02  0.00000000000E+00 0. -1.
         21   -1    0    0  501  502 -0.00000000000E+00 -0.00000000000E+00 -0.77256394608E+03  0.77256394608E+03  0.00000000000E+00 0. -1.
      99926    2    1    2    0    0  0.00000000000E+00  0.35527136788E-14 -0.70656616194E+03  0.83856173022E+03  0.45160827516E+03 0.  0.
      99925    2    3    3    0    0 -0.47917909334E+02  0.19682981687E+02 -0.62609282716E+03  0.68105931273E+03  0.26299432207E+03 0.  0.
         25    1    4    4    0    0  0.77146715327E+01 -0.56956808850E+01 -0.35079405052E+03  0.37255325917E+03  0.12509000000E+03 0.  0.
         25    1    4    4    0    0 -0.55632580867E+02  0.25378662572E+02 -0.27529877664E+03  0.30850605356E+03  0.12509000000E+03 0.  0.
         25    1    3    3    0    0  0.47917909334E+02 -0.19682981687E+02 -0.80473334782E+02  0.15750241749E+03  0.12509000000E+03 0.  0.
<mgrwt>
<rscale>  2 0.45160828E+03</rscale>
<asrwt>0</asrwt>
<pdfrwt beam="1">  1       21 0.97055568E-02 0.45160828E+03</pdfrwt>
<pdfrwt beam="2">  1       21 0.11361234E+00 0.45160828E+03</pdfrwt>
<totfact> 0.47198931E+04</totfact>
</mgrwt>
</event>
<event>
 7    0  0.4750554E-002  0.4829912E+03  0.7546771E-02  0.1018316E+00
         21   -1    0    0  502  501  0.00000000000E+00  0.00000000000E+00  0.20671625943E+03  0.20671625943E+03  0.00000000000E+00 0.  1.
         21   -1    0    0  501  502 -0.00000000000E+00 -0.00000000000E+00 -0.28212643250E+03  0.28212643250E+03  0.00000000000E+00 0.  1.
      99926    2    1    2    0    0  0.00000000000E+00  0.71054273576E-14 -0.75410173065E+02  0.48884269193E+03  0.48299118341E+03 0.  0.
      99925    2    3    3    0    0  0.10044650553E+03 -0.38464434961E+02 -0.13327507219E+03  0.31401458240E+03  0.26319935384E+03 0.  0.
         25    1    4    4    0    0  0.42146875462E+02 -0.47876964757E+02 -0.36148597254E+02  0.14499238618E+03  0.12509000000E+03 0.  0.
         25    1    4    4    0    0  0.58299630071E+02  0.94125297954E+01 -0.97126474939E+02  0.16902219623E+03  0.12509000000E+03 0.  0.
         25    1    3    3    0    0 -0.10044650553E+03  0.38464434961E+02  0.57864899128E+02  0.17482810953E+03  0.12509000000E+03 0.  0.
<mgrwt>
<rscale>  2 0.48299118E+03</rscale>
<asrwt>0</asrwt>
<pdfrwt beam="1">  1       21 0.30399450E-01 0.48299118E+03</pdfrwt>
<pdfrwt beam="2">  1       21 0.41489181E-01 0.48299118E+03</pdfrwt>
<totfact> 0.53212701E+04</totfact>
</mgrwt>
</event>
<event>
 7    0  0.4750554E-002  0.4551413E+03  0.7546771E-02  0.1026200E+00
         21   -1    0    0  502  501  0.00000000000E+00  0.00000000000E+00  0.34764419328E+03  0.34764419328E+03  0.00000000000E+00 0. -1.
         21   -1    0    0  501  502 -0.00000000000E+00 -0.00000000000E+00 -0.14896957999E+03  0.14896957999E+03  0.00000000000E+00 0. -1.
      99926    2    1    2    0    0 -0.35527136788E-14  0.00000000000E+00  0.19867461329E+03  0.49661377326E+03  0.45514133830E+03 0.  0.
      99925    2    3    3    0    0  0.17570225617E+02  0.64698914821E+02  0.22464087844E+03  0.35233481626E+03  0.26302402186E+03 0.  0.
         25    1    4    4    0    0 -0.20120180272E+02  0.27636249275E+02  0.14653678225E+03  0.19567606031E+03  0.12509000000E+03 0.  0.
         25    1    3    3    0    0 -0.17570225617E+02 -0.64698914821E+02 -0.25966265151E+02  0.14427895700E+03  0.12509000000E+03 0.  0.
         25    1    4    4    0    0  0.37690405889E+02  0.37062665546E+02  0.78104096190E+02  0.15665875595E+03  0.12509000000E+03 0.  0.
<mgrwt>
<rscale>  2 0.45514134E+03</rscale>
<asrwt>0</asrwt>
<pdfrwt beam="1">  1       21 0.51124146E-01 0.45514134E+03</pdfrwt>
<pdfrwt beam="2">  1       21 0.21907291E-01 0.45514134E+03</pdfrwt>
<totfact> 0.65435761E+04</totfact>
</mgrwt>
</event>
<event>
 7    0  0.4750554E-002  0.4565769E+03  0.7546771E-02  0.1025779E+00
         21   -1    0    0  502  501  0.00000000000E+00  0.00000000000E+00  0.31044571617E+03  0.31044571617E+03  0.00000000000E+00 0.  1.
         21   -1    0    0  501  502 -0.00000000000E+00 -0.00000000000E+00 -0.16787351814E+03  0.16787351814E+03  0.00000000000E+00 0.  1.
      99926    2    1    2    0    0  0.00000000000E+00  0.00000000000E+00  0.14257219803E+03  0.47831923431E+03  0.45657689195E+03 0.  0.
      99925    2    3    3    0    0 -0.29067637025E+02  0.11094064713E+03  0.92341886517E+02  0.30133520395E+03  0.26291277342E+03 0.  0.
         25    1    4    4    0    0  0.98688330841E+01  0.80518827622E+02  0.71084396223E+02  0.16517013942E+03  0.12509000000E+03 0.  0.
         25    1    4    4    0    0 -0.38936470109E+02  0.30421819511E+02  0.21257490294E+02  0.13616506454E+03  0.12509000000E+03 0.  0.
         25    1    3    3    0    0  0.29067637025E+02 -0.11094064713E+03  0.50230311513E+02  0.17698403036E+03  0.12509000000E+03 0.  0.
<mgrwt>
<rscale>  2 0.45657689E+03</rscale>
<asrwt>0</asrwt>
<pdfrwt beam="1">  1       21 0.45653782E-01 0.45657689E+03</pdfrwt>
<pdfrwt beam="2">  1       21 0.24687282E-01 0.45657689E+03</pdfrwt>
<totfact> 0.65992850E+04</totfact>
</mgrwt>
</event>
<event>
 7    0  0.4750554E-002  0.4573219E+03  0.7546771E-02  0.1025561E+00
         21   -1    0    0  502  501  0.00000000000E+00  0.00000000000E+00  0.30412890705E+03  0.30412890705E+03  0.00000000000E+00 0.  1.
         21   -1    0    0  501  502 -0.00000000000E+00 -0.00000000000E+00 -0.17191999119E+03  0.17191999119E+03  0.00000000000E+00 0.  1.
      99926    2    1    2    0    0  0.00000000000E+00  0.00000000000E+00  0.13220891586E+03  0.47604889824E+03  0.45732193921E+03 0.  0.
      99925    2    3    3    0    0 -0.10410022768E+03  0.42428953198E+02  0.10953153771E+03  0.30634667359E+03  0.26308563851E+03 0.  0.
         25    1    3    3    0    0  0.10410022768E+03 -0.42428953198E+02  0.22677378152E+02  0.16970222466E+03  0.12509000000E+03 0.  0.
         25    1    4    4    0    0 -0.57770667593E+02  0.31215501219E-01  0.91074993533E+02  0.16516541271E+03  0.12509000000E+03 0.  0.
         25    1    4    4    0    0 -0.46329560091E+02  0.42397737697E+02  0.18456544178E+02  0.14118126088E+03  0.12509000000E+03 0.  0.
<mgrwt>
<rscale>  2 0.45732194E+03</rscale>
<asrwt>0</asrwt>
<pdfrwt beam="1">  1       21 0.44724839E-01 0.45732194E+03</pdfrwt>
<pdfrwt beam="2">  1       21 0.25282352E-01 0.45732194E+03</pdfrwt>
<totfact> 0.65768620E+04</totfact>
</mgrwt>
</event>
<event>
 7    0  0.4750554E-002  0.4526192E+03  0.7546771E-02  0.1026944E+00
         21   -1    0    0  502  501  0.00000000000E+00  0.00000000000E+00  0.25544093698E+03  0.25544093698E+03  0.00000000000E+00 0. -1.
         21   -1    0    0  501  502 -0.00000000000E+00 -0.00000000000E+00 -0.20050049625E+03  0.20050049625E+03  0.00000000000E+00 0. -1.
      99926    2    1    2    0    0 -0.17763568394E-14  0.00000000000E+00  0.54940440736E+02  0.45594143323E+03  0.45261919812E+03 0.  0.
      99925    2    3    3    0    0 -0.12715433570E+02  0.94976549983E+02  0.90736865118E+02  0.29435207901E+03  0.26311165012E+03 0.  0.
         25    1    3    3    0    0  0.12715433570E+02 -0.94976549983E+02 -0.35796424382E+02  0.16158935422E+03  0.12509000000E+03 0.  0.
         25    1    4    4    0    0  0.16948898866E+02  0.26959903260E+02  0.13806074295E+02  0.12981609047E+03  0.12509000000E+03 0.  0.
         25    1    4    4    0    0 -0.29664332436E+02  0.68016646723E+02  0.76930790823E+02  0.16453598855E+03  0.12509000000E+03 0.  0.
<mgrwt>
<rscale>  2 0.45261920E+03</rscale>
<asrwt>0</asrwt>
<pdfrwt beam="1">  1       21 0.37564843E-01 0.45261920E+03</pdfrwt>
<pdfrwt beam="2">  1       21 0.29485367E-01 0.45261920E+03</pdfrwt>
<totfact> 0.69793072E+04</totfact>
</mgrwt>
</event>
<event>
 7    0  0.4750554E-002  0.4526985E+03  0.7546771E-02  0.1026920E+00
         21   -1    0    0  502  501  0.00000000000E+00  0.00000000000E+00  0.13740885614E+03  0.13740885614E+03  0.00000000000E+00 0. -1.
         21   -1    0    0  501  502 -0.00000000000E+00 -0.00000000000E+00 -0.37285797286E+03  0.37285797286E+03  0.00000000000E+00 0. -1.
      99926    2    1    2    0    0  0.11102230246E-14  0.00000000000E+00 -0.23544911672E+03  0.51026682901E+03  0.45269852023E+03 0.  0.
      99925    2    3    3    0    0  0.87247974046E+00 -0.16701041758E+02 -0.24887638546E+02  0.26478092268E+03  0.26307766238E+03 0.  0.
         25    1    4    4    0    0 -0.26850509785E+02  0.19276589681E+02  0.53175066173E-01  0.12938333630E+03  0.12509000000E+03 0.  0.
         25    1    3    3    0    0 -0.87247974046E+00  0.16701041758E+02 -0.21056147817E+03  0.24548590633E+03  0.12509000000E+03 0.  0.
         25    1    4    4    0    0  0.27722989525E+02 -0.35977631440E+02 -0.24940813612E+02  0.13539758637E+03  0.12509000000E+03 0.  0.
<mgrwt>
<rscale>  2 0.45269852E+03</rscale>
<asrwt>0</asrwt>
<pdfrwt beam="1">  1       21 0.20207185E-01 0.45269852E+03</pdfrwt>
<pdfrwt beam="2">  1       21 0.54832054E-01 0.45269852E+03</pdfrwt>
<totfact> 0.65747900E+04</totfact>
</mgrwt>
</event>
<event>
 7    0  0.4750554E-002  0.4162513E+03  0.7546771E-02  0.1038293E+00
         21   -1    0    0  502  501  0.00000000000E+00  0.00000000000E+00  0.88042834967E+02  0.88042834967E+02  0.00000000000E+00 0.  1.
         21   -1    0    0  501  502 -0.00000000000E+00 -0.00000000000E+00 -0.49199100887E+03  0.49199100887E+03  0.00000000000E+00 0.  1.
      99926    2    1    2    0    0  0.00000000000E+00  0.00000000000E+00 -0.40394817391E+03  0.58003384384E+03  0.41625128564E+03 0.  0.
      99925    2    3    3    0    0  0.12930082772E+02 -0.67233238422E+02 -0.29129110599E+03  0.39830157251E+03  0.26288046495E+03 0.  0.
         25    1    4    4    0    0  0.46313833981E+02 -0.27585461938E+02 -0.14283688849E+03  0.19737227197E+03  0.12509000000E+03 0.  0.
         25    1    4    4    0    0 -0.33383751210E+02 -0.39647776484E+02 -0.14845421750E+03  0.20092930055E+03  0.12509000000E+03 0.  0.
         25    1    3    3    0    0 -0.12930082772E+02  0.67233238422E+02 -0.11265706792E+03  0.18173227133E+03  0.12509000000E+03 0.  0.
<mgrwt>
<rscale>  2 0.41625129E+03</rscale>
<asrwt>0</asrwt>
<pdfrwt beam="1">  1       21 0.12947475E-01 0.41625129E+03</pdfrwt>
<pdfrwt beam="2">  1       21 0.72351621E-01 0.41625129E+03</pdfrwt>
<totfact> 0.82412240E+04</totfact>
</mgrwt>
</event>
<event>
 7    0  0.4750554E-002  0.4544977E+03  0.7546771E-02  0.1026389E+00
         21   -1    0    0  502  501  0.00000000000E+00  0.00000000000E+00  0.11610105945E+03  0.11610105945E+03  0.00000000000E+00 0. -1.
         21   -1    0    0  501  502 -0.00000000000E+00 -0.00000000000E+00 -0.44480253722E+03  0.44480253722E+03  0.00000000000E+00 0. -1.
      99926    2    1    2    0    0 -0.14210854715E-13  0.00000000000E+00 -0.32870147777E+03  0.56090359667E+03  0.45449772637E+03 0.  0.
      99925    2    3    3    0    0 -0.10999018547E+03  0.76676896237E+01 -0.17970371618E+03  0.33728679180E+03  0.26327233039E+03 0.  0.
         25    1    3    3    0    0  0.10999018547E+03 -0.76676896237E+01 -0.14899776158E+03  0.22361680487E+03  0.12509000000E+03 0.  0.
         25    1    4    4    0    0 -0.26833809378E+02  0.25305084844E+02 -0.56124785252E+02  0.14197852043E+03  0.12509000000E+03 0.  0.
         25    1    4    4    0    0 -0.83156376094E+02 -0.17637395221E+02 -0.12357893093E+03  0.19530827137E+03  0.12509000000E+03 0.  0.
<mgrwt>
<rscale>  2 0.45449773E+03</rscale>
<asrwt>0</asrwt>
<pdfrwt beam="1">  1       21 0.17073685E-01 0.45449773E+03</pdfrwt>
<pdfrwt beam="2">  1       21 0.65412137E-01 0.45449773E+03</pdfrwt>
<totfact> 0.61395242E+04</totfact>
</mgrwt>
</event>
<event>
 7    0  0.4750554E-002  0.4474847E+03  0.7546771E-02  0.1028475E+00
         21   -1    0    0  502  501  0.00000000000E+00  0.00000000000E+00  0.83817218545E+03  0.83817218545E+03  0.00000000000E+00 0.  1.
         21   -1    0    0  501  502 -0.00000000000E+00 -0.00000000000E+00 -0.59725958131E+02  0.59725958131E+02  0.00000000000E+00 0.  1.
      99926    2    1    2    0    0  0.00000000000E+00 -0.71054273576E-14  0.77844622732E+03  0.89789814358E+03  0.44748468959E+03 0.  0.
      99925    2    3    3    0    0 -0.80496090016E+02  0.62394622529E+02  0.43488663606E+03  0.51835445667E+03  0.26304419229E+03 0.  0.
         25    1    4    4    0    0 -0.82409066752E+02  0.39131984986E+02  0.23933230341E+03  0.28504390204E+03  0.12509000000E+03 0.  0.
         25    1    4    4    0    0  0.19129767360E+01  0.23262637544E+02  0.19555433265E+03  0.23331055463E+03  0.12509000000E+03 0.  0.
         25    1    3    3    0    0  0.80496090016E+02 -0.62394622529E+02  0.34355959126E+03  0.37954368691E+03  0.12509000000E+03 0.  0.
<mgrwt>
<rscale>  2 0.44748469E+03</rscale>
<asrwt>0</asrwt>
<pdfrwt beam="1">  1       21 0.12326061E+00 0.44748469E+03</pdfrwt>
<pdfrwt beam="2">  1       21 0.87832297E-02 0.44748469E+03</pdfrwt>
<totfact> 0.45969944E+04</totfact>
</mgrwt>
</event>
<event>
 7    0  0.4750554E-002  0.4562953E+03  0.7546771E-02  0.1025861E+00
         21   -1    0    0  502  501  0.00000000000E+00  0.00000000000E+00  0.45602859089E+02  0.45602859089E+02  0.00000000000E+00 0.  1.
         21   -1    0    0  501  502 -0.00000000000E+00 -0.00000000000E+00 -0.11414053868E+04  0.11414053868E+04  0.00000000000E+00 0.  1.
      99926    2    1    2    0    0  0.00000000000E+00  0.00000000000E+00 -0.10958025277E+04  0.11870082458E+04  0.45629529481E+03 0.  0.
      99925    2    3    3    0    0 -0.42987363910E+02  0.13118976245E+01 -0.96454402036E+03  0.10006592765E+04  0.26291478834E+03 0.  0.
         25    1    4    4    0    0 -0.59961146610E+02  0.39729852543E+01 -0.45419826457E+03  0.47492598934E+03  0.12509000000E+03 0.  0.
         25    1    3    3    0    0  0.42987363910E+02 -0.13118976245E+01 -0.13125850731E+03  0.18634896934E+03  0.12509000000E+03 0.  0.
         25    1    4    4    0    0  0.16973782700E+02 -0.26610876297E+01 -0.51034575579E+03  0.52573328717E+03  0.12509000000E+03 0.  0.
<mgrwt>
<rscale>  2 0.45629529E+03</rscale>
<asrwt>0</asrwt>
<pdfrwt beam="1">  1       21 0.67063028E-02 0.45629529E+03</pdfrwt>
<pdfrwt beam="2">  1       21 0.16785373E+00 0.45629529E+03</pdfrwt>
<totfact> 0.32243825E+04</totfact>
</mgrwt>
</event>
<event>
 7    0  0.4750554E-002  0.4561181E+03  0.7546771E-02  0.1025913E+00
         21   -1    0    0  502  501  0.00000000000E+00  0.00000000000E+00  0.27842255563E+03  0.27842255563E+03  0.00000000000E+00 0.  1.
         21   -1    0    0  501  502 -0.00000000000E+00 -0.00000000000E+00 -0.18680576563E+03  0.18680576563E+03  0.00000000000E+00 0.  1.
      99926    2    1    2    0    0  0.00000000000E+00  0.00000000000E+00  0.91616790002E+02  0.46522832126E+03  0.45611813677E+03 0.  0.
      99925    2    3    3    0    0  0.10027425224E+03 -0.37247845493E+02  0.18221404277E+02  0.28501534059E+03  0.26355150756E+03 0.  0.
         25    1    4    4    0    0  0.52542807342E+02 -0.55228223895E+02  0.29600776355E+02  0.14944770784E+03  0.12509000000E+03 0.  0.
         25    1    4    4    0    0  0.47731444897E+02  0.17980378402E+02 -0.11379372078E+02  0.13556763275E+03  0.12509000000E+03 0.  0.
         25    1    3    3    0    0 -0.10027425224E+03  0.37247845493E+02  0.73395385725E+02  0.18021298067E+03  0.12509000000E+03 0.  0.
<mgrwt>
<rscale>  2 0.45611814E+03</rscale>
<asrwt>0</asrwt>
<pdfrwt beam="1">  1       21 0.40944494E-01 0.45611814E+03</pdfrwt>
<pdfrwt beam="2">  1       21 0.27471436E-01 0.45611814E+03</pdfrwt>
<totfact> 0.67194067E+04</totfact>
</mgrwt>
</event>
<event>
 7    0  0.4750554E-002  0.4504537E+03  0.7546771E-02  0.1027587E+00
         21   -1    0    0  502  501  0.00000000000E+00  0.00000000000E+00  0.20044862170E+03  0.20044862170E+03  0.00000000000E+00 0.  1.
         21   -1    0    0  501  502 -0.00000000000E+00 -0.00000000000E+00 -0.25306804259E+03  0.25306804259E+03  0.00000000000E+00 0.  1.
      99926    2    1    2    0    0  0.00000000000E+00  0.71054273576E-14 -0.52619420895E+02  0.45351666429E+03  0.45045372830E+03 0.  0.
      99925    2    3    3    0    0  0.78968695060E+02 -0.63276366581E+02 -0.73635295326E+02  0.29125413490E+03  0.26299593345E+03 0.  0.
         25    1    4    4    0    0  0.40254104798E+02  0.62043431574E+01 -0.51953104666E+02  0.14144087108E+03  0.12509000000E+03 0.  0.
         25    1    4    4    0    0  0.38714590261E+02 -0.69480709738E+02 -0.21682190660E+02  0.14981326382E+03  0.12509000000E+03 0.  0.
         25    1    3    3    0    0 -0.78968695060E+02  0.63276366581E+02  0.21015874431E+02  0.16226252939E+03  0.12509000000E+03 0.  0.
<mgrwt>
<rscale>  2 0.45045373E+03</rscale>
<asrwt>0</asrwt>
<pdfrwt beam="1">  1       21 0.29477739E-01 0.45045373E+03</pdfrwt>
<pdfrwt beam="2">  1       21 0.37215888E-01 0.45045373E+03</pdfrwt>
<totfact> 0.71202317E+04</totfact>
</mgrwt>
</event>
<event>
 7    0  0.4750554E-002  0.4565446E+03  0.7546771E-02  0.1025788E+00
         21   -1    0    0  502  501  0.00000000000E+00  0.00000000000E+00  0.61220945654E+03  0.61220945654E+03  0.00000000000E+00 0.  1.
         21   -1    0    0  501  502 -0.00000000000E+00 -0.00000000000E+00 -0.85115051874E+02  0.85115051874E+02  0.00000000000E+00 0.  1.
      99926    2    1    2    0    0  0.00000000000E+00  0.00000000000E+00  0.52709440466E+03  0.69732450841E+03  0.45654458556E+03 0.  0.
      99925    2    3    3    0    0  0.55619549748E+02 -0.99694186894E+02  0.34684031691E+03  0.44999576066E+03  0.26299337246E+03 0.  0.
         25    1    4    4    0    0  0.60779899536E+02 -0.38550274923E+02  0.14365817539E+03  0.20363079173E+03  0.12509000000E+03 0.  0.
         25    1    4    4    0    0 -0.51603497872E+01 -0.61143911971E+02  0.20318214152E+03  0.24636496893E+03  0.12509000000E+03 0.  0.
         25    1    3    3    0    0 -0.55619549748E+02  0.99694186894E+02  0.18025408775E+03  0.24732874775E+03  0.12509000000E+03 0.  0.
<mgrwt>
<rscale>  2 0.45654459E+03</rscale>
<asrwt>0</asrwt>
<pdfrwt beam="1">  1       21 0.90030800E-01 0.45654459E+03</pdfrwt>
<pdfrwt beam="2">  1       21 0.12516920E-01 0.45654459E+03</pdfrwt>
<totfact> 0.52408456E+04</totfact>
</mgrwt>
</event>
<event>
 7    0  0.4750554E-002  0.4612259E+03  0.7546771E-02  0.1024426E+00
         21   -1    0    0  502  501  0.00000000000E+00  0.00000000000E+00  0.30090167469E+03  0.30090167469E+03  0.00000000000E+00 0. -1.
         21   -1    0    0  501  502 -0.00000000000E+00 -0.00000000000E+00 -0.17674322051E+03  0.17674322051E+03  0.00000000000E+00 0. -1.
      99926    2    1    2    0    0  0.00000000000E+00  0.00000000000E+00  0.12415845418E+03  0.47764489520E+03  0.46122589277E+03 0.  0.
      99925    2    3    3    0    0 -0.81795369915E+02 -0.36205445421E+02  0.15818389683E+03  0.32014392483E+03  0.26356910018E+03 0.  0.
         25    1    4    4    0    0 -0.15313415771E+02  0.11357536064E+02  0.51872243002E+02  0.13675427607E+03  0.12509000000E+03 0.  0.
         25    1    4    4    0    0 -0.66481954143E+02 -0.47562981486E+02  0.10631165383E+03  0.18338964877E+03  0.12509000000E+03 0.  0.
         25    1    3    3    0    0  0.81795369915E+02  0.36205445421E+02 -0.34025442652E+02  0.15750097036E+03  0.12509000000E+03 0.  0.
<mgrwt>
<rscale>  2 0.46122589E+03</rscale>
<asrwt>0</asrwt>
<pdfrwt beam="1">  1       21 0.44250246E-01 0.46122589E+03</pdfrwt>
<pdfrwt beam="2">  1       21 0.25991650E-01 0.46122589E+03</pdfrwt>
<totfact> 0.63667853E+04</totfact>
</mgrwt>
</event>
<event>
 7    0  0.4750554E-002  0.4537575E+03  0.7546771E-02  0.1026607E+00
         21   -1    0    0  502  501  0.00000000000E+00  0.00000000000E+00  0.28630889829E+03  0.28630889829E+03  0.00000000000E+00 0. -1.
         21   -1    0    0  501  502 -0.00000000000E+00 -0.00000000000E+00 -0.17978471146E+03  0.17978471146E+03  0.00000000000E+00 0. -1.
      99926    2    1    2    0    0  0.00000000000E+00 -0.13322676296E-14  0.10652418683E+03  0.46609360975E+03  0.45375748002E+03 0.  0.
      99925    2    3    3    0    0  0.10449370156E+03  0.35649143623E+01  0.10834890058E+03  0.30305226542E+03  0.26300104380E+03 0.  0.
         25    1    4    4    0    0  0.50662603725E+02  0.33813668966E+02  0.27520351337E+02  0.14182715347E+03  0.12509000000E+03 0.  0.
         25    1    4    4    0    0  0.53831097838E+02 -0.30248754604E+02  0.80828549241E+02  0.16122511195E+03  0.12509000000E+03 0.  0.
         25    1    3    3    0    0 -0.10449370156E+03 -0.35649143623E+01 -0.18247137516E+01  0.16304134433E+03  0.12509000000E+03 0.  0.
<mgrwt>
<rscale>  2 0.45375748E+03</rscale>
<asrwt>0</asrwt>
<pdfrwt beam="1">  1       21 0.42104250E-01 0.45375748E+03</pdfrwt>
<pdfrwt beam="2">  1       21 0.26438928E-01 0.45375748E+03</pdfrwt>
<totfact> 0.68399236E+04</totfact>
</mgrwt>
</event>
<event>
 7    0  0.4750554E-002  0.4515355E+03  0.7546771E-02  0.1027265E+00
         21   -1    0    0  502  501  0.00000000000E+00  0.00000000000E+00  0.53405382392E+03  0.53405382392E+03  0.00000000000E+00 0.  1.
         21   -1    0    0  501  502 -0.00000000000E+00 -0.00000000000E+00 -0.95441828220E+02  0.95441828220E+02  0.00000000000E+00 0.  1.
      99926    2    1    2    0    0 -0.14210854715E-13 -0.71054273576E-14  0.43861199570E+03  0.62949565214E+03  0.45153548398E+03 0.  0.
      99925    2    3    3    0    0  0.66497064427E+02  0.59752042754E+02  0.18768668327E+03  0.33521145836E+03  0.26296057603E+03 0.  0.
         25    1    4    4    0    0  0.31461362893E+02 -0.11641156484E+02  0.86866333307E+02  0.15594422670E+03  0.12509000000E+03 0.  0.
         25    1    3    3    0    0 -0.66497064427E+02 -0.59752042754E+02  0.25092531243E+03  0.29428419378E+03  0.12509000000E+03 0.  0.
         25    1    4    4    0    0  0.35035701534E+02  0.71393199238E+02  0.10082034996E+03  0.17926723166E+03  0.12509000000E+03 0.  0.
<mgrwt>
<rscale>  2 0.45153548E+03</rscale>
<asrwt>0</asrwt>
<pdfrwt beam="1">  1       21 0.78537326E-01 0.45153548E+03</pdfrwt>
<pdfrwt beam="2">  1       21 0.14035563E-01 0.45153548E+03</pdfrwt>
<totfact> 0.58481558E+04</totfact>
</mgrwt>
</event>
<event>
 7    0  0.4750554E-002  0.4526052E+03  0.7546771E-02  0.1026948E+00
         21   -1    0    0  502  501  0.00000000000E+00  0.00000000000E+00  0.30068559464E+03  0.30068559464E+03  0.00000000000E+00 0.  1.
         21   -1    0    0  501  502 -0.00000000000E+00 -0.00000000000E+00 -0.17032028841E+03  0.17032028841E+03  0.00000000000E+00 0.  1.
      99926    2    1    2    0    0  0.00000000000E+00 -0.35527136788E-14  0.13036530622E+03  0.47100588305E+03  0.45260515773E+03 0.  0.
      99925    2    3    3    0    0  0.30730524152E+02  0.17624282890E+02  0.19163801812E+03  0.32728102860E+03  0.26293109598E+03 0.  0.
         25    1    4    4    0    0  0.43200427048E+02 -0.15122802290E+02  0.75967626076E+02  0.15334133284E+03  0.12509000000E+03 0.  0.
         25    1    4    4    0    0 -0.12469902895E+02  0.32747085180E+02  0.11567039204E+03  0.17393969576E+03  0.12509000000E+03 0.  0.
         25    1    3    3    0    0 -0.30730524152E+02 -0.17624282890E+02 -0.61272711898E+02  0.14372485445E+03  0.12509000000E+03 0.  0.
<mgrwt>
<rscale>  2 0.45260516E+03</rscale>
<asrwt>0</asrwt>
<pdfrwt beam="1">  1       21 0.44218470E-01 0.45260516E+03</pdfrwt>
<pdfrwt beam="2">  1       21 0.25047101E-01 0.45260516E+03</pdfrwt>
<totfact> 0.68656302E+04</totfact>
</mgrwt>
</event>
<event>
 7    0  0.4750554E-002  0.4605668E+03  0.7546771E-02  0.1024617E+00
         21   -1    0    0  502  501  0.00000000000E+00  0.00000000000E+00  0.19214921066E+04  0.19214921066E+04  0.00000000000E+00 0.  1.
         21   -1    0    0  501  502 -0.00000000000E+00 -0.00000000000E+00 -0.27598580445E+02  0.27598580445E+02  0.00000000000E+00 0.  1.
      99926    2    1    2    0    0  0.00000000000E+00  0.00000000000E+00  0.18938935261E+04  0.19490906870E+04  0.46056684412E+03 0.  0.
      99925    2    3    3    0    0  0.22220803942E+02  0.96487683932E+02  0.14598023056E+04  0.14866122193E+04  0.26303893591E+03 0.  0.
         25    1    3    3    0    0 -0.22220803942E+02 -0.96487683932E+02  0.43409122049E+03  0.46247846770E+03  0.12509000000E+03 0.  0.
         25    1    4    4    0    0  0.27510471686E+02  0.36876075468E+02  0.90400504971E+03  0.91377749425E+03  0.12509000000E+03 0.  0.
         25    1    4    4    0    0 -0.52896677449E+01  0.59611608464E+02  0.55579725591E+03  0.57283472506E+03  0.12509000000E+03 0.  0.
<mgrwt>
<rscale>  2 0.46056684E+03</rscale>
<asrwt>0</asrwt>
<pdfrwt beam="1">  1       21 0.28257228E+00 0.46056684E+03</pdfrwt>
<pdfrwt beam="2">  1       21 0.40586161E-02 0.46056684E+03</pdfrwt>
<totfact> 0.13946684E+04</totfact>
</mgrwt>
</event>
<event>
 7    0  0.4750554E-002  0.4307483E+03  0.7546771E-02  0.1033624E+00
         21   -1    0    0  502  501  0.00000000000E+00  0.00000000000E+00  0.15434561154E+03  0.15434561154E+03  0.00000000000E+00 0.  1.
         21   -1    0    0  501  502 -0.00000000000E+00 -0.00000000000E+00 -0.30053349634E+03  0.30053349634E+03  0.00000000000E+00 0.  1.
      99926    2    1    2    0    0  0.00000000000E+00  0.00000000000E+00 -0.14618788481E+03  0.45487910788E+03  0.43074830832E+03 0.  0.
      99925    2    3    3    0    0  0.43044260497E+02  0.66198889434E+02 -0.51577745089E+02  0.27928386888E+03  0.26287661422E+03 0.  0.
         25    1    4    4    0    0  0.39701624127E+02 -0.19685761822E+01 -0.14575756101E+02  0.13206080045E+03  0.12509000000E+03 0.  0.
         25    1    3    3    0    0 -0.43044260497E+02 -0.66198889434E+02 -0.94610139719E+02  0.17559523901E+03  0.12509000000E+03 0.  0.
         25    1    4    4    0    0  0.33426363697E+01  0.68167465616E+02 -0.37001988989E+02  0.14722306842E+03  0.12509000000E+03 0.  0.
<mgrwt>
<rscale>  2 0.43074831E+03</rscale>
<asrwt>0</asrwt>
<pdfrwt beam="1">  1       21 0.22697884E-01 0.43074831E+03</pdfrwt>
<pdfrwt beam="2">  1       21 0.44196102E-01 0.43074831E+03</pdfrwt>
<totfact> 0.83529016E+04</totfact>
</mgrwt>
</event>
<event>
 7    0  0.4750554E-002  0.4643093E+03  0.7546771E-02  0.1023539E+00
         21   -1    0    0  502  501  0.00000000000E+00  0.00000000000E+00  0.15783351781E+03  0.15783351781E+03  0.00000000000E+00 0.  1.
         21   -1    0    0  501  502 -0.00000000000E+00 -0.00000000000E+00 -0.34147240536E+03  0.34147240536E+03  0.00000000000E+00 0.  1.
      99926    2    1    2    0    0 -0.14210854715E-13  0.00000000000E+00 -0.18363888755E+03  0.49930592317E+03  0.46430934074E+03 0.  0.
      99925    2    3    3    0    0 -0.79454263548E+02 -0.49707033047E+02 -0.31028667003E+02  0.28085419705E+03  0.26293066138E+03 0.  0.
         25    1    4    4    0    0 -0.42925575976E+02 -0.10012532716E+02 -0.53078100544E+02  0.14285534201E+03  0.12509000000E+03 0.  0.
         25    1    3    3    0    0  0.79454263548E+02  0.49707033047E+02 -0.15261022055E+03  0.21845172612E+03  0.12509000000E+03 0.  0.
         25    1    4    4    0    0 -0.36528687572E+02 -0.39694500331E+02  0.22049433541E+02  0.13799885504E+03  0.12509000000E+03 0.  0.
<mgrwt>
<rscale>  2 0.46430934E+03</rscale>
<asrwt>0</asrwt>
<pdfrwt beam="1">  1       21 0.23210812E-01 0.46430934E+03</pdfrwt>
<pdfrwt beam="2">  1       21 0.50216529E-01 0.46430934E+03</pdfrwt>
<totfact> 0.60707435E+04</totfact>
</mgrwt>
</event>
<event>
 7    0  0.4750554E-002  0.4828489E+03  0.7546771E-02  0.1018355E+00
         21   -1    0    0  502  501  0.00000000000E+00  0.00000000000E+00  0.49499466453E+03  0.49499466453E+03  0.00000000000E+00 0. -1.
         21   -1    0    0  501  502 -0.00000000000E+00 -0.00000000000E+00 -0.11775030761E+03  0.11775030761E+03  0.00000000000E+00 0. -1.
      99926    2    1    2    0    0  0.17763568394E-14  0.00000000000E+00  0.37724435691E+03  0.61274497214E+03  0.48284893710E+03 0.  0.
      99925    2    3    3    0    0  0.14379260211E+02  0.11305885817E+02  0.40510083933E+03  0.48329197723E+03  0.26292557702E+03 0.  0.
         25    1    3    3    0    0 -0.14379260211E+02 -0.11305885817E+02 -0.27856482416E+02  0.12945299491E+03  0.12509000000E+03 0.  0.
         25    1    4    4    0    0 -0.30746991518E+02  0.16110964258E+02  0.21736045319E+03  0.25317585858E+03  0.12509000000E+03 0.  0.
         25    1    4    4    0    0  0.45126251729E+02 -0.48050784414E+01  0.18774038614E+03  0.23011611864E+03  0.12509000000E+03 0.  0.
<mgrwt>
<rscale>  2 0.48284894E+03</rscale>
<asrwt>0</asrwt>
<pdfrwt beam="1">  1       21 0.72793332E-01 0.48284894E+03</pdfrwt>
<pdfrwt beam="2">  1       21 0.17316222E-01 0.48284894E+03</pdfrwt>
<totfact> 0.46737982E+04</totfact>
</mgrwt>
</event>
<event>
 7    0  0.4750554E-002  0.5046453E+03  0.7546771E-02  0.1012573E+00
         21   -1    0    0  502  501  0.00000000000E+00  0.00000000000E+00  0.35913329711E+03  0.35913329711E+03  0.00000000000E+00 0.  1.
         21   -1    0    0  501  502 -0.00000000000E+00 -0.00000000000E+00 -0.17727879062E+03  0.17727879062E+03  0.00000000000E+00 0.  1.
      99926    2    1    2    0    0 -0.17763568394E-14  0.00000000000E+00  0.18185450649E+03  0.53641208773E+03  0.50464528764E+03 0.  0.
      99925    2    3    3    0    0 -0.12457806800E+02 -0.15006727770E+03  0.70814297110E+02  0.31135027182E+03  0.26315193767E+03 0.  0.
         25    1    3    3    0    0  0.12457806800E+02  0.15006727770E+03  0.11104020938E+03  0.22506181592E+03  0.12509000000E+03 0.  0.
         25    1    4    4    0    0  0.16990393005E+01 -0.28960590600E+02  0.33867829549E+02  0.13280113147E+03  0.12509000000E+03 0.  0.
         25    1    4    4    0    0 -0.14156846101E+02 -0.12110668710E+03  0.36946467562E+02  0.17854914034E+03  0.12509000000E+03 0.  0.
<mgrwt>
<rscale>  2 0.50464529E+03</rscale>
<asrwt>0</asrwt>
<pdfrwt beam="1">  1       21 0.52813720E-01 0.50464529E+03</pdfrwt>
<pdfrwt beam="2">  1       21 0.26070410E-01 0.50464529E+03</pdfrwt>
<totfact> 0.43121173E+04</totfact>
</mgrwt>
</event>
<event>
 7    0  0.4750554E-002  0.4479835E+03  0.7546771E-02  0.1028325E+00
         21   -1    0    0  502  501  0.00000000000E+00  0.00000000000E+00  0.95811119960E+03  0.95811119960E+03  0.00000000000E+00 0. -1.
         21   -1    0    0  501  502 -0.00000000000E+00 -0.00000000000E+00 -0.52365839872E+02  0.52365839872E+02  0.00000000000E+00 0. -1.
      99926    2    1    2    0    0  0.00000000000E+00  0.35527136788E-14  0.90574535973E+03  0.10104770395E+04  0.44798347138E+03 0.  0.
      99925    2    3    3    0    0 -0.64248675814E+02  0.25089245789E+02  0.39109118789E+03  0.47636676313E+03  0.26308860328E+03 0.  0.
         25    1    3    3    0    0  0.64248675814E+02 -0.25089245789E+02  0.51465417184E+03  0.53411027634E+03  0.12509000000E+03 0.  0.
         25    1    4    4    0    0 -0.46542817378E+02 -0.34568334956E+01  0.13774435416E+03  0.19183117252E+03  0.12509000000E+03 0.  0.
         25    1    4    4    0    0 -0.17705858436E+02  0.28546079285E+02  0.25334683373E+03  0.28453559061E+03  0.12509000000E+03 0.  0.
<mgrwt>
<rscale>  2 0.44798347E+03</rscale>
<asrwt>0</asrwt>
<pdfrwt beam="1">  1       21 0.14089869E+00 0.44798347E+03</pdfrwt>
<pdfrwt beam="2">  1       21 0.77008594E-02 0.44798347E+03</pdfrwt>
<totfact> 0.40960335E+04</totfact>
</mgrwt>
</event>
<event>
 7    0  0.4750554E-002  0.4570459E+03  0.7546771E-02  0.1025641E+00
         21   -1    0    0  502  501  0.00000000000E+00  0.00000000000E+00  0.82778541270E+03  0.82778541270E+03  0.00000000000E+00 0.  1.
         21   -1    0    0  501  502 -0.00000000000E+00 -0.00000000000E+00 -0.63087298738E+02  0.63087298738E+02  0.00000000000E+00 0.  1.
      99926    2    1    2    0    0  0.00000000000E+00  0.00000000000E+00  0.76469811396E+03  0.89087271144E+03  0.45704593039E+03 0.  0.
      99925    2    3    3    0    0  0.87580953290E+02 -0.92288208401E+01  0.33587584814E+03  0.43557979663E+03  0.26298589193E+03 0.  0.
         25    1    4    4    0    0  0.74907429352E+02 -0.25452114177E+02  0.21010592499E+03  0.25700377605E+03  0.12509000000E+03 0.  0.
         25    1    4    4    0    0  0.12673523939E+02  0.16223293337E+02  0.12576992315E+03  0.17857602058E+03  0.12509000000E+03 0.  0.
         25    1    3    3    0    0 -0.87580953290E+02  0.92288208401E+01  0.42882226582E+03  0.45529291481E+03  0.12509000000E+03 0.  0.
<mgrwt>
<rscale>  2 0.45704593E+03</rscale>
<asrwt>0</asrwt>
<pdfrwt beam="1">  1       21 0.12173314E+00 0.45704593E+03</pdfrwt>
<pdfrwt beam="2">  1       21 0.92775444E-02 0.45704593E+03</pdfrwt>
<totfact> 0.42938621E+04</totfact>
</mgrwt>
</event>
<event>
 7    0  0.4750554E-002  0.4642230E+03  0.7546771E-02  0.1023563E+00
         21   -1    0    0  502  501  0.00000000000E+00  0.00000000000E+00  0.46844006073E+03  0.46844006073E+03  0.00000000000E+00 0.  1.
         21   -1    0    0  501  502 -0.00000000000E+00 -0.00000000000E+00 -0.11501099823E+03  0.11501099823E+03  0.00000000000E+00 0.  1.
      99926    2    1    2    0    0 -0.14210854715E-13 -0.14210854715E-13  0.35342906250E+03  0.58345105896E+03  0.46422304551E+03 0.  0.
      99925    2    3    3    0    0 -0.63205909034E+02 -0.72607133443E+02  0.31403653867E+03  0.42076712676E+03  0.26298145291E+03 0.  0.
         25    1    3    3    0    0  0.63205909034E+02  0.72607133443E+02  0.39392523828E+02  0.16268393220E+03  0.12509000000E+03 0.  0.
         25    1    4    4    0    0 -0.66368721064E+02 -0.59517085662E+02  0.15855047956E+03  0.22075518859E+03  0.12509000000E+03 0.  0.
         25    1    4    4    0    0  0.31628120300E+01 -0.13090047781E+02  0.15548605912E+03  0.20001193817E+03  0.12509000000E+03 0.  0.
<mgrwt>
<rscale>  2 0.46422305E+03</rscale>
<asrwt>0</asrwt>
<pdfrwt beam="1">  1       21 0.68888243E-01 0.46422305E+03</pdfrwt>
<pdfrwt beam="2">  1       21 0.16913382E-01 0.46422305E+03</pdfrwt>
<totfact> 0.55546575E+04</totfact>
</mgrwt>
</event>
<event>
 7    0  0.4750554E-002  0.4545735E+03  0.7546771E-02  0.1026367E+00
         21   -1    0    0  502  501  0.00000000000E+00  0.00000000000E+00  0.11470071580E+03  0.11470071580E+03  0.00000000000E+00 0.  1.
         21   -1    0    0  501  502 -0.00000000000E+00 -0.00000000000E+00 -0.45038305057E+03  0.45038305057E+03  0.00000000000E+00 0.  1.
      99926    2    1    2    0    0  0.00000000000E+00  0.71054273576E-14 -0.33568233477E+03  0.56508376637E+03  0.45457346287E+03 0.  0.
      99925    2    3    3    0    0  0.90107543268E+02  0.59722630582E+02 -0.17115361811E+03  0.33183846918E+03  0.26293924522E+03 0.  0.
         25    1    4    4    0    0  0.63631276301E+02  0.29730651092E+02 -0.46601702865E+02  0.15083791880E+03  0.12509000000E+03 0.  0.
         25    1    3    3    0    0 -0.90107543268E+02 -0.59722630582E+02 -0.16452871666E+03  0.23324529720E+03  0.12509000000E+03 0.  0.
         25    1    4    4    0    0  0.26476266967E+02  0.29991979490E+02 -0.12455191524E+03  0.18100055038E+03  0.12509000000E+03 0.  0.
<mgrwt>
<rscale>  2 0.45457346E+03</rscale>
<asrwt>0</asrwt>
<pdfrwt beam="1">  1       21 0.16867752E-01 0.45457346E+03</pdfrwt>
<pdfrwt beam="2">  1       21 0.66232802E-01 0.45457346E+03</pdfrwt>
<totfact> 0.61086441E+04</totfact>
</mgrwt>
</event>
<event>
 7    0  0.4750554E-002  0.4544739E+03  0.7546771E-02  0.1026396E+00
         21   -1    0    0  502  501  0.00000000000E+00  0.00000000000E+00  0.54904608534E+03  0.54904608534E+03  0.00000000000E+00 0.  1.
         21   -1    0    0  501  502 -0.00000000000E+00 -0.00000000000E+00 -0.94047916579E+02  0.94047916579E+02  0.00000000000E+00 0.  1.
      99926    2    1    2    0    0  0.00000000000E+00  0.00000000000E+00  0.45499816877E+03  0.64309400192E+03  0.45447393955E+03 0.  0.
      99925    2    3    3    0    0  0.24790189293E+02 -0.45518534591E+02  0.14489585545E+03  0.30471929350E+03  0.26300674598E+03 0.  0.
         25    1    3    3    0    0 -0.24790189293E+02  0.45518534591E+02  0.31010231331E+03  0.33837470842E+03  0.12509000000E+03 0.  0.
         25    1    4    4    0    0  0.52920638582E+02 -0.21026756238E+02  0.70338572448E+02  0.15439475814E+03  0.12509000000E+03 0.  0.
         25    1    4    4    0    0 -0.28130449288E+02 -0.24491778354E+02  0.74557283003E+02  0.15032453537E+03  0.12509000000E+03 0.  0.
<mgrwt>
<rscale>  2 0.45447394E+03</rscale>
<asrwt>0</asrwt>
<pdfrwt beam="1">  1       21 0.80742070E-01 0.45447394E+03</pdfrwt>
<pdfrwt beam="2">  1       21 0.13830576E-01 0.45447394E+03</pdfrwt>
<totfact> 0.56334586E+04</totfact>
</mgrwt>
</event>
<event>
 7    0  0.4750554E-002  0.4532120E+03  0.7546771E-02  0.1026769E+00
         21   -1    0    0  502  501  0.00000000000E+00  0.00000000000E+00  0.46720251594E+02  0.46720251594E+02  0.00000000000E+00 0. -1.
         21   -1    0    0  501  502 -0.00000000000E+00 -0.00000000000E+00 -0.10991011178E+04  0.10991011178E+04  0.00000000000E+00 0. -1.
      99926    2    1    2    0    0  0.00000000000E+00  0.00000000000E+00 -0.10523808662E+04  0.11458213694E+04  0.45321200668E+03 0.  0.
      99925    2    3    3    0    0 -0.98568469383E+02 -0.51375022281E+02 -0.64990642143E+03  0.70994486983E+03  0.26322656688E+03 0.  0.
         25    1    4    4    0    0 -0.20971505047E+02 -0.26739317500E+02 -0.38029493093E+03  0.40177921514E+03  0.12509000000E+03 0.  0.
         25    1    4    4    0    0 -0.77596964335E+02 -0.24635704781E+02 -0.26961149050E+03  0.30816565470E+03  0.12509000000E+03 0.  0.
         25    1    3    3    0    0  0.98568469383E+02  0.51375022281E+02 -0.40247444473E+03  0.43587649952E+03  0.12509000000E+03 0.  0.
<mgrwt>
<rscale>  2 0.45321201E+03</rscale>
<asrwt>0</asrwt>
<pdfrwt beam="1">  1       21 0.68706255E-02 0.45321201E+03</pdfrwt>
<pdfrwt beam="2">  1       21 0.16163251E+00 0.45321201E+03</pdfrwt>
<totfact> 0.34399067E+04</totfact>
</mgrwt>
</event>
<event>
 7    0  0.4750554E-002  0.4496371E+03  0.7546771E-02  0.1027830E+00
         21   -1    0    0  502  501  0.00000000000E+00  0.00000000000E+00  0.24421527515E+03  0.24421527515E+03  0.00000000000E+00 0. -1.
         21   -1    0    0  501  502 -0.00000000000E+00 -0.00000000000E+00 -0.20696239138E+03  0.20696239138E+03  0.00000000000E+00 0. -1.
      99926    2    1    2    0    0  0.71054273576E-14  0.00000000000E+00  0.37252883770E+02  0.45117766653E+03  0.44963708636E+03 0.  0.
      99925    2    3    3    0    0 -0.52465643295E+02 -0.81526773290E+02 -0.24276577131E+02  0.28137589637E+03  0.26302810567E+03 0.  0.
         25    1    3    3    0    0  0.52465643295E+02  0.81526773290E+02  0.61529460901E+02  0.16980177016E+03  0.12509000000E+03 0.  0.
         25    1    4    4    0    0 -0.39761253024E+02 -0.30464855096E+02 -0.49108594645E+02  0.14341627106E+03  0.12509000000E+03 0.  0.
         25    1    4    4    0    0 -0.12704390271E+02 -0.51061918193E+02  0.24832017514E+02  0.13795962531E+03  0.12509000000E+03 0.  0.
<mgrwt>
<rscale>  2 0.44963709E+03</rscale>
<asrwt>0</asrwt>
<pdfrwt beam="1">  1       21 0.35914011E-01 0.44963709E+03</pdfrwt>
<pdfrwt beam="2">  1       21 0.30435646E-01 0.44963709E+03</pdfrwt>
<totfact> 0.71852375E+04</totfact>
</mgrwt>
</event>
<event>
 7    0  0.4750554E-002  0.4612675E+03  0.7546771E-02  0.1024414E+00
         21   -1    0    0  502  501  0.00000000000E+00  0.00000000000E+00  0.48489104648E+03  0.48489104648E+03  0.00000000000E+00 0. -1.
         21   -1    0    0  501  502 -0.00000000000E+00 -0.00000000000E+00 -0.10969873643E+03  0.10969873643E+03  0.00000000000E+00 0. -1.
      99926    2    1    2    0    0  0.00000000000E+00 -0.88817841970E-15  0.37519231005E+03  0.59458978291E+03  0.46126753671E+03 0.  0.
      99925    2    3    3    0    0 -0.47181421843E+02  0.56846832682E+01  0.37538363384E+03  0.46077667856E+03  0.26295222524E+03 0.  0.
         25    1    4    4    0    0 -0.36778077451E+02  0.21249896235E+02  0.24955890553E+03  0.28236738569E+03  0.12509000000E+03 0.  0.
         25    1    4    4    0    0 -0.10403344392E+02 -0.15565212967E+02  0.12582472831E+03  0.17840929287E+03  0.12509000000E+03 0.  0.
         25    1    3    3    0    0  0.47181421843E+02 -0.56846832682E+01 -0.19132378985E+00  0.13381310435E+03  0.12509000000E+03 0.  0.
<mgrwt>
<rscale>  2 0.46126754E+03</rscale>
<asrwt>0</asrwt>
<pdfrwt beam="1">  1       21 0.71307506E-01 0.46126754E+03</pdfrwt>
<pdfrwt beam="2">  1       21 0.16132167E-01 0.46126754E+03</pdfrwt>
<totfact> 0.56177864E+04</totfact>
</mgrwt>
</event>
<event>
 7    0  0.4750554E-002  0.4158757E+03  0.7546771E-02  0.1038417E+00
         21   -1    0    0  502  501  0.00000000000E+00  0.00000000000E+00  0.46684288875E+03  0.46684288875E+03  0.00000000000E+00 0. -1.
         21   -1    0    0  501  502 -0.00000000000E+00 -0.00000000000E+00 -0.92618185417E+02  0.92618185417E+02  0.00000000000E+00 0. -1.
      99926    2    1    2    0    0 -0.17763568394E-14  0.00000000000E+00  0.37422470333E+03  0.55946107417E+03  0.41587566041E+03 0.  0.
      99925    2    3    3    0    0 -0.12406362027E+02 -0.68982794352E+02  0.23690337401E+03  0.36092342201E+03  0.26311587600E+03 0.  0.
         25    1    4    4    0    0 -0.46681326454E+02 -0.39159441459E+02  0.11713657440E+03  0.18188208613E+03  0.12509000000E+03 0.  0.
         25    1    3    3    0    0  0.12406362027E+02  0.68982794352E+02  0.13732132933E+03  0.19853765215E+03  0.12509000000E+03 0.  0.
         25    1    4    4    0    0  0.34274964426E+02 -0.29823352892E+02  0.11976679961E+03  0.17904133588E+03  0.12509000000E+03 0.  0.
<mgrwt>
<rscale>  2 0.41587566E+03</rscale>
<asrwt>0</asrwt>
<pdfrwt beam="1">  1       21 0.68653365E-01 0.41587566E+03</pdfrwt>
<pdfrwt beam="2">  1       21 0.13620322E-01 0.41587566E+03</pdfrwt>
<totfact> 0.84518095E+04</totfact>
</mgrwt>
</event>
<event>
 7    0  0.4750554E-002  0.4589514E+03  0.7546771E-02  0.1025086E+00
         21   -1    0    0  502  501  0.00000000000E+00  0.00000000000E+00  0.46678829802E+03  0.46678829802E+03  0.00000000000E+00 0. -1.
         21   -1    0    0  501  502 -0.00000000000E+00 -0.00000000000E+00 -0.11281153028E+03  0.11281153028E+03  0.00000000000E+00 0. -1.
      99926    2    1    2    0    0  0.00000000000E+00  0.00000000000E+00  0.35397676773E+03  0.57959982830E+03  0.45895142321E+03 0.  0.
      99925    2    3    3    0    0 -0.44092142235E+02  0.32575940604E+02  0.35225096379E+03  0.44301360860E+03  0.26301141990E+03 0.  0.
         25    1    4    4    0    0  0.81008896368E+00 -0.33797661441E+01  0.12218567591E+03  0.17489690266E+03  0.12509000000E+03 0.  0.
         25    1    3    3    0    0  0.44092142235E+02 -0.32575940604E+02  0.17258039443E+01  0.13658621970E+03  0.12509000000E+03 0.  0.
         25    1    4    4    0    0 -0.44902231199E+02  0.35955706748E+02  0.23006528788E+03  0.26811670594E+03  0.12509000000E+03 0.  0.
<mgrwt>
<rscale>  2 0.45895142E+03</rscale>
<asrwt>0</asrwt>
<pdfrwt beam="1">  1       21 0.68645337E-01 0.45895142E+03</pdfrwt>
<pdfrwt beam="2">  1       21 0.16589931E-01 0.45895142E+03</pdfrwt>
<totfact> 0.58114980E+04</totfact>
</mgrwt>
</event>
<event>
 7    0  0.4750554E-002  0.4548043E+03  0.7546771E-02  0.1026299E+00
         21   -1    0    0  502  501  0.00000000000E+00  0.00000000000E+00  0.77824191925E+03  0.77824191925E+03  0.00000000000E+00 0.  1.
         21   -1    0    0  501  502 -0.00000000000E+00 -0.00000000000E+00 -0.66446859747E+02  0.66446859747E+02  0.00000000000E+00 0.  1.
      99926    2    1    2    0    0 -0.71054273576E-14  0.14210854715E-13  0.71179505950E+03  0.84468877899E+03  0.45480427288E+03 0.  0.
      99925    2    3    3    0    0  0.53442119087E+02 -0.74806303314E+02  0.56997987716E+03  0.63442442836E+03  0.26299287408E+03 0.  0.
         25    1    4    4    0    0  0.23029340502E+02 -0.84892198529E+01  0.20064715521E+03  0.23771665144E+03  0.12509000000E+03 0.  0.
         25    1    3    3    0    0 -0.53442119087E+02  0.74806303314E+02  0.14181518234E+03  0.21026435064E+03  0.12509000000E+03 0.  0.
         25    1    4    4    0    0  0.30412778585E+02 -0.66317083462E+02  0.36933272195E+03  0.39670777692E+03  0.12509000000E+03 0.  0.
<mgrwt>
<rscale>  2 0.45480427E+03</rscale>
<asrwt>0</asrwt>
<pdfrwt beam="1">  1       21 0.11444734E+00 0.45480427E+03</pdfrwt>
<pdfrwt beam="2">  1       21 0.97715974E-02 0.45480427E+03</pdfrwt>
<totfact> 0.45748115E+04</totfact>
</mgrwt>
</event>
<event>
 7    0  0.4750554E-002  0.4392749E+03  0.7546771E-02  0.1030970E+00
         21   -1    0    0  502  501  0.00000000000E+00  0.00000000000E+00  0.79960580738E+03  0.79960580738E+03  0.00000000000E+00 0.  1.
         21   -1    0    0  501  502 -0.00000000000E+00 -0.00000000000E+00 -0.60330479211E+02  0.60330479211E+02  0.00000000000E+00 0.  1.
      99926    2    1    2    0    0  0.00000000000E+00  0.71054273576E-14  0.73927532817E+03  0.85993628659E+03  0.43927486402E+03 0.  0.
      99925    2    3    3    0    0 -0.77527040289E+02  0.59450769697E+02  0.47590582641E+03  0.55243695561E+03  0.26297414003E+03 0.  0.
         25    1    4    4    0    0 -0.73351098851E+02  0.15074042458E+02  0.21642192006E+03  0.26094743923E+03  0.12509000000E+03 0.  0.
         25    1    4    4    0    0 -0.41759414379E+01  0.44376727239E+02  0.25948390635E+03  0.29148951638E+03  0.12509000000E+03 0.  0.
         25    1    3    3    0    0  0.77527040289E+02 -0.59450769697E+02  0.26336950176E+03  0.30749933098E+03  0.12509000000E+03 0.  0.
<mgrwt>
<rscale>  2 0.43927486E+03</rscale>
<asrwt>0</asrwt>
<pdfrwt beam="1">  1       21 0.11758908E+00 0.43927486E+03</pdfrwt>
<pdfrwt beam="2">  1       21 0.88721298E-02 0.43927486E+03</pdfrwt>
<totfact> 0.51003376E+04</totfact>
</mgrwt>
</event>
<event>
 7    0  0.4750554E-002  0.4491939E+03  0.7546771E-02  0.1027963E+00
         21   -1    0    0  502  501  0.00000000000E+00  0.00000000000E+00  0.63381555250E+02  0.63381555250E+02  0.00000000000E+00 0. -1.
         21   -1    0    0  501  502 -0.00000000000E+00 -0.00000000000E+00 -0.79587488144E+03  0.79587488144E+03  0.00000000000E+00 0. -1.
      99926    2    1    2    0    0  0.00000000000E+00  0.00000000000E+00 -0.73249332619E+03  0.85925643669E+03  0.44919389030E+03 0.  0.
      99925    2    3    3    0    0 -0.34086188160E+02 -0.68691419858E+02 -0.31907005523E+03  0.42056897567E+03  0.26304407191E+03 0.  0.
         25    1    4    4    0    0 -0.44637597732E+02 -0.49924912717E+02 -0.12746329464E+03  0.19073387644E+03  0.12509000000E+03 0.  0.
         25    1    4    4    0    0  0.10551409572E+02 -0.18766507141E+02 -0.19160676059E+03  0.22983509923E+03  0.12509000000E+03 0.  0.
         25    1    3    3    0    0  0.34086188160E+02  0.68691419858E+02 -0.41342327096E+03  0.43868746102E+03  0.12509000000E+03 0.  0.
<mgrwt>
<rscale>  2 0.44919389E+03</rscale>
<asrwt>0</asrwt>
<pdfrwt beam="1">  1       21 0.93208174E-02 0.44919389E+03</pdfrwt>
<pdfrwt beam="2">  1       21 0.11704042E+00 0.44919389E+03</pdfrwt>
<totfact> 0.47138373E+04</totfact>
</mgrwt>
</event>
<event>
 7    0  0.4750554E-002  0.4557804E+03  0.7546771E-02  0.1026012E+00
         21   -1    0    0  502  501  0.00000000000E+00  0.00000000000E+00  0.37301035254E+03  0.37301035254E+03  0.00000000000E+00 0.  1.
         21   -1    0    0  501  502 -0.00000000000E+00 -0.00000000000E+00 -0.13922920116E+03  0.13922920116E+03  0.00000000000E+00 0.  1.
      99926    2    1    2    0    0 -0.35527136788E-14  0.14210854715E-13  0.23378115138E+03  0.51223955370E+03  0.45578035679E+03 0.  0.
      99925    2    3    3    0    0  0.17369309568E+02 -0.83316176928E+02  0.61666834302E+02  0.28307994885E+03  0.26284630630E+03 0.  0.
         25    1    3    3    0    0 -0.17369309568E+02  0.83316176928E+02  0.17211431708E+03  0.22915960485E+03  0.12509000000E+03 0.  0.
         25    1    4    4    0    0  0.30965647708E+02 -0.77117405463E+02  0.29308834889E+02  0.15301137692E+03  0.12509000000E+03 0.  0.
         25    1    4    4    0    0 -0.13596338141E+02 -0.61987714655E+01  0.32357999413E+02  0.13006857193E+03  0.12509000000E+03 0.  0.
<mgrwt>
<rscale>  2 0.45578036E+03</rscale>
<asrwt>0</asrwt>
<pdfrwt beam="1">  1       21 0.54854463E-01 0.45578036E+03</pdfrwt>
<pdfrwt beam="2">  1       21 0.20474883E-01 0.45578036E+03</pdfrwt>
<totfact> 0.64021674E+04</totfact>
</mgrwt>
</event>
<event>
 7    0  0.4750554E-002  0.4665151E+03  0.7546771E-02  0.1022908E+00
         21   -1    0    0  502  501  0.00000000000E+00  0.00000000000E+00  0.88414232262E+03  0.88414232262E+03  0.00000000000E+00 0. -1.
         21   -1    0    0  501  502 -0.00000000000E+00 -0.00000000000E+00 -0.61538833877E+02  0.61538833877E+02  0.00000000000E+00 0. -1.
      99926    2    1    2    0    0  0.00000000000E+00  0.71054273576E-14  0.82260348874E+03  0.94568115649E+03  0.46651511236E+03 0.  0.
      99925    2    3    3    0    0 -0.95452536544E+02  0.33148495627E+02  0.36762057738E+03  0.46311824120E+03  0.26291368720E+03 0.  0.
         25    1    3    3    0    0  0.95452536544E+02 -0.33148495627E+02  0.45498291136E+03  0.48256291530E+03  0.12509000000E+03 0.  0.
         25    1    4    4    0    0 -0.17396038972E+02  0.44186553834E+02  0.17572386737E+03  0.22086525163E+03  0.12509000000E+03 0.  0.
         25    1    4    4    0    0 -0.78056497572E+02 -0.11038058207E+02  0.19189671001E+03  0.24225298957E+03  0.12509000000E+03 0.  0.
<mgrwt>
<rscale>  2 0.46651511E+03</rscale>
<asrwt>0</asrwt>
<pdfrwt beam="1">  1       21 0.13002092E+00 0.46651511E+03</pdfrwt>
<pdfrwt beam="2">  1       21 0.90498290E-02 0.46651511E+03</pdfrwt>
<totfact> 0.37795328E+04</totfact>
</mgrwt>
</event>
<event>
 7    0  0.4750554E-002  0.4512448E+03  0.7546771E-02  0.1027351E+00
         21   -1    0    0  502  501  0.00000000000E+00  0.00000000000E+00  0.33529280839E+03  0.33529280839E+03  0.00000000000E+00 0.  1.
         21   -1    0    0  501  502 -0.00000000000E+00 -0.00000000000E+00 -0.15182392912E+03  0.15182392912E+03  0.00000000000E+00 0.  1.
      99926    2    1    2    0    0 -0.71054273576E-14  0.00000000000E+00  0.18346887926E+03  0.48711673751E+03  0.45124481859E+03 0.  0.
      99925    2    3    3    0    0  0.61382594883E+02 -0.89637281076E+02  0.99931514203E+02  0.30156710918E+03  0.26297100352E+03 0.  0.
         25    1    4    4    0    0  0.52839811155E+02 -0.53794244311E+02  0.88228664041E+02  0.17063900967E+03  0.12509000000E+03 0.  0.
         25    1    4    4    0    0  0.85427837280E+01 -0.35843036764E+02  0.11702850163E+02  0.13092809951E+03  0.12509000000E+03 0.  0.
         25    1    3    3    0    0 -0.61382594883E+02  0.89637281076E+02  0.83537365061E+02  0.18554962833E+03  0.12509000000E+03 0.  0.
<mgrwt>
<rscale>  2 0.45124482E+03</rscale>
<asrwt>0</asrwt>
<pdfrwt beam="1">  1       21 0.49307766E-01 0.45124482E+03</pdfrwt>
<pdfrwt beam="2">  1       21 0.22327048E-01 0.45124482E+03</pdfrwt>
<totfact> 0.68196028E+04</totfact>
</mgrwt>
</event>
<event>
 6    0  0.4750554E-002  0.4345261E+03  0.7546771E-02  0.1032440E+00
         21   -1    0    0  502  501  0.00000000000E+00  0.00000000000E+00  0.64905793082E+02  0.64905793082E+02  0.00000000000E+00 0. -1.
         21   -1    0    0  501  502 -0.00000000000E+00 -0.00000000000E+00 -0.72725775724E+03  0.72725775724E+03  0.00000000000E+00 0. -1.
      99926    2    1    2    0    0  0.00000000000E+00  0.00000000000E+00 -0.66235196416E+03  0.79216355032E+03  0.43452613964E+03 0.  0.
         25    1    3    3    0    0 -0.36085516831E+02  0.48825927722E+02 -0.32529903998E+03  0.35376985351E+03  0.12509000000E+03 0.  0.
         25    1    3    3    0    0 -0.21709874264E+02  0.14881989502E+02 -0.16944788804E+03  0.21225665387E+03  0.12509000000E+03 0.  0.
         25    1    3    3    0    0  0.57795391095E+02 -0.63707917224E+02 -0.16760503614E+03  0.22613704294E+03  0.12509000000E+03 0.  0.
<mgrwt>
<rscale>  2 0.43452614E+03</rscale>
<asrwt>0</asrwt>
<pdfrwt beam="1">  1       21 0.95449697E-02 0.43452614E+03</pdfrwt>
<pdfrwt beam="2">  1       21 0.10694967E+00 0.43452614E+03</pdfrwt>
<totfact> 0.56727024E+04</totfact>
</mgrwt>
</event>
<event>
 7    0  0.4750554E-002  0.4544151E+03  0.7546771E-02  0.1026414E+00
         21   -1    0    0  502  501  0.00000000000E+00  0.00000000000E+00  0.17146809137E+04  0.17146809137E+04  0.00000000000E+00 0.  1.
         21   -1    0    0  501  502 -0.00000000000E+00 -0.00000000000E+00 -0.30106630312E+02  0.30106630312E+02  0.00000000000E+00 0.  1.
      99926    2    1    2    0    0  0.71054273576E-14  0.00000000000E+00  0.16845742834E+04  0.17447875441E+04  0.45441507181E+03 0.  0.
      99925    2    3    3    0    0  0.50109349506E+02  0.44434445865E+02  0.71309400073E+03  0.76299998319E+03  0.26302196408E+03 0.  0.
         25    1    3    3    0    0 -0.50109349506E+02 -0.44434445865E+02  0.97148028270E+03  0.98178756086E+03  0.12509000000E+03 0.  0.
         25    1    4    4    0    0 -0.15420206129E+02  0.23579539605E+02  0.35929627212E+03  0.38149062466E+03  0.12509000000E+03 0.  0.
         25    1    4    4    0    0  0.65529555635E+02  0.20854906261E+02  0.35379772861E+03  0.38150935853E+03  0.12509000000E+03 0.  0.
<mgrwt>
<rscale>  2 0.45441507E+03</rscale>
<asrwt>0</asrwt>
<pdfrwt beam="1">  1       21 0.25215889E+00 0.45441507E+03</pdfrwt>
<pdfrwt beam="2">  1       21 0.44274468E-02 0.45441507E+03</pdfrwt>
<totfact> 0.18428444E+04</totfact>
</mgrwt>
</event>
<event>
 7    0  0.4750554E-002  0.4572604E+03  0.7546771E-02  0.1025579E+00
         21   -1    0    0  502  501  0.00000000000E+00  0.00000000000E+00  0.33671880646E+03  0.33671880646E+03  0.00000000000E+00 0. -1.
         21   -1    0    0  501  502 -0.00000000000E+00 -0.00000000000E+00 -0.15523863256E+03  0.15523863256E+03  0.00000000000E+00 0. -1.
      99926    2    1    2    0    0  0.00000000000E+00  0.00000000000E+00  0.18148017390E+03  0.49195743902E+03  0.45726039440E+03 0.  0.
      99925    2    3    3    0    0  0.45553219020E+02 -0.25801437600E+02  0.35026330891E+01  0.26820685672E+03  0.26302440877E+03 0.  0.
         25    1    4    4    0    0  0.26327247357E+02 -0.24518264998E+02 -0.37002425722E+02  0.13531798432E+03  0.12509000000E+03 0.  0.
         25    1    4    4    0    0  0.19225971663E+02 -0.12831726024E+01  0.40505058811E+02  0.13288887240E+03  0.12509000000E+03 0.  0.
         25    1    3    3    0    0 -0.45553219020E+02  0.25801437600E+02  0.17797754081E+03  0.22375058230E+03  0.12509000000E+03 0.  0.
<mgrwt>
<rscale>  2 0.45726039E+03</rscale>
<asrwt>0</asrwt>
<pdfrwt beam="1">  1       21 0.49517472E-01 0.45726039E+03</pdfrwt>
<pdfrwt beam="2">  1       21 0.22829211E-01 0.45726039E+03</pdfrwt>
<totfact> 0.64671139E+04</totfact>
</mgrwt>
</event>
<event>
 7    0  0.4750554E-002  0.4553359E+03  0.7546771E-02  0.1026143E+00
         21   -1    0    0  502  501  0.00000000000E+00  0.00000000000E+00  0.13597188143E+03  0.13597188143E+03  0.00000000000E+00 0.  1.
         21   -1    0    0  501  502 -0.00000000000E+00 -0.00000000000E+00 -0.38120151759E+03  0.38120151759E+03  0.00000000000E+00 0.  1.
      99926    2    1    2    0    0  0.71054273576E-14 -0.35527136788E-14 -0.24522963616E+03  0.51717339901E+03  0.45533586526E+03 0.  0.
      99925    2    3    3    0    0  0.38759709542E+02 -0.30728009792E+02 -0.38319498153E+02  0.27038231534E+03  0.26304312734E+03 0.  0.
         25    1    4    4    0    0  0.41699278399E+02 -0.98793409481E+01  0.14410088570E+02  0.13300973629E+03  0.12509000000E+03 0.  0.
         25    1    4    4    0    0 -0.29395688563E+01 -0.20848668844E+02 -0.52729586722E+02  0.13737257905E+03  0.12509000000E+03 0.  0.
         25    1    3    3    0    0 -0.38759709542E+02  0.30728009792E+02 -0.20691013801E+03  0.24679108367E+03  0.12509000000E+03 0.  0.
<mgrwt>
<rscale>  2 0.45533587E+03</rscale>
<asrwt>0</asrwt>
<pdfrwt beam="1">  1       21 0.19995865E-01 0.45533587E+03</pdfrwt>
<pdfrwt beam="2">  1       21 0.56059046E-01 0.45533587E+03</pdfrwt>
<totfact> 0.63909776E+04</totfact>
</mgrwt>
</event>
<event>
 7    0  0.4750554E-002  0.4523243E+03  0.7546771E-02  0.1027031E+00
         21   -1    0    0  502  501  0.00000000000E+00  0.00000000000E+00  0.15709719130E+03  0.15709719130E+03  0.00000000000E+00 0.  1.
         21   -1    0    0  501  502 -0.00000000000E+00 -0.00000000000E+00 -0.32559032363E+03  0.32559032363E+03  0.00000000000E+00 0.  1.
      99926    2    1    2    0    0  0.00000000000E+00  0.00000000000E+00 -0.16849313233E+03  0.48268751493E+03  0.45232433212E+03 0.  0.
      99925    2    3    3    0    0 -0.29432831376E+02  0.34668153434E+02  0.12860013935E+01  0.26695472935E+03  0.26304942748E+03 0.  0.
         25    1    4    4    0    0 -0.21567964849E+01 -0.17611426674E+01  0.34444975797E+02  0.12977564430E+03  0.12509000000E+03 0.  0.
         25    1    4    4    0    0 -0.27276034891E+02  0.36429296101E+02 -0.33158974404E+02  0.13717908506E+03  0.12509000000E+03 0.  0.
         25    1    3    3    0    0  0.29432831376E+02 -0.34668153434E+02 -0.16977913372E+03  0.21573278558E+03  0.12509000000E+03 0.  0.
<mgrwt>
<rscale>  2 0.45232433E+03</rscale>
<asrwt>0</asrwt>
<pdfrwt beam="1">  1       21 0.23102528E-01 0.45232433E+03</pdfrwt>
<pdfrwt beam="2">  1       21 0.47880929E-01 0.45232433E+03</pdfrwt>
<totfact> 0.67936542E+04</totfact>
</mgrwt>
</event>
<event>
 7    0  0.4750554E-002  0.4986415E+03  0.7546771E-02  0.1014134E+00
         21   -1    0    0  502  501  0.00000000000E+00  0.00000000000E+00  0.18271661085E+03  0.18271661085E+03  0.00000000000E+00 0.  1.
         21   -1    0    0  501  502 -0.00000000000E+00 -0.00000000000E+00 -0.34020357539E+03  0.34020357539E+03  0.00000000000E+00 0.  1.
      99926    2    1    2    0    0 -0.71054273576E-14  0.00000000000E+00 -0.15748696454E+03  0.52292018625E+03  0.49864153175E+03 0.  0.
      99925    2    3    3    0    0  0.47492311762E+02 -0.12815926325E+03 -0.29052442194E+02  0.29748005880E+03  0.26262144725E+03 0.  0.
         25    1    4    4    0    0 -0.81785606294E+01 -0.34281904631E+02 -0.91862775372E+01  0.13028443358E+03  0.12509000000E+03 0.  0.
         25    1    4    4    0    0  0.55670872391E+02 -0.93877358617E+02 -0.19866164657E+02  0.16719562522E+03  0.12509000000E+03 0.  0.
         25    1    3    3    0    0 -0.47492311762E+02  0.12815926325E+03 -0.12843452235E+03  0.22544012745E+03  0.12509000000E+03 0.  0.
<mgrwt>
<rscale>  2 0.49864153E+03</rscale>
<asrwt>0</asrwt>
<pdfrwt beam="1">  1       21 0.26870090E-01 0.49864153E+03</pdfrwt>
<pdfrwt beam="2">  1       21 0.50029937E-01 0.49864153E+03</pdfrwt>
<totfact> 0.45689726E+04</totfact>
</mgrwt>
</event>
<event>
 7    0  0.4750554E-002  0.4434009E+03  0.7546771E-02  0.1029708E+00
         21   -1    0    0  502  501  0.00000000000E+00  0.00000000000E+00  0.35954483866E+03  0.35954483866E+03  0.00000000000E+00 0.  1.
         21   -1    0    0  501  502 -0.00000000000E+00 -0.00000000000E+00 -0.13670366524E+03  0.13670366524E+03  0.00000000000E+00 0.  1.
      99926    2    1    2    0    0 -0.35527136788E-14 -0.35527136788E-14  0.22284117342E+03  0.49624850390E+03  0.44340093488E+03 0.  0.
      99925    2    3    3    0    0  0.31006891247E+02  0.18685486812E+02  0.24836140915E+03  0.36354822035E+03  0.26300825889E+03 0.  0.
         25    1    4    4    0    0 -0.12340944486E+02 -0.10348918517E+02  0.15059211003E+03  0.19643037120E+03  0.12509000000E+03 0.  0.
         25    1    4    4    0    0  0.43347835733E+02  0.29034405329E+02  0.97769299116E+02  0.16711784915E+03  0.12509000000E+03 0.  0.
         25    1    3    3    0    0 -0.31006891247E+02 -0.18685486812E+02 -0.25520235724E+02  0.13270028355E+03  0.12509000000E+03 0.  0.
<mgrwt>
<rscale>  2 0.44340093E+03</rscale>
<asrwt>0</asrwt>
<pdfrwt beam="1">  1       21 0.52874241E-01 0.44340093E+03</pdfrwt>
<pdfrwt beam="2">  1       21 0.20103480E-01 0.44340093E+03</pdfrwt>
<totfact> 0.71933157E+04</totfact>
</mgrwt>
</event>
<event>
 7    0  0.4750554E-002  0.4527881E+03  0.7546771E-02  0.1026894E+00
         21   -1    0    0  502  501  0.00000000000E+00  0.00000000000E+00  0.67829340782E+03  0.67829340782E+03  0.00000000000E+00 0. -1.
         21   -1    0    0  501  502 -0.00000000000E+00 -0.00000000000E+00 -0.75563565596E+02  0.75563565596E+02  0.00000000000E+00 0. -1.
      99926    2    1    2    0    0 -0.14210854715E-13  0.00000000000E+00  0.60272984222E+03  0.75385697341E+03  0.45278811122E+03 0.  0.
      99925    2    3    3    0    0 -0.89535747668E+02 -0.42933363172E+02  0.29685281613E+03  0.40879438927E+03  0.26292838278E+03 0.  0.
         25    1    4    4    0    0 -0.65364754292E+02 -0.58309648439E+02  0.15910621534E+03  0.22053313145E+03  0.12509000000E+03 0.  0.
         25    1    3    3    0    0  0.89535747668E+02  0.42933363172E+02  0.30587702609E+03  0.34506258414E+03  0.12509000000E+03 0.  0.
         25    1    4    4    0    0 -0.24170993376E+02  0.15376285268E+02  0.13774660079E+03  0.18826125782E+03  0.12509000000E+03 0.  0.
<mgrwt>
<rscale>  2 0.45278811E+03</rscale>
<asrwt>0</asrwt>
<pdfrwt beam="1">  1       21 0.99749027E-01 0.45278811E+03</pdfrwt>
<pdfrwt beam="2">  1       21 0.11112289E-01 0.45278811E+03</pdfrwt>
<totfact> 0.50954486E+04</totfact>
</mgrwt>
</event>
<event>
 7    0  0.4750554E-002  0.5297747E+03  0.7546771E-02  0.1006287E+00
         21   -1    0    0  502  501  0.00000000000E+00  0.00000000000E+00  0.18049301143E+03  0.18049301143E+03  0.00000000000E+00 0. -1.
         21   -1    0    0  501  502 -0.00000000000E+00 -0.00000000000E+00 -0.38874253065E+03  0.38874253065E+03  0.00000000000E+00 0. -1.
      99926    2    1    2    0    0  0.00000000000E+00  0.00000000000E+00 -0.20824951922E+03  0.56923554209E+03  0.52977470695E+03 0.  0.
      99925    2    3    3    0    0 -0.92545010331E+02 -0.14135067528E+03 -0.16915209171E+03  0.35541152736E+03  0.26298351908E+03 0.  0.
         25    1    3    3    0    0  0.92545010331E+02  0.14135067528E+03 -0.39097427505E+02  0.21382401473E+03  0.12509000000E+03 0.  0.
         25    1    4    4    0    0 -0.44807920449E+02 -0.75488712321E+02 -0.13128823743E+03  0.20147060533E+03  0.12509000000E+03 0.  0.
         25    1    4    4    0    0 -0.47737089882E+02 -0.65861962954E+02 -0.37863854285E+02  0.15394092203E+03  0.12509000000E+03 0.  0.
<mgrwt>
<rscale>  2 0.52977471E+03</rscale>
<asrwt>0</asrwt>
<pdfrwt beam="1">  1       21 0.26543090E-01 0.52977471E+03</pdfrwt>
<pdfrwt beam="2">  1       21 0.57168019E-01 0.52977471E+03</pdfrwt>
<totfact> 0.34892648E+04</totfact>
</mgrwt>
</event>
<event>
 7    0  0.4750554E-002  0.4631313E+03  0.7546771E-02  0.1023877E+00
         21   -1    0    0  502  501  0.00000000000E+00  0.00000000000E+00  0.23281857394E+03  0.23281857394E+03  0.00000000000E+00 0.  1.
         21   -1    0    0  501  502 -0.00000000000E+00 -0.00000000000E+00 -0.23031946734E+03  0.23031946734E+03  0.00000000000E+00 0.  1.
      99926    2    1    2    0    0  0.00000000000E+00 -0.14210854715E-13  0.24991066024E+01  0.46313804128E+03  0.46313129861E+03 0.  0.
      99925    2    3    3    0    0 -0.13584600618E+02  0.76402315928E+02 -0.90670750426E+02  0.28892556868E+03  0.26312533895E+03 0.  0.
         25    1    4    4    0    0 -0.26852034165E+02  0.29092859088E+02 -0.80977313555E+02  0.15418255284E+03  0.12509000000E+03 0.  0.
         25    1    3    3    0    0  0.13584600618E+02 -0.76402315928E+02  0.93169857028E+02  0.17421247261E+03  0.12509000000E+03 0.  0.
         25    1    4    4    0    0  0.13267433547E+02  0.47309456841E+02 -0.96934368707E+01  0.13474301584E+03  0.12509000000E+03 0.  0.
<mgrwt>
<rscale>  2 0.46313130E+03</rscale>
<asrwt>0</asrwt>
<pdfrwt beam="1">  1       21 0.34238026E-01 0.46313130E+03</pdfrwt>
<pdfrwt beam="2">  1       21 0.33870510E-01 0.46313130E+03</pdfrwt>
<totfact> 0.63718239E+04</totfact>
</mgrwt>
</event>
<event>
 7    0  0.4750554E-002  0.4535698E+03  0.7546771E-02  0.1026663E+00
         21   -1    0    0  502  501  0.00000000000E+00  0.00000000000E+00  0.40175083465E+03  0.40175083465E+03  0.00000000000E+00 0. -1.
         21   -1    0    0  501  502 -0.00000000000E+00 -0.00000000000E+00 -0.12801811349E+03  0.12801811349E+03  0.00000000000E+00 0. -1.
      99926    2    1    2    0    0  0.00000000000E+00  0.00000000000E+00  0.27373272116E+03  0.52976894814E+03  0.45356976948E+03 0.  0.
      99925    2    3    3    0    0  0.73289236357E+02  0.48283161496E+02  0.25335673088E+03  0.37560908005E+03  0.26303986786E+03 0.  0.
         25    1    3    3    0    0 -0.73289236357E+02 -0.48283161496E+02  0.20375990278E+02  0.15415986809E+03  0.12509000000E+03 0.  0.
         25    1    4    4    0    0  0.37717468399E+00  0.10976848560E+02  0.13938219210E+03  0.18760473618E+03  0.12509000000E+03 0.  0.
         25    1    4    4    0    0  0.72912061673E+02  0.37306312936E+02  0.11397453879E+03  0.18800434387E+03  0.12509000000E+03 0.  0.
<mgrwt>
<rscale>  2 0.45356977E+03</rscale>
<asrwt>0</asrwt>
<pdfrwt beam="1">  1       21 0.59081005E-01 0.45356977E+03</pdfrwt>
<pdfrwt beam="2">  1       21 0.18826193E-01 0.45356977E+03</pdfrwt>
<totfact> 0.63943951E+04</totfact>
</mgrwt>
</event>
<event>
 7    0  0.4750554E-002  0.4527812E+03  0.7546771E-02  0.1026896E+00
         21   -1    0    0  502  501  0.00000000000E+00  0.00000000000E+00  0.85826516081E+02  0.85826516081E+02  0.00000000000E+00 0.  1.
         21   -1    0    0  501  502 -0.00000000000E+00 -0.00000000000E+00 -0.59716637381E+03  0.59716637381E+03  0.00000000000E+00 0.  1.
      99926    2    1    2    0    0  0.00000000000E+00  0.14210854715E-13 -0.51133985773E+03  0.68299288989E+03  0.45278122481E+03 0.  0.
      99925    2    3    3    0    0  0.69638666986E+02 -0.77551856147E+02 -0.37923137034E+03  0.47331696168E+03  0.26334137471E+03 0.  0.
         25    1    3    3    0    0 -0.69638666986E+02  0.77551856147E+02 -0.13210848739E+03  0.20967592821E+03  0.12509000000E+03 0.  0.
         25    1    4    4    0    0  0.71596413378E+02 -0.62173396074E+02 -0.21920257678E+03  0.26960870787E+03  0.12509000000E+03 0.  0.
         25    1    4    4    0    0 -0.19577463922E+01 -0.15378460074E+02 -0.16002879356E+03  0.20370825382E+03  0.12509000000E+03 0.  0.
<mgrwt>
<rscale>  2 0.45278122E+03</rscale>
<asrwt>0</asrwt>
<pdfrwt beam="1">  1       21 0.12621546E-01 0.45278122E+03</pdfrwt>
<pdfrwt beam="2">  1       21 0.87818585E-01 0.45278122E+03</pdfrwt>
<totfact> 0.54787242E+04</totfact>
</mgrwt>
</event>
<event>
 7    0  0.4750554E-002  0.4474805E+03  0.7546771E-02  0.1028476E+00
         21   -1    0    0  502  501  0.00000000000E+00  0.00000000000E+00  0.21591227770E+03  0.21591227770E+03  0.00000000000E+00 0. -1.
         21   -1    0    0  501  502 -0.00000000000E+00 -0.00000000000E+00 -0.23185202002E+03  0.23185202002E+03  0.00000000000E+00 0. -1.
      99926    2    1    2    0    0 -0.71054273576E-14  0.35527136788E-14 -0.15939742325E+02  0.44776429772E+03  0.44748049223E+03 0.  0.
      99925    2    3    3    0    0  0.63261545873E+02 -0.16284080970E+02  0.73420163990E+02  0.28073167984E+03  0.26296874550E+03 0.  0.
         25    1    4    4    0    0  0.10982513796E+02 -0.36741068602E+02  0.56745573999E+02  0.14261167554E+03  0.12509000000E+03 0.  0.
         25    1    3    3    0    0 -0.63261545873E+02  0.16284080970E+02 -0.89359906316E+02  0.16703261788E+03  0.12509000000E+03 0.  0.
         25    1    4    4    0    0  0.52279032077E+02  0.20456987632E+02  0.16674589991E+02  0.13812000431E+03  0.12509000000E+03 0.  0.
<mgrwt>
<rscale>  2 0.44748049E+03</rscale>
<asrwt>0</asrwt>
<pdfrwt beam="1">  1       21 0.31751806E-01 0.44748049E+03</pdfrwt>
<pdfrwt beam="2">  1       21 0.34095885E-01 0.44748049E+03</pdfrwt>
<totfact> 0.73384193E+04</totfact>
</mgrwt>
</event>
<event>
 7    0  0.4750554E-002  0.4521780E+03  0.7546771E-02  0.1027075E+00
         21   -1    0    0  502  501  0.00000000000E+00  0.00000000000E+00  0.11735972892E+03  0.11735972892E+03  0.00000000000E+00 0. -1.
         21   -1    0    0  501  502 -0.00000000000E+00 -0.00000000000E+00 -0.43555179205E+03  0.43555179205E+03  0.00000000000E+00 0. -1.
      99926    2    1    2    0    0 -0.14210854715E-13  0.00000000000E+00 -0.31819206313E+03  0.55291152097E+03  0.45217801912E+03 0.  0.
      99925    2    3    3    0    0  0.86502898011E+02 -0.61214936994E+02 -0.23896434646E+03  0.37082758685E+03  0.26301923962E+03 0.  0.
         25    1    3    3    0    0 -0.86502898011E+02  0.61214936994E+02 -0.79227716669E+02  0.18208393412E+03  0.12509000000E+03 0.  0.
         25    1    4    4    0    0  0.54198844266E+01 -0.10445615305E+02 -0.95780286662E+02  0.15798689009E+03  0.12509000000E+03 0.  0.
         25    1    4    4    0    0  0.81083013584E+02 -0.50769321688E+02 -0.14318405980E+03  0.21284069676E+03  0.12509000000E+03 0.  0.
<mgrwt>
<rscale>  2 0.45217802E+03</rscale>
<asrwt>0</asrwt>
<pdfrwt beam="1">  1       21 0.17258784E-01 0.45217802E+03</pdfrwt>
<pdfrwt beam="2">  1       21 0.64051733E-01 0.45217802E+03</pdfrwt>
<totfact> 0.63070862E+04</totfact>
</mgrwt>
</event>
<event>
 6    0  0.4750554E-002  0.4637910E+03  0.7546771E-02  0.1023687E+00
         21   -1    0    0  502  501  0.00000000000E+00  0.00000000000E+00  0.56052990951E+03  0.56052990951E+03  0.00000000000E+00 0.  1.
         21   -1    0    0  501  502 -0.00000000000E+00 -0.00000000000E+00 -0.95936932146E+02  0.95936932146E+02  0.00000000000E+00 0.  1.
      99926    2    1    2    0    0  0.00000000000E+00 -0.14210854715E-13  0.46459297736E+03  0.65646684166E+03  0.46379098695E+03 0.  0.
         25    1    3    3    0    0 -0.17690563222E+02  0.10302382510E+03  0.77897579591E+02  0.18067209406E+03  0.12509000000E+03 0.  0.
         25    1    3    3    0    0  0.11193800423E+02 -0.66741423486E+02  0.15840949225E+03  0.21288681056E+03  0.12509000000E+03 0.  0.
         25    1    3    3    0    0  0.64967627993E+01 -0.36282401617E+02  0.22828590552E+03  0.26290793703E+03  0.12509000000E+03 0.  0.
<mgrwt>
<rscale>  2 0.46379099E+03</rscale>
<asrwt>0</asrwt>
<pdfrwt beam="1">  1       21 0.82430868E-01 0.46379099E+03</pdfrwt>
<pdfrwt beam="2">  1       21 0.14108373E-01 0.46379099E+03</pdfrwt>
<totfact> 0.51654364E+04</totfact>
</mgrwt>
</event>
<event>
 7    0  0.4750554E-002  0.4561741E+03  0.7546771E-02  0.1025897E+00
         21   -1    0    0  502  501  0.00000000000E+00  0.00000000000E+00  0.60598956923E+03  0.60598956923E+03  0.00000000000E+00 0.  1.
         21   -1    0    0  501  502 -0.00000000000E+00 -0.00000000000E+00 -0.85849166972E+02  0.85849166972E+02  0.00000000000E+00 0.  1.
      99926    2    1    2    0    0  0.00000000000E+00  0.00000000000E+00  0.52014040226E+03  0.69183873621E+03  0.45617408832E+03 0.  0.
      99925    2    3    3    0    0 -0.54364593777E+02 -0.10002181660E+03  0.31303462034E+03  0.42444354953E+03  0.26306231268E+03 0.  0.
         25    1    4    4    0    0 -0.15437752468E+02 -0.63292440235E+02  0.21343970047E+03  0.25582859697E+03  0.12509000000E+03 0.  0.
         25    1    3    3    0    0  0.54364593777E+02  0.10002181660E+03  0.20710578192E+03  0.26739518667E+03  0.12509000000E+03 0.  0.
         25    1    4    4    0    0 -0.38926841309E+02 -0.36729376362E+02  0.99594919870E+02  0.16861495256E+03  0.12509000000E+03 0.  0.
<mgrwt>
<rscale>  2 0.45617409E+03</rscale>
<asrwt>0</asrwt>
<pdfrwt beam="1">  1       21 0.89116110E-01 0.45617409E+03</pdfrwt>
<pdfrwt beam="2">  1       21 0.12624878E-01 0.45617409E+03</pdfrwt>
<totfact> 0.52858168E+04</totfact>
</mgrwt>
</event>
<event>
 7    0  0.4750554E-002  0.4572431E+03  0.7546771E-02  0.1025584E+00
         21   -1    0    0  502  501  0.00000000000E+00  0.00000000000E+00  0.24388352948E+03  0.24388352948E+03  0.00000000000E+00 0.  1.
         21   -1    0    0  501  502 -0.00000000000E+00 -0.00000000000E+00 -0.21431466340E+03  0.21431466340E+03  0.00000000000E+00 0.  1.
      99926    2    1    2    0    0  0.00000000000E+00  0.00000000000E+00  0.29568866083E+02  0.45819819288E+03  0.45724311489E+03 0.  0.
      99925    2    3    3    0    0  0.63053962990E+02 -0.92660300673E+02 -0.89957990595E+01  0.28587154065E+03  0.26283051532E+03 0.  0.
         25    1    4    4    0    0  0.26364204253E+02 -0.66732476610E+01 -0.18867553435E+02  0.12939511650E+03  0.12509000000E+03 0.  0.
         25    1    4    4    0    0  0.36689758736E+02 -0.85987053012E+02  0.98717543753E+01  0.15647642415E+03  0.12509000000E+03 0.  0.
         25    1    3    3    0    0 -0.63053962990E+02  0.92660300673E+02  0.38564665142E+02  0.17232665223E+03  0.12509000000E+03 0.  0.
<mgrwt>
<rscale>  2 0.45724311E+03</rscale>
<asrwt>0</asrwt>
<pdfrwt beam="1">  1       21 0.35865225E-01 0.45724311E+03</pdfrwt>
<pdfrwt beam="2">  1       21 0.31516862E-01 0.45724311E+03</pdfrwt>
<totfact> 0.67103130E+04</totfact>
</mgrwt>
</event>
<event>
 7    0  0.4750554E-002  0.4543221E+03  0.7546771E-02  0.1026441E+00
         21   -1    0    0  502  501  0.00000000000E+00  0.00000000000E+00  0.59175025061E+03  0.59175025061E+03  0.00000000000E+00 0. -1.
         21   -1    0    0  501  502 -0.00000000000E+00 -0.00000000000E+00 -0.87202577313E+02  0.87202577313E+02  0.00000000000E+00 0. -1.
      99926    2    1    2    0    0  0.00000000000E+00  0.00000000000E+00  0.50454767330E+03  0.67895282792E+03  0.45432211911E+03 0.  0.
      99925    2    3    3    0    0 -0.53599587147E+02 -0.87746899320E+02  0.24951474030E+03  0.37685724852E+03  0.26304247956E+03 0.  0.
         25    1    3    3    0    0  0.53599587147E+02  0.87746899320E+02  0.25503293299E+03  0.30209557940E+03  0.12509000000E+03 0.  0.
         25    1    4    4    0    0 -0.65000387517E+02 -0.34476802258E+02  0.14329133990E+03  0.20394513101E+03  0.12509000000E+03 0.  0.
         25    1    4    4    0    0  0.11400800370E+02 -0.53270097062E+02  0.10622340041E+03  0.17291211752E+03  0.12509000000E+03 0.  0.
<mgrwt>
<rscale>  2 0.45432212E+03</rscale>
<asrwt>0</asrwt>
<pdfrwt beam="1">  1       21 0.87022094E-01 0.45432212E+03</pdfrwt>
<pdfrwt beam="2">  1       21 0.12823909E-01 0.45432212E+03</pdfrwt>
<totfact> 0.54350659E+04</totfact>
</mgrwt>
</event>
<event>
 7    0  0.4750554E-002  0.4101268E+03  0.7546771E-02  0.1040328E+00
         21   -1    0    0  502  501  0.00000000000E+00  0.00000000000E+00  0.60669331837E+03  0.60669331837E+03  0.00000000000E+00 0.  1.
         21   -1    0    0  501  502 -0.00000000000E+00 -0.00000000000E+00 -0.69311802208E+02  0.69311802208E+02  0.00000000000E+00 0.  1.
      99926    2    1    2    0    0  0.17763568394E-14  0.00000000000E+00  0.53738151616E+03  0.67600512058E+03  0.41012684518E+03 0.  0.
      99925    2    3    3    0    0 -0.11218291027E+02 -0.60162817637E+02  0.33651605858E+03  0.43158774225E+03  0.26321000531E+03 0.  0.
         25    1    4    4    0    0 -0.13585516479E+02 -0.40351975088E+02  0.10945402921E+03  0.17158246053E+03  0.12509000000E+03 0.  0.
         25    1    3    3    0    0  0.11218291027E+02  0.60162817637E+02  0.20086545758E+03  0.24441737833E+03  0.12509000000E+03 0.  0.
         25    1    4    4    0    0  0.23672254513E+01 -0.19810842549E+02  0.22706202937E+03  0.26000528172E+03  0.12509000000E+03 0.  0.
<mgrwt>
<rscale>  2 0.41012685E+03</rscale>
<asrwt>0</asrwt>
<pdfrwt beam="1">  1       21 0.89219603E-01 0.41012685E+03</pdfrwt>
<pdfrwt beam="2">  1       21 0.10192912E-01 0.41012685E+03</pdfrwt>
<totfact> 0.78501382E+04</totfact>
</mgrwt>
</event>
<event>
 7    0  0.4750554E-002  0.4505283E+03  0.7546771E-02  0.1027565E+00
         21   -1    0    0  502  501  0.00000000000E+00  0.00000000000E+00  0.23331799665E+03  0.23331799665E+03  0.00000000000E+00 0.  1.
         21   -1    0    0  501  502 -0.00000000000E+00 -0.00000000000E+00 -0.21748832743E+03  0.21748832743E+03  0.00000000000E+00 0.  1.
      99926    2    1    2    0    0  0.00000000000E+00 -0.14210854715E-13  0.15829669220E+02  0.45080632408E+03  0.45052831587E+03 0.  0.
      99925    2    3    3    0    0 -0.40505973766E+02 -0.91363286144E+02  0.51334641073E+02  0.28680603416E+03  0.26388344376E+03 0.  0.
         25    1    4    4    0    0  0.39540427753E+01 -0.80836782229E+02  0.25750645763E+02  0.15119796187E+03  0.12509000000E+03 0.  0.
         25    1    3    3    0    0  0.40505973766E+02  0.91363286144E+02 -0.35504971852E+02  0.16400028991E+03  0.12509000000E+03 0.  0.
         25    1    4    4    0    0 -0.44460016541E+02 -0.10526503915E+02  0.25583995309E+02  0.13560807229E+03  0.12509000000E+03 0.  0.
<mgrwt>
<rscale>  2 0.45052832E+03</rscale>
<asrwt>0</asrwt>
<pdfrwt beam="1">  1       21 0.34311470E-01 0.45052832E+03</pdfrwt>
<pdfrwt beam="2">  1       21 0.31983577E-01 0.45052832E+03</pdfrwt>
<totfact> 0.71366645E+04</totfact>
</mgrwt>
</event>
<event>
 7    0  0.4750554E-002  0.4621014E+03  0.7546771E-02  0.1024174E+00
         21   -1    0    0  502  501  0.00000000000E+00  0.00000000000E+00  0.19057817690E+03  0.19057817690E+03  0.00000000000E+00 0. -1.
         21   -1    0    0  501  502 -0.00000000000E+00 -0.00000000000E+00 -0.28011827502E+03  0.28011827502E+03  0.00000000000E+00 0. -1.
      99926    2    1    2    0    0 -0.71054273576E-14 -0.71054273576E-14 -0.89540098119E+02  0.47069645192E+03  0.46210141817E+03 0.  0.
      99925    2    3    3    0    0  0.49583613289E+02  0.43010650712E+02  0.45911986112E+02  0.27498435213E+03  0.26305899085E+03 0.  0.
         25    1    4    4    0    0  0.46020085679E+01  0.32112248795E+02 -0.11574838984E+02  0.12974536602E+03  0.12509000000E+03 0.  0.
         25    1    3    3    0    0 -0.49583613289E+02 -0.43010650712E+02 -0.13545208423E+03  0.19571209979E+03  0.12509000000E+03 0.  0.
         25    1    4    4    0    0  0.44981604721E+02  0.10898401916E+02  0.57486825096E+02  0.14523898611E+03  0.12509000000E+03 0.  0.
<mgrwt>
<rscale>  2 0.46210142E+03</rscale>
<asrwt>0</asrwt>
<pdfrwt beam="1">  1       21 0.28026203E-01 0.46210142E+03</pdfrwt>
<pdfrwt beam="2">  1       21 0.41193863E-01 0.46210142E+03</pdfrwt>
<totfact> 0.63715934E+04</totfact>
</mgrwt>
</event>
<event>
 7    0  0.4750554E-002  0.4491201E+03  0.7546771E-02  0.1027985E+00
         21   -1    0    0  502  501  0.00000000000E+00  0.00000000000E+00  0.19485439831E+03  0.19485439831E+03  0.00000000000E+00 0.  1.
         21   -1    0    0  501  502 -0.00000000000E+00 -0.00000000000E+00 -0.25879430723E+03  0.25879430723E+03  0.00000000000E+00 0.  1.
      99926    2    1    2    0    0  0.88817841970E-15  0.00000000000E+00 -0.63939908924E+02  0.45364870554E+03  0.44912006867E+03 0.  0.
      99925    2    3    3    0    0 -0.53013863828E+01  0.38241547672E+02  0.60909066713E+02  0.27274736369E+03  0.26304123123E+03 0.  0.
         25    1    4    4    0    0 -0.17544940575E+02  0.41859785120E+02  0.62456710992E+02  0.14699801154E+03  0.12509000000E+03 0.  0.
         25    1    4    4    0    0  0.12243554193E+02 -0.36182374482E+01 -0.15476442783E+01  0.12574935214E+03  0.12509000000E+03 0.  0.
         25    1    3    3    0    0  0.53013863828E+01 -0.38241547672E+02 -0.12484897564E+03  0.18090134185E+03  0.12509000000E+03 0.  0.
<mgrwt>
<rscale>  2 0.44912007E+03</rscale>
<asrwt>0</asrwt>
<pdfrwt beam="1">  1       21 0.28655059E-01 0.44912007E+03</pdfrwt>
<pdfrwt beam="2">  1       21 0.38057986E-01 0.44912007E+03</pdfrwt>
<totfact> 0.71961535E+04</totfact>
</mgrwt>
</event>
<event>
 7    0  0.4750554E-002  0.4490811E+03  0.7546771E-02  0.1027996E+00
         21   -1    0    0  502  501  0.00000000000E+00  0.00000000000E+00  0.92774746375E+02  0.92774746375E+02  0.00000000000E+00 0. -1.
         21   -1    0    0  501  502 -0.00000000000E+00 -0.00000000000E+00 -0.54345020390E+03  0.54345020390E+03  0.00000000000E+00 0. -1.
      99926    2    1    2    0    0  0.00000000000E+00  0.00000000000E+00 -0.45067545752E+03  0.63622495028E+03  0.44908108326E+03 0.  0.
      99925    2    3    3    0    0 -0.35284626197E+02  0.99064866640E+02 -0.25350091403E+03  0.38013090241E+03  0.26301698977E+03 0.  0.
         25    1    4    4    0    0  0.12975943508E+02  0.76249043155E+02 -0.13858098887E+03  0.20207545687E+03  0.12509000000E+03 0.  0.
         25    1    3    3    0    0  0.35284626197E+02 -0.99064866640E+02 -0.19717454349E+03  0.25609404786E+03  0.12509000000E+03 0.  0.
         25    1    4    4    0    0 -0.48260569705E+02  0.22815823485E+02 -0.11491992516E+03  0.17805544554E+03  0.12509000000E+03 0.  0.
<mgrwt>
<rscale>  2 0.44908108E+03</rscale>
<asrwt>0</asrwt>
<pdfrwt beam="1">  1       21 0.13643346E-01 0.44908108E+03</pdfrwt>
<pdfrwt beam="2">  1       21 0.79919145E-01 0.44908108E+03</pdfrwt>
<totfact> 0.59220381E+04</totfact>
</mgrwt>
</event>
<event>
 7    0  0.4750554E-002  0.4126293E+03  0.7546771E-02  0.1039492E+00
         21   -1    0    0  502  501  0.00000000000E+00  0.00000000000E+00  0.72148254707E+02  0.72148254707E+02  0.00000000000E+00 0. -1.
         21   -1    0    0  501  502 -0.00000000000E+00 -0.00000000000E+00 -0.58997585897E+03  0.58997585897E+03  0.00000000000E+00 0. -1.
      99926    2    1    2    0    0  0.00000000000E+00  0.00000000000E+00 -0.51782760426E+03  0.66212411367E+03  0.41262926965E+03 0.  0.
      99925    2    3    3    0    0 -0.16040312968E+02  0.32238572710E+02 -0.42904711516E+03  0.50456110864E+03  0.26306628084E+03 0.  0.
         25    1    4    4    0    0 -0.20573329419E+02  0.25992327379E+02 -0.28884460070E+03  0.31650841129E+03  0.12509000000E+03 0.  0.
         25    1    3    3    0    0  0.16040312968E+02 -0.32238572710E+02 -0.88780489105E+02  0.15756300504E+03  0.12509000000E+03 0.  0.
         25    1    4    4    0    0  0.45330164512E+01  0.62462453309E+01 -0.14020251446E+03  0.18805269735E+03  0.12509000000E+03 0.  0.
<mgrwt>
<rscale>  2 0.41262927E+03</rscale>
<asrwt>0</asrwt>
<pdfrwt beam="1">  1       21 0.10610038E-01 0.41262927E+03</pdfrwt>
<pdfrwt beam="2">  1       21 0.86761154E-01 0.41262927E+03</pdfrwt>
<totfact> 0.77948558E+04</totfact>
</mgrwt>
</event>
<event>
 7    0  0.4750554E-002  0.4518914E+03  0.7546771E-02  0.1027159E+00
         21   -1    0    0  502  501  0.00000000000E+00  0.00000000000E+00  0.21231928218E+03  0.21231928218E+03  0.00000000000E+00 0.  1.
         21   -1    0    0  501  502 -0.00000000000E+00 -0.00000000000E+00 -0.24044667340E+03  0.24044667340E+03  0.00000000000E+00 0.  1.
      99926    2    1    2    0    0  0.00000000000E+00  0.23314683517E-14 -0.28127391219E+02  0.45276595559E+03  0.45189142546E+03 0.  0.
      99925    2    3    3    0    0  0.95485662022E+02  0.62860850237E+00 -0.72233523226E+02  0.28933166977E+03  0.26339557030E+03 0.  0.
         25    1    4    4    0    0  0.28636187842E+02  0.28011455926E+02 -0.90276297954E+01  0.13165743092E+03  0.12509000000E+03 0.  0.
         25    1    4    4    0    0  0.66849474180E+02 -0.27382847423E+02 -0.63205893431E+02  0.15767423885E+03  0.12509000000E+03 0.  0.
         25    1    3    3    0    0 -0.95485662022E+02 -0.62860850237E+00  0.44106132007E+02  0.16343428582E+03  0.12509000000E+03 0.  0.
<mgrwt>
<rscale>  2 0.45189143E+03</rscale>
<asrwt>0</asrwt>
<pdfrwt beam="1">  1       21 0.31223424E-01 0.45189143E+03</pdfrwt>
<pdfrwt beam="2">  1       21 0.35359805E-01 0.45189143E+03</pdfrwt>
<totfact> 0.70440778E+04</totfact>
</mgrwt>
</event>
<event>
 7    0  0.4750554E-002  0.4588616E+03  0.7546771E-02  0.1025112E+00
         21   -1    0    0  502  501  0.00000000000E+00  0.00000000000E+00  0.11407796992E+03  0.11407796992E+03  0.00000000000E+00 0.  1.
         21   -1    0    0  501  502 -0.00000000000E+00 -0.00000000000E+00 -0.46142552886E+03  0.46142552886E+03  0.00000000000E+00 0.  1.
      99926    2    1    2    0    0  0.00000000000E+00  0.00000000000E+00 -0.34734755894E+03  0.57550349878E+03  0.45886158087E+03 0.  0.
      99925    2    3    3    0    0 -0.56517813276E+02 -0.37162539275E+02 -0.98482433627E+02  0.28887363948E+03  0.26300926278E+03 0.  0.
         25    1    4    4    0    0 -0.36411024152E+02  0.21100463667E+02 -0.43274673311E+02  0.13889275610E+03  0.12509000000E+03 0.  0.
         25    1    3    3    0    0  0.56517813276E+02  0.37162539275E+02 -0.24886512532E+03  0.28662985930E+03  0.12509000000E+03 0.  0.
         25    1    4    4    0    0 -0.20106789124E+02 -0.58263002941E+02 -0.55207760316E+02  0.14998088338E+03  0.12509000000E+03 0.  0.
<mgrwt>
<rscale>  2 0.45886158E+03</rscale>
<asrwt>0</asrwt>
<pdfrwt beam="1">  1       21 0.16776172E-01 0.45886158E+03</pdfrwt>
<pdfrwt beam="2">  1       21 0.67856696E-01 0.45886158E+03</pdfrwt>
<totfact> 0.58408123E+04</totfact>
</mgrwt>
</event>
<event>
 7    0  0.4750554E-002  0.4699659E+03  0.7546771E-02  0.1021930E+00
         21   -1    0    0  502  501  0.00000000000E+00  0.00000000000E+00  0.49693741436E+02  0.49693741436E+02  0.00000000000E+00 0.  1.
         21   -1    0    0  501  502 -0.00000000000E+00 -0.00000000000E+00 -0.11111456706E+04  0.11111456706E+04  0.00000000000E+00 0.  1.
      99926    2    1    2    0    0  0.00000000000E+00 -0.35527136788E-14 -0.10614519292E+04  0.11608394120E+04  0.46996589516E+03 0.  0.
      99925    2    3    3    0    0  0.10492878047E+03 -0.14522380232E+02 -0.48764471647E+03  0.56407884536E+03  0.26299548624E+03 0.  0.
         25    1    3    3    0    0 -0.10492878047E+03  0.14522380232E+02 -0.57380721270E+03  0.59676056668E+03  0.12509000000E+03 0.  0.
         25    1    4    4    0    0  0.41406923580E+02  0.32205978863E+02 -0.23582447208E+03  0.27205228932E+03  0.12509000000E+03 0.  0.
         25    1    4    4    0    0  0.63521856888E+02 -0.46728359095E+02 -0.25182024439E+03  0.29202655604E+03  0.12509000000E+03 0.  0.
<mgrwt>
<rscale>  2 0.46996590E+03</rscale>
<asrwt>0</asrwt>
<pdfrwt beam="1">  1       21 0.73079039E-02 0.46996590E+03</pdfrwt>
<pdfrwt beam="2">  1       21 0.16340376E+00 0.46996590E+03</pdfrwt>
<totfact> 0.29793150E+04</totfact>
</mgrwt>
</event>
<event>
 7    0  0.4750554E-002  0.4692696E+03  0.7546771E-02  0.1022127E+00
         21   -1    0    0  502  501  0.00000000000E+00  0.00000000000E+00  0.10626785693E+04  0.10626785693E+04  0.00000000000E+00 0. -1.
         21   -1    0    0  501  502 -0.00000000000E+00 -0.00000000000E+00 -0.51806340080E+02  0.51806340080E+02  0.00000000000E+00 0. -1.
      99926    2    1    2    0    0  0.00000000000E+00 -0.17763568394E-14  0.10108722292E+04  0.11144849094E+04  0.46926959142E+03 0.  0.
      99925    2    3    3    0    0 -0.11778532340E+03 -0.11921388646E+02  0.52483280945E+03  0.59883257730E+03  0.26293625813E+03 0.  0.
         25    1    4    4    0    0 -0.97607185401E+02 -0.21202939829E+02  0.26482466243E+03  0.30944520877E+03  0.12509000000E+03 0.  0.
         25    1    3    3    0    0  0.11778532340E+03  0.11921388646E+02  0.48603941980E+03  0.51565233211E+03  0.12509000000E+03 0.  0.
         25    1    4    4    0    0 -0.20178137998E+02  0.92815511831E+01  0.26000814703E+03  0.28938736853E+03  0.12509000000E+03 0.  0.
<mgrwt>
<rscale>  2 0.46926959E+03</rscale>
<asrwt>0</asrwt>
<pdfrwt beam="1">  1       21 0.15627625E+00 0.46926959E+03</pdfrwt>
<pdfrwt beam="2">  1       21 0.76185801E-02 0.46926959E+03</pdfrwt>
<totfact> 0.31354130E+04</totfact>
</mgrwt>
</event>
<event>
 7    0  0.4750554E-002  0.4326671E+03  0.7546771E-02  0.1033021E+00
         21   -1    0    0  502  501  0.00000000000E+00  0.00000000000E+00  0.53238172880E+03  0.53238172880E+03  0.00000000000E+00 0.  1.
         21   -1    0    0  501  502 -0.00000000000E+00 -0.00000000000E+00 -0.87907247254E+02  0.87907247254E+02  0.00000000000E+00 0.  1.
      99926    2    1    2    0    0  0.00000000000E+00  0.00000000000E+00  0.44447448155E+03  0.62028897605E+03  0.43266713426E+03 0.  0.
      99925    2    3    3    0    0  0.77170913820E+02 -0.35592305080E+02  0.33079010911E+03  0.43109646363E+03  0.26305874353E+03 0.  0.
         25    1    4    4    0    0  0.63705368894E+02 -0.43838650602E+02  0.21090362495E+03  0.25711485455E+03  0.12509000000E+03 0.  0.
         25    1    3    3    0    0 -0.77170913820E+02  0.35592305080E+02  0.11368437243E+03  0.18919251242E+03  0.12509000000E+03 0.  0.
         25    1    4    4    0    0  0.13465544926E+02  0.82463455225E+01  0.11988648416E+03  0.17398160908E+03  0.12509000000E+03 0.  0.
<mgrwt>
<rscale>  2 0.43266713E+03</rscale>
<asrwt>0</asrwt>
<pdfrwt beam="1">  1       21 0.78291429E-01 0.43266713E+03</pdfrwt>
<pdfrwt beam="2">  1       21 0.12927537E-01 0.43266713E+03</pdfrwt>
<totfact> 0.68798251E+04</totfact>
</mgrwt>
</event>
<event>
 7    0  0.4750554E-002  0.4530895E+03  0.7546771E-02  0.1026805E+00
         21   -1    0    0  502  501  0.00000000000E+00  0.00000000000E+00  0.87799618221E+02  0.87799618221E+02  0.00000000000E+00 0. -1.
         21   -1    0    0  501  502 -0.00000000000E+00 -0.00000000000E+00 -0.58454147661E+03  0.58454147661E+03  0.00000000000E+00 0. -1.
      99926    2    1    2    0    0  0.00000000000E+00  0.00000000000E+00 -0.49674185839E+03  0.67234109483E+03  0.45308947673E+03 0.  0.
      99925    2    3    3    0    0  0.97672602101E+02 -0.49247968256E+01 -0.39007574940E+03  0.48105764617E+03  0.26399465495E+03 0.  0.
         25    1    3    3    0    0 -0.97672602101E+02  0.49247968256E+01 -0.10666610899E+03  0.19128344866E+03  0.12509000000E+03 0.  0.
         25    1    4    4    0    0  0.13036654144E+02 -0.23402433468E+02 -0.20256095671E+03  0.23957478483E+03  0.12509000000E+03 0.  0.
         25    1    4    4    0    0  0.84635947958E+02  0.18477636642E+02 -0.18751479269E+03  0.24148286134E+03  0.12509000000E+03 0.  0.
<mgrwt>
<rscale>  2 0.45308948E+03</rscale>
<asrwt>0</asrwt>
<pdfrwt beam="1">  1       21 0.12911709E-01 0.45308948E+03</pdfrwt>
<pdfrwt beam="2">  1       21 0.85961981E-01 0.45308948E+03</pdfrwt>
<totfact> 0.55258196E+04</totfact>
</mgrwt>
</event>
<event>
 7    0  0.4750554E-002  0.4560325E+03  0.7546771E-02  0.1025938E+00
         21   -1    0    0  502  501  0.00000000000E+00  0.00000000000E+00  0.44744999562E+02  0.44744999562E+02  0.00000000000E+00 0. -1.
         21   -1    0    0  501  502 -0.00000000000E+00 -0.00000000000E+00 -0.11619490627E+04  0.11619490627E+04  0.00000000000E+00 0. -1.
      99926    2    1    2    0    0  0.00000000000E+00 -0.35527136788E-14 -0.11172040632E+04  0.12066940623E+04  0.45603250017E+03 0.  0.
      99925    2    3    3    0    0  0.10183778041E+03  0.18276345081E+02 -0.82957731444E+03  0.87641900572E+03  0.26307184314E+03 0.  0.
         25    1    3    3    0    0 -0.10183778041E+03 -0.18276345081E+02 -0.28762674875E+03  0.33027505659E+03  0.12509000000E+03 0.  0.
         25    1    4    4    0    0  0.62549283321E+02  0.48001414652E+02 -0.41178179983E+03  0.43752520776E+03  0.12509000000E+03 0.  0.
         25    1    4    4    0    0  0.39288497090E+02 -0.29725069571E+02 -0.41779551460E+03  0.43889379796E+03  0.12509000000E+03 0.  0.
<mgrwt>
<rscale>  2 0.45603250E+03</rscale>
<asrwt>0</asrwt>
<pdfrwt beam="1">  1       21 0.65801473E-02 0.45603250E+03</pdfrwt>
<pdfrwt beam="2">  1       21 0.17087485E+00 0.45603250E+03</pdfrwt>
<totfact> 0.31688876E+04</totfact>
</mgrwt>
</event>
<event>
 7    0  0.4750554E-002  0.4517818E+03  0.7546771E-02  0.1027192E+00
         21   -1    0    0  502  501  0.00000000000E+00  0.00000000000E+00  0.43493822320E+03  0.43493822320E+03  0.00000000000E+00 0.  1.
         21   -1    0    0  501  502 -0.00000000000E+00 -0.00000000000E+00 -0.11731939091E+03  0.11731939091E+03  0.00000000000E+00 0.  1.
      99926    2    1    2    0    0 -0.71054273576E-14  0.00000000000E+00  0.31761883229E+03  0.55225761411E+03  0.45178175009E+03 0.  0.
      99925    2    3    3    0    0  0.56065553231E+02  0.16565001894E+02  0.86297886105E+02  0.28286081793E+03  0.26295469501E+03 0.  0.
         25    1    4    4    0    0  0.28156608868E+01  0.20864052588E+02  0.10839057349E+02  0.12731154661E+03  0.12509000000E+03 0.  0.
         25    1    3    3    0    0 -0.56065553231E+02 -0.16565001894E+02  0.23132094618E+03  0.26939679618E+03  0.12509000000E+03 0.  0.
         25    1    4    4    0    0  0.53249892345E+02 -0.42990506948E+01  0.75458828756E+02  0.15554927132E+03  0.12509000000E+03 0.  0.
<mgrwt>
<rscale>  2 0.45178175E+03</rscale>
<asrwt>0</asrwt>
<pdfrwt beam="1">  1       21 0.63961503E-01 0.45178175E+03</pdfrwt>
<pdfrwt beam="2">  1       21 0.17252852E-01 0.45178175E+03</pdfrwt>
<totfact> 0.63314276E+04</totfact>
</mgrwt>
</event>
<event>
 7    0  0.4750554E-002  0.4605768E+03  0.7546771E-02  0.1024614E+00
         21   -1    0    0  502  501  0.00000000000E+00  0.00000000000E+00  0.11436798367E+04  0.11436798367E+04  0.00000000000E+00 0. -1.
         21   -1    0    0  501  502 -0.00000000000E+00 -0.00000000000E+00 -0.46370282298E+02  0.46370282298E+02  0.00000000000E+00 0. -1.
      99926    2    1    2    0    0 -0.14210854715E-13  0.00000000000E+00  0.10973095544E+04  0.11900501190E+04  0.46057684217E+03 0.  0.
      99925    2    3    3    0    0  0.97804391856E+02  0.36081206794E+02  0.83178427215E+03  0.87857181130E+03  0.26297490310E+03 0.  0.
         25    1    4    4    0    0  0.96394027726E+01  0.92031603452E+01  0.42056850035E+03  0.43897948453E+03  0.12509000000E+03 0.  0.
         25    1    3    3    0    0 -0.97804391856E+02 -0.36081206794E+02  0.26552528222E+03  0.31147830767E+03  0.12509000000E+03 0.  0.
         25    1    4    4    0    0  0.88164989084E+02  0.26878046448E+02  0.41121577180E+03  0.43959232677E+03  0.12509000000E+03 0.  0.
<mgrwt>
<rscale>  2 0.46057684E+03</rscale>
<asrwt>0</asrwt>
<pdfrwt beam="1">  1       21 0.16818819E+00 0.46057684E+03</pdfrwt>
<pdfrwt beam="2">  1       21 0.68191599E-02 0.46057684E+03</pdfrwt>
<totfact> 0.31099570E+04</totfact>
</mgrwt>
</event>
<event>
 7    0  0.4750554E-002  0.4574026E+03  0.7546771E-02  0.1025537E+00
         21   -1    0    0  502  501  0.00000000000E+00  0.00000000000E+00  0.27798167273E+03  0.27798167273E+03  0.00000000000E+00 0.  1.
         21   -1    0    0  501  502 -0.00000000000E+00 -0.00000000000E+00 -0.18815733703E+03  0.18815733703E+03  0.00000000000E+00 0.  1.
      99926    2    1    2    0    0  0.00000000000E+00  0.00000000000E+00  0.89824335695E+02  0.46613900976E+03  0.45740262913E+03 0.  0.
      99925    2    3    3    0    0  0.92788159961E+02 -0.66825452884E+02  0.41814879589E+02  0.28999219668E+03  0.26319518650E+03 0.  0.
         25    1    3    3    0    0 -0.92788159961E+02  0.66825452884E+02  0.48009456106E+02  0.17614681308E+03  0.12509000000E+03 0.  0.
         25    1    4    4    0    0  0.77034520947E+02 -0.68301622054E+01  0.15157075754E+02  0.14784523523E+03  0.12509000000E+03 0.  0.
         25    1    4    4    0    0  0.15753639014E+02 -0.59995290679E+02  0.26657803835E+02  0.14214696146E+03  0.12509000000E+03 0.  0.
<mgrwt>
<rscale>  2 0.45740263E+03</rscale>
<asrwt>0</asrwt>
<pdfrwt beam="1">  1       21 0.40879658E-01 0.45740263E+03</pdfrwt>
<pdfrwt beam="2">  1       21 0.27670196E-01 0.45740263E+03</pdfrwt>
<totfact> 0.66447565E+04</totfact>
</mgrwt>
</event>
<event>
 7    0  0.4750554E-002  0.4600268E+03  0.7546771E-02  0.1024773E+00
         21   -1    0    0  502  501  0.00000000000E+00  0.00000000000E+00  0.19389351120E+03  0.19389351120E+03  0.00000000000E+00 0.  1.
         21   -1    0    0  501  502 -0.00000000000E+00 -0.00000000000E+00 -0.27286192738E+03  0.27286192738E+03  0.00000000000E+00 0.  1.
      99926    2    1    2    0    0  0.14210854715E-13  0.00000000000E+00 -0.78968416182E+02  0.46675543857E+03  0.46002676953E+03 0.  0.
      99925    2    3    3    0    0 -0.11243726967E+03  0.11805837837E+02 -0.16895345852E+02  0.28708326049E+03  0.26334355569E+03 0.  0.
         25    1    3    3    0    0  0.11243726967E+03 -0.11805837837E+02 -0.62073070330E+02  0.17967217809E+03  0.12509000000E+03 0.  0.
         25    1    4    4    0    0 -0.34065746169E+02  0.37695526176E+02  0.76003667498E+01  0.13522833072E+03  0.12509000000E+03 0.  0.
         25    1    4    4    0    0 -0.78371523501E+02 -0.25889688339E+02 -0.24495712602E+02  0.15185492977E+03  0.12509000000E+03 0.  0.
<mgrwt>
<rscale>  2 0.46002677E+03</rscale>
<asrwt>0</asrwt>
<pdfrwt beam="1">  1       21 0.28513752E-01 0.46002677E+03</pdfrwt>
<pdfrwt beam="2">  1       21 0.40126754E-01 0.46002677E+03</pdfrwt>
<totfact> 0.65041840E+04</totfact>
</mgrwt>
</event>
<event>
 7    0  0.4750554E-002  0.4512776E+03  0.7546771E-02  0.1027342E+00
         21   -1    0    0  502  501  0.00000000000E+00  0.00000000000E+00  0.40554521935E+03  0.40554521935E+03  0.00000000000E+00 0.  1.
         21   -1    0    0  501  502 -0.00000000000E+00 -0.00000000000E+00 -0.12554179760E+03  0.12554179760E+03  0.00000000000E+00 0.  1.
      99926    2    1    2    0    0  0.71054273576E-14 -0.14210854715E-13  0.28000342175E+03  0.53108701695E+03  0.45127763448E+03 0.  0.
      99925    2    3    3    0    0 -0.44202640395E+02  0.92889108858E+02  0.13282782474E+03  0.31224820773E+03  0.26319850350E+03 0.  0.
         25    1    4    4    0    0 -0.11871832835E+02  0.87530799092E+02  0.67084499190E+02  0.16718378910E+03  0.12509000000E+03 0.  0.
         25    1    4    4    0    0 -0.32330807559E+02  0.53583097653E+01  0.65743325546E+02  0.14506441864E+03  0.12509000000E+03 0.  0.
         25    1    3    3    0    0  0.44202640395E+02 -0.92889108858E+02  0.14717559702E+03  0.21883880922E+03  0.12509000000E+03 0.  0.
<mgrwt>
<rscale>  2 0.45127763E+03</rscale>
<asrwt>0</asrwt>
<pdfrwt beam="1">  1       21 0.59639003E-01 0.45127763E+03</pdfrwt>
<pdfrwt beam="2">  1       21 0.18462029E-01 0.45127763E+03</pdfrwt>
<totfact> 0.65028862E+04</totfact>
</mgrwt>
</event>
<event>
 7    0  0.4750554E-002  0.4538067E+03  0.7546771E-02  0.1026593E+00
         21   -1    0    0  502  501  0.00000000000E+00  0.00000000000E+00  0.21247205757E+03  0.21247205757E+03  0.00000000000E+00 0. -1.
         21   -1    0    0  501  502 -0.00000000000E+00 -0.00000000000E+00 -0.24231484435E+03  0.24231484435E+03  0.00000000000E+00 0. -1.
      99926    2    1    2    0    0  0.00000000000E+00  0.00000000000E+00 -0.29842786776E+02  0.45478690192E+03  0.45380671462E+03 0.  0.
      99925    2    3    3    0    0 -0.39800838846E+02 -0.35422676535E+02 -0.11764698903E+03  0.29293524509E+03  0.26292845225E+03 0.  0.
         25    1    3    3    0    0  0.39800838846E+02  0.35422676535E+02  0.87804202251E+02  0.16185165683E+03  0.12509000000E+03 0.  0.
         25    1    4    4    0    0 -0.49352211729E+02 -0.97830245190E+01 -0.89500857338E+02  0.16183096099E+03  0.12509000000E+03 0.  0.
         25    1    4    4    0    0  0.95513728823E+01 -0.25639652016E+02 -0.28146131689E+02  0.13110428410E+03  0.12509000000E+03 0.  0.
<mgrwt>
<rscale>  2 0.45380671E+03</rscale>
<asrwt>0</asrwt>
<pdfrwt beam="1">  1       21 0.31245891E-01 0.45380671E+03</pdfrwt>
<pdfrwt beam="2">  1       21 0.35634536E-01 0.45380671E+03</pdfrwt>
<totfact> 0.69218122E+04</totfact>
</mgrwt>
</event>
<event>
 7    0  0.4750554E-002  0.4527919E+03  0.7546771E-02  0.1026893E+00
         21   -1    0    0  502  501  0.00000000000E+00  0.00000000000E+00  0.22417132639E+03  0.22417132639E+03  0.00000000000E+00 0.  1.
         21   -1    0    0  501  502 -0.00000000000E+00 -0.00000000000E+00 -0.22864262197E+03  0.22864262197E+03  0.00000000000E+00 0.  1.
      99926    2    1    2    0    0  0.00000000000E+00  0.00000000000E+00 -0.44712955774E+01  0.45281394835E+03  0.45279187199E+03 0.  0.
      99925    2    3    3    0    0  0.79617717581E+02 -0.52376839873E+02  0.53734465847E+02  0.28513051724E+03  0.26330534505E+03 0.  0.
         25    1    3    3    0    0 -0.79617717581E+02  0.52376839873E+02 -0.58205761424E+02  0.16768343112E+03  0.12509000000E+03 0.  0.
         25    1    4    4    0    0  0.29378921511E+02 -0.66116810431E+02  0.26243689071E+02  0.14686998661E+03  0.12509000000E+03 0.  0.
         25    1    4    4    0    0  0.50238796070E+02  0.13739970559E+02  0.27490776776E+02  0.13826053063E+03  0.12509000000E+03 0.  0.
<mgrwt>
<rscale>  2 0.45279187E+03</rscale>
<asrwt>0</asrwt>
<pdfrwt beam="1">  1       21 0.32966372E-01 0.45279187E+03</pdfrwt>
<pdfrwt beam="2">  1       21 0.33623915E-01 0.45279187E+03</pdfrwt>
<totfact> 0.69930209E+04</totfact>
</mgrwt>
</event>
<event>
 7    0  0.4750554E-002  0.4574429E+03  0.7546771E-02  0.1025525E+00
         21   -1    0    0  502  501  0.00000000000E+00  0.00000000000E+00  0.12803344733E+04  0.12803344733E+04  0.00000000000E+00 0. -1.
         21   -1    0    0  501  502 -0.00000000000E+00 -0.00000000000E+00 -0.40859248104E+02  0.40859248104E+02  0.00000000000E+00 0. -1.
      99926    2    1    2    0    0  0.00000000000E+00  0.00000000000E+00  0.12394752252E+04  0.13211937214E+04  0.45744290966E+03 0.  0.
      99925    2    3    3    0    0  0.41703814344E+02  0.48074177908E+02  0.10564396782E+04  0.10905427854E+04  0.26299893229E+03 0.  0.
         25    1    4    4    0    0  0.57259292785E+02  0.61167610055E+01  0.54561268399E+03  0.56272262297E+03  0.12509000000E+03 0.  0.
         25    1    3    3    0    0 -0.41703814344E+02 -0.48074177908E+02  0.18303554692E+03  0.23065093594E+03  0.12509000000E+03 0.  0.
         25    1    4    4    0    0 -0.15555478441E+02  0.41957416903E+02  0.51082699426E+03  0.52782016247E+03  0.12509000000E+03 0.  0.
<mgrwt>
<rscale>  2 0.45744291E+03</rscale>
<asrwt>0</asrwt>
<pdfrwt beam="1">  1       21 0.18828446E+00 0.45744291E+03</pdfrwt>
<pdfrwt beam="2">  1       21 0.60087138E-02 0.45744291E+03</pdfrwt>
<totfact> 0.27970258E+04</totfact>
</mgrwt>
</event>
<event>
 7    0  0.4750554E-002  0.4588234E+03  0.7546771E-02  0.1025123E+00
         21   -1    0    0  502  501  0.00000000000E+00  0.00000000000E+00  0.27744899863E+03  0.27744899863E+03  0.00000000000E+00 0. -1.
         21   -1    0    0  501  502 -0.00000000000E+00 -0.00000000000E+00 -0.18969150016E+03  0.18969150016E+03  0.00000000000E+00 0. -1.
      99926    2    1    2    0    0  0.00000000000E+00  0.00000000000E+00  0.87757498478E+02  0.46714049879E+03  0.45882335062E+03 0.  0.
      99925    2    3    3    0    0 -0.29880312633E+02  0.84914261420E+02 -0.20646057006E+02  0.27872047911E+03  0.26297448722E+03 0.  0.
         25    1    4    4    0    0 -0.94337252600E+01  0.79084497660E+02  0.84836218835E+01  0.14853562833E+03  0.12509000000E+03 0.  0.
         25    1    4    4    0    0 -0.20446587373E+02  0.58297637607E+01 -0.29129678890E+02  0.13018485078E+03  0.12509000000E+03 0.  0.
         25    1    3    3    0    0  0.29880312633E+02 -0.84914261420E+02  0.10840355548E+03  0.18842001968E+03  0.12509000000E+03 0.  0.
<mgrwt>
<rscale>  2 0.45882335E+03</rscale>
<asrwt>0</asrwt>
<pdfrwt beam="1">  1       21 0.40801323E-01 0.45882335E+03</pdfrwt>
<pdfrwt beam="2">  1       21 0.27895809E-01 0.45882335E+03</pdfrwt>
<totfact> 0.65633991E+04</totfact>
</mgrwt>
</event>
<event>
 7    0  0.4750554E-002  0.4396967E+03  0.7546771E-02  0.1030840E+00
         21   -1    0    0  502  501  0.00000000000E+00  0.00000000000E+00  0.45353588143E+03  0.45353588143E+03  0.00000000000E+00 0.  1.
         21   -1    0    0  501  502 -0.00000000000E+00 -0.00000000000E+00 -0.10656994274E+03  0.10656994274E+03  0.00000000000E+00 0.  1.
      99926    2    1    2    0    0  0.00000000000E+00  0.00000000000E+00  0.34696593870E+03  0.56010582417E+03  0.43969668142E+03 0.  0.
      99925    2    3    3    0    0  0.37584918614E+02  0.63493575927E+02  0.13896625416E+03  0.30642208965E+03  0.26294261150E+03 0.  0.
         25    1    4    4    0    0 -0.41729059678E+01  0.26358027235E+02  0.10445438916E+03  0.16513747685E+03  0.12509000000E+03 0.  0.
         25    1    4    4    0    0  0.41757824582E+02  0.37135548692E+02  0.34511865001E+02  0.14128461281E+03  0.12509000000E+03 0.  0.
         25    1    3    3    0    0 -0.37584918614E+02 -0.63493575927E+02  0.20799968453E+03  0.25368373451E+03  0.12509000000E+03 0.  0.
<mgrwt>
<rscale>  2 0.43969668E+03</rscale>
<asrwt>0</asrwt>
<pdfrwt beam="1">  1       21 0.66696452E-01 0.43969668E+03</pdfrwt>
<pdfrwt beam="2">  1       21 0.15672051E-01 0.43969668E+03</pdfrwt>
<totfact> 0.69208058E+04</totfact>
</mgrwt>
</event>
<event>
 7    0  0.4750554E-002  0.4667748E+03  0.7546771E-02  0.1022834E+00
         21   -1    0    0  502  501  0.00000000000E+00  0.00000000000E+00  0.37499624588E+02  0.37499624588E+02  0.00000000000E+00 0.  1.
         21   -1    0    0  501  502 -0.00000000000E+00 -0.00000000000E+00 -0.14525394326E+04  0.14525394326E+04  0.00000000000E+00 0.  1.
      99926    2    1    2    0    0  0.00000000000E+00  0.00000000000E+00 -0.14150398080E+04  0.14900390572E+04  0.46677482118E+03 0.  0.
      99925    2    3    3    0    0  0.63323957206E+02 -0.85159803740E+02 -0.10849298211E+04  0.11214169915E+04  0.26313729584E+03 0.  0.
         25    1    4    4    0    0  0.56752493157E+02 -0.66672060524E+02 -0.68973996761E+03  0.70643806533E+03  0.12509000000E+03 0.  0.
         25    1    4    4    0    0  0.65714640492E+01 -0.18487743216E+02 -0.39518985349E+03  0.41497892620E+03  0.12509000000E+03 0.  0.
         25    1    3    3    0    0 -0.63323957206E+02  0.85159803740E+02 -0.33010998694E+03  0.36862206568E+03  0.12509000000E+03 0.  0.
<mgrwt>
<rscale>  2 0.46677482E+03</rscale>
<asrwt>0</asrwt>
<pdfrwt beam="1">  1       21 0.55146500E-02 0.46677482E+03</pdfrwt>
<pdfrwt beam="2">  1       21 0.21360877E+00 0.46677482E+03</pdfrwt>
<totfact> 0.21947327E+04</totfact>
</mgrwt>
</event>
<event>
 7    0  0.4750554E-002  0.4547269E+03  0.7546771E-02  0.1026322E+00
         21   -1    0    0  502  501  0.00000000000E+00  0.00000000000E+00  0.17562802484E+03  0.17562802484E+03  0.00000000000E+00 0. -1.
         21   -1    0    0  501  502 -0.00000000000E+00 -0.00000000000E+00 -0.29433880480E+03  0.29433880480E+03  0.00000000000E+00 0. -1.
      99926    2    1    2    0    0 -0.71054273576E-14  0.14210854715E-13 -0.11871077996E+03  0.46996682964E+03  0.45472691990E+03 0.  0.
      99925    2    3    3    0    0  0.38803970474E+02 -0.64647492120E+02 -0.16158808123E+03  0.31774653721E+03  0.26299640217E+03 0.  0.
         25    1    3    3    0    0 -0.38803970474E+02  0.64647492120E+02  0.42877301275E+02  0.15222029243E+03  0.12509000000E+03 0.  0.
         25    1    4    4    0    0 -0.12541376074E+02 -0.43580523840E+02 -0.53702143995E+02  0.14348510913E+03  0.12509000000E+03 0.  0.
         25    1    4    4    0    0  0.51345346548E+02 -0.21066968280E+02 -0.10788593724E+03  0.17426142808E+03  0.12509000000E+03 0.  0.
<mgrwt>
<rscale>  2 0.45472692E+03</rscale>
<asrwt>0</asrwt>
<pdfrwt beam="1">  1       21 0.25827651E-01 0.45472692E+03</pdfrwt>
<pdfrwt beam="2">  1       21 0.43285118E-01 0.45472692E+03</pdfrwt>
<totfact> 0.67584473E+04</totfact>
</mgrwt>
</event>
<event>
 7    0  0.4750554E-002  0.4641126E+03  0.7546771E-02  0.1023595E+00
         21   -1    0    0  502  501  0.00000000000E+00  0.00000000000E+00  0.67938591724E+02  0.67938591724E+02  0.00000000000E+00 0.  1.
         21   -1    0    0  501  502 -0.00000000000E+00 -0.00000000000E+00 -0.79262941176E+03  0.79262941176E+03  0.00000000000E+00 0.  1.
      99926    2    1    2    0    0 -0.14210854715E-13  0.17763568394E-14 -0.72469082004E+03  0.86056800349E+03  0.46411259838E+03 0.  0.
      99925    2    3    3    0    0 -0.11706264638E+03 -0.46643642711E+01 -0.51276196700E+03  0.58801201599E+03  0.26288377028E+03 0.  0.
         25    1    3    3    0    0  0.11706264638E+03  0.46643642711E+01 -0.21192885304E+03  0.27255598750E+03  0.12509000000E+03 0.  0.
         25    1    4    4    0    0 -0.64130119300E+02  0.14018738241E+02 -0.18532226440E+03  0.23302585051E+03  0.12509000000E+03 0.  0.
         25    1    4    4    0    0 -0.52932527076E+02 -0.18683102512E+02 -0.32743970261E+03  0.35498616549E+03  0.12509000000E+03 0.  0.
<mgrwt>
<rscale>  2 0.46411260E+03</rscale>
<asrwt>0</asrwt>
<pdfrwt beam="1">  1       21 0.99909699E-02 0.46411260E+03</pdfrwt>
<pdfrwt beam="2">  1       21 0.11656314E+00 0.46411260E+03</pdfrwt>
<totfact> 0.41894508E+04</totfact>
</mgrwt>
</event>
<event>
 7    0  0.4750554E-002  0.4553915E+03  0.7546771E-02  0.1026126E+00
         21   -1    0    0  502  501  0.00000000000E+00  0.00000000000E+00  0.54239078915E+03  0.54239078915E+03  0.00000000000E+00 0. -1.
         21   -1    0    0  501  502 -0.00000000000E+00 -0.00000000000E+00 -0.95586722346E+02  0.95586722346E+02  0.00000000000E+00 0. -1.
      99926    2    1    2    0    0  0.00000000000E+00  0.00000000000E+00  0.44680406680E+03  0.63797751149E+03  0.45539151404E+03 0.  0.
      99925    2    3    3    0    0  0.61545210455E+02  0.87991430528E+02  0.22948461482E+03  0.36520369111E+03  0.26302137325E+03 0.  0.
         25    1    3    3    0    0 -0.61545210455E+02 -0.87991430528E+02  0.21731945198E+03  0.27277382038E+03  0.12509000000E+03 0.  0.
         25    1    4    4    0    0  0.69751761121E+02  0.51327362444E+02  0.14108132141E+03  0.20748796029E+03  0.12509000000E+03 0.  0.
         25    1    4    4    0    0 -0.82065506661E+01  0.36664068084E+02  0.88403293413E+02  0.15771573082E+03  0.12509000000E+03 0.  0.
<mgrwt>
<rscale>  2 0.45539151E+03</rscale>
<asrwt>0</asrwt>
<pdfrwt beam="1">  1       21 0.79763350E-01 0.45539151E+03</pdfrwt>
<pdfrwt beam="2">  1       21 0.14056871E-01 0.45539151E+03</pdfrwt>
<totfact> 0.56225543E+04</totfact>
</mgrwt>
</event>
<event>
 7    0  0.4750554E-002  0.4550936E+03  0.7546771E-02  0.1026214E+00
         21   -1    0    0  502  501  0.00000000000E+00  0.00000000000E+00  0.12067292282E+03  0.12067292282E+03  0.00000000000E+00 0.  1.
         21   -1    0    0  501  502 -0.00000000000E+00 -0.00000000000E+00 -0.42907337736E+03  0.42907337736E+03  0.00000000000E+00 0.  1.
      99926    2    1    2    0    0  0.00000000000E+00  0.17763568394E-14 -0.30840045454E+03  0.54974630018E+03  0.45509356643E+03 0.  0.
      99925    2    3    3    0    0  0.49381407534E+02 -0.13769552422E+02 -0.72219175002E+02  0.27761172155E+03  0.26310555813E+03 0.  0.
         25    1    3    3    0    0 -0.49381407534E+02  0.13769552422E+02 -0.23618127954E+03  0.27213457863E+03  0.12509000000E+03 0.  0.
         25    1    4    4    0    0  0.27490941813E+01  0.17987022079E+02 -0.95867843835E+01  0.12676949561E+03  0.12509000000E+03 0.  0.
         25    1    4    4    0    0  0.46632313352E+02 -0.31756574502E+02 -0.62632390618E+02  0.15084222594E+03  0.12509000000E+03 0.  0.
<mgrwt>
<rscale>  2 0.45509357E+03</rscale>
<asrwt>0</asrwt>
<pdfrwt beam="1">  1       21 0.17746018E-01 0.45509357E+03</pdfrwt>
<pdfrwt beam="2">  1       21 0.63099026E-01 0.45509357E+03</pdfrwt>
<totfact> 0.61837489E+04</totfact>
</mgrwt>
</event>
<event>
 7    0  0.4750554E-002  0.4601297E+03  0.7546771E-02  0.1024744E+00
         21   -1    0    0  502  501  0.00000000000E+00  0.00000000000E+00  0.15785456426E+03  0.15785456426E+03  0.00000000000E+00 0.  1.
         21   -1    0    0  501  502 -0.00000000000E+00 -0.00000000000E+00 -0.33530754960E+03  0.33530754960E+03  0.00000000000E+00 0.  1.
      99926    2    1    2    0    0  0.00000000000E+00  0.00000000000E+00 -0.17745298534E+03  0.49316211386E+03  0.46012966492E+03 0.  0.
      99925    2    3    3    0    0  0.41130573279E+02  0.10138145600E+03 -0.15845108260E+03  0.32589435222E+03  0.26292671897E+03 0.  0.
         25    1    4    4    0    0 -0.51869291893E+01  0.17783724623E+02 -0.83548248609E+02  0.15156181261E+03  0.12509000000E+03 0.  0.
         25    1    3    3    0    0 -0.41130573279E+02 -0.10138145600E+03 -0.19001902743E+02  0.16726776165E+03  0.12509000000E+03 0.  0.
         25    1    4    4    0    0  0.46317502468E+02  0.83597731373E+02 -0.74902833992E+02  0.17433253961E+03  0.12509000000E+03 0.  0.
<mgrwt>
<rscale>  2 0.46012966E+03</rscale>
<asrwt>0</asrwt>
<pdfrwt beam="1">  1       21 0.23213906E-01 0.46012966E+03</pdfrwt>
<pdfrwt beam="2">  1       21 0.49309934E-01 0.46012966E+03</pdfrwt>
<totfact> 0.63142969E+04</totfact>
</mgrwt>
</event>
<event>
 7    0  0.4750554E-002  0.4575750E+03  0.7546771E-02  0.1025487E+00
         21   -1    0    0  502  501  0.00000000000E+00  0.00000000000E+00  0.13737912216E+04  0.13737912216E+04  0.00000000000E+00 0. -1.
         21   -1    0    0  501  502 -0.00000000000E+00 -0.00000000000E+00 -0.38101660729E+02  0.38101660729E+02  0.00000000000E+00 0. -1.
      99926    2    1    2    0    0 -0.35527136788E-14  0.28421709430E-13  0.13356895609E+04  0.14118928823E+04  0.45757503008E+03 0.  0.
      99925    2    3    3    0    0  0.27823723199E+02 -0.11027570531E+03  0.77476889931E+03  0.82604786236E+03  0.26297021281E+03 0.  0.
         25    1    4    4    0    0  0.25789141426E+02 -0.21537709969E+02  0.29045179695E+03  0.31802312372E+03  0.12509000000E+03 0.  0.
         25    1    3    3    0    0 -0.27823723199E+02  0.11027570531E+03  0.56092066158E+03  0.58584501999E+03  0.12509000000E+03 0.  0.
         25    1    4    4    0    0  0.20345817734E+01 -0.88737995340E+02  0.48431710235E+03  0.50802473864E+03  0.12509000000E+03 0.  0.
<mgrwt>
<rscale>  2 0.45757503E+03</rscale>
<asrwt>0</asrwt>
<pdfrwt beam="1">  1       21 0.20202809E+00 0.45757503E+03</pdfrwt>
<pdfrwt beam="2">  1       21 0.56031863E-02 0.45757503E+03</pdfrwt>
<totfact> 0.25502669E+04</totfact>
</mgrwt>
</event>
<event>
 7    0  0.4750554E-002  0.4602333E+03  0.7546771E-02  0.1024714E+00
         21   -1    0    0  502  501  0.00000000000E+00  0.00000000000E+00  0.11990550802E+04  0.11990550802E+04  0.00000000000E+00 0.  1.
         21   -1    0    0  501  502 -0.00000000000E+00 -0.00000000000E+00 -0.44162837469E+02  0.44162837469E+02  0.00000000000E+00 0.  1.
      99926    2    1    2    0    0  0.00000000000E+00  0.00000000000E+00  0.11548922428E+04  0.12432179177E+04  0.46023330877E+03 0.  0.
      99925    2    3    3    0    0 -0.11183212860E+03  0.10013223966E+02  0.82282061195E+03  0.87102742114E+03  0.26277046882E+03 0.  0.
         25    1    4    4    0    0 -0.95516196908E+02  0.12832981507E+02  0.50344481201E+03  0.52762886211E+03  0.12509000000E+03 0.  0.
         25    1    3    3    0    0  0.11183212860E+03 -0.10013223966E+02  0.33207163082E+03  0.37219049657E+03  0.12509000000E+03 0.  0.
         25    1    4    4    0    0 -0.16315931692E+02 -0.28197575410E+01  0.31937579994E+03  0.34339855904E+03  0.12509000000E+03 0.  0.
<mgrwt>
<rscale>  2 0.46023331E+03</rscale>
<asrwt>0</asrwt>
<pdfrwt beam="1">  1       21 0.17633161E+00 0.46023331E+03</pdfrwt>
<pdfrwt beam="2">  1       21 0.64945357E-02 0.46023331E+03</pdfrwt>
<totfact> 0.29585540E+04</totfact>
</mgrwt>
</event>
<event>
 7    0  0.4750554E-002  0.4524255E+03  0.7546771E-02  0.1027001E+00
         21   -1    0    0  502  501  0.00000000000E+00  0.00000000000E+00  0.12984790068E+03  0.12984790068E+03  0.00000000000E+00 0.  1.
         21   -1    0    0  501  502 -0.00000000000E+00 -0.00000000000E+00 -0.39409352407E+03  0.39409352407E+03  0.00000000000E+00 0.  1.
      99926    2    1    2    0    0  0.00000000000E+00 -0.35527136788E-14 -0.26424562338E+03  0.52394142475E+03  0.45242553762E+03 0.  0.
      99925    2    3    3    0    0 -0.10656740807E+03 -0.17599368381E+02 -0.13830744766E+03  0.31615720390E+03  0.26298303609E+03 0.  0.
         25    1    4    4    0    0 -0.87041796870E+02 -0.28129623701E+02 -0.55964790915E+02  0.16476381901E+03  0.12509000000E+03 0.  0.
         25    1    3    3    0    0  0.10656740807E+03  0.17599368381E+02 -0.12593817573E+03  0.20778422085E+03  0.12509000000E+03 0.  0.
         25    1    4    4    0    0 -0.19525611197E+02  0.10530255320E+02 -0.82342656742E+02  0.15139338489E+03  0.12509000000E+03 0.  0.
<mgrwt>
<rscale>  2 0.45242554E+03</rscale>
<asrwt>0</asrwt>
<pdfrwt beam="1">  1       21 0.19095279E-01 0.45242554E+03</pdfrwt>
<pdfrwt beam="2">  1       21 0.57954932E-01 0.45242554E+03</pdfrwt>
<totfact> 0.64933600E+04</totfact>
</mgrwt>
</event>
<event>
 7    0  0.4750554E-002  0.4533597E+03  0.7546771E-02  0.1026725E+00
         21   -1    0    0  502  501  0.00000000000E+00  0.00000000000E+00  0.15541295023E+03  0.15541295023E+03  0.00000000000E+00 0.  1.
         21   -1    0    0  501  502 -0.00000000000E+00 -0.00000000000E+00 -0.33062724288E+03  0.33062724288E+03  0.00000000000E+00 0.  1.
      99926    2    1    2    0    0  0.00000000000E+00 -0.71054273576E-14 -0.17521429265E+03  0.48604019311E+03  0.45335970373E+03 0.  0.
      99925    2    3    3    0    0  0.40552125943E+02  0.62211096667E+02 -0.19170012924E+02  0.27270472769E+03  0.26169769514E+03 0.  0.
         25    1    3    3    0    0 -0.40552125943E+02 -0.62211096667E+02 -0.15604427973E+03  0.21333546541E+03  0.12509000000E+03 0.  0.
         25    1    4    4    0    0 -0.18285937254E+02  0.25101223937E+02 -0.78346136527E+01  0.12912527334E+03  0.12509000000E+03 0.  0.
         25    1    4    4    0    0  0.58838063197E+02  0.37109872731E+02 -0.11335399271E+02  0.14357945435E+03  0.12509000000E+03 0.  0.
<mgrwt>
<rscale>  2 0.45335970E+03</rscale>
<asrwt>0</asrwt>
<pdfrwt beam="1">  1       21 0.22854846E-01 0.45335970E+03</pdfrwt>
<pdfrwt beam="2">  1       21 0.48621653E-01 0.45335970E+03</pdfrwt>
<totfact> 0.67132907E+04</totfact>
</mgrwt>
</event>
<event>
 7    0  0.4750554E-002  0.4565172E+03  0.7546771E-02  0.1025796E+00
         21   -1    0    0  502  501  0.00000000000E+00  0.00000000000E+00  0.88131983694E+03  0.88131983694E+03  0.00000000000E+00 0.  1.
         21   -1    0    0  501  502 -0.00000000000E+00 -0.00000000000E+00 -0.59118130827E+02  0.59118130827E+02  0.00000000000E+00 0.  1.
      99926    2    1    2    0    0  0.00000000000E+00 -0.35527136788E-14  0.82220170612E+03  0.94043796777E+03  0.45651716910E+03 0.  0.
      99925    2    3    3    0    0 -0.11354977549E+03 -0.13059875663E+02  0.49959650722E+03  0.57604019840E+03  0.26298579483E+03 0.  0.
         25    1    3    3    0    0  0.11354977549E+03  0.13059875663E+02  0.32260519889E+03  0.36439776937E+03  0.12509000000E+03 0.  0.
         25    1    4    4    0    0 -0.59833121292E+02  0.24439888901E+02  0.30162035094E+03  0.33286582098E+03  0.12509000000E+03 0.  0.
         25    1    4    4    0    0 -0.53716654197E+02 -0.37499764564E+02  0.19797615628E+03  0.24317437743E+03  0.12509000000E+03 0.  0.
<mgrwt>
<rscale>  2 0.45651717E+03</rscale>
<asrwt>0</asrwt>
<pdfrwt beam="1">  1       21 0.12960585E+00 0.45651717E+03</pdfrwt>
<pdfrwt beam="2">  1       21 0.86938433E-02 0.45651717E+03</pdfrwt>
<totfact> 0.41041308E+04</totfact>
</mgrwt>
</event>
<event>
 7    0  0.4750554E-002  0.5050701E+03  0.7546771E-02  0.1012464E+00
         21   -1    0    0  502  501  0.00000000000E+00  0.00000000000E+00  0.38972111471E+03  0.38972111471E+03  0.00000000000E+00 0.  1.
         21   -1    0    0  501  502 -0.00000000000E+00 -0.00000000000E+00 -0.16363999374E+03  0.16363999374E+03  0.00000000000E+00 0.  1.
      99926    2    1    2    0    0  0.00000000000E+00  0.00000000000E+00  0.22608112096E+03  0.55336110845E+03  0.50507013680E+03 0.  0.
      99925    2    3    3    0    0 -0.46537545470E+02 -0.13706267704E+03  0.74834763538E+02  0.30948636742E+03  0.26311527742E+03 0.  0.
         25    1    3    3    0    0  0.46537545470E+02  0.13706267704E+03  0.15124635743E+03  0.24387474103E+03  0.12509000000E+03 0.  0.
         25    1    4    4    0    0 -0.64169364650E+02 -0.66590547939E+02  0.35059031570E+02  0.15946363921E+03  0.12509000000E+03 0.  0.
         25    1    4    4    0    0  0.17631819180E+02 -0.70472129099E+02  0.39775731967E+02  0.15002272821E+03  0.12509000000E+03 0.  0.
<mgrwt>
<rscale>  2 0.50507014E+03</rscale>
<asrwt>0</asrwt>
<pdfrwt beam="1">  1       21 0.57311929E-01 0.50507014E+03</pdfrwt>
<pdfrwt beam="2">  1       21 0.24064705E-01 0.50507014E+03</pdfrwt>
<totfact> 0.42232635E+04</totfact>
</mgrwt>
</event>
<event>
 7    0  0.4750554E-002  0.4570897E+03  0.7546771E-02  0.1025629E+00
         21   -1    0    0  502  501  0.00000000000E+00  0.00000000000E+00  0.11341353816E+03  0.11341353816E+03  0.00000000000E+00 0. -1.
         21   -1    0    0  501  502 -0.00000000000E+00 -0.00000000000E+00 -0.46055132649E+03  0.46055132649E+03  0.00000000000E+00 0. -1.
      99926    2    1    2    0    0  0.00000000000E+00  0.00000000000E+00 -0.34713778833E+03  0.57396486465E+03  0.45708973054E+03 0.  0.
      99925    2    3    3    0    0 -0.59668251134E+02 -0.15950909343E+02 -0.33999408944E+03  0.43427495006E+03  0.26302855300E+03 0.  0.
         25    1    4    4    0    0 -0.20593273040E+02 -0.78114332659E+01 -0.23104948439E+03  0.26365976887E+03  0.12509000000E+03 0.  0.
         25    1    3    3    0    0  0.59668251134E+02  0.15950909343E+02 -0.71436988880E+01  0.13968991458E+03  0.12509000000E+03 0.  0.
         25    1    4    4    0    0 -0.39074978094E+02 -0.81394760776E+01 -0.10894460505E+03  0.17061518120E+03  0.12509000000E+03 0.  0.
<mgrwt>
<rscale>  2 0.45708973E+03</rscale>
<asrwt>0</asrwt>
<pdfrwt beam="1">  1       21 0.16678461E-01 0.45708973E+03</pdfrwt>
<pdfrwt beam="2">  1       21 0.67728137E-01 0.45708973E+03</pdfrwt>
<totfact> 0.59323781E+04</totfact>
</mgrwt>
</event>
<event>
 7    0  0.4750554E-002  0.4558473E+03  0.7546771E-02  0.1025993E+00
         21   -1    0    0  502  501  0.00000000000E+00  0.00000000000E+00  0.40564321096E+02  0.40564321096E+02  0.00000000000E+00 0. -1.
         21   -1    0    0  501  502 -0.00000000000E+00 -0.00000000000E+00 -0.12806622966E+04  0.12806622966E+04  0.00000000000E+00 0. -1.
      99926    2    1    2    0    0  0.00000000000E+00  0.00000000000E+00 -0.12400979755E+04  0.13212266177E+04  0.45584732802E+03 0.  0.
      99925    2    3    3    0    0 -0.19694472508E+02 -0.13855215890E+02 -0.11025771746E+04  0.11337717750E+04  0.26302504194E+03 0.  0.
         25    1    4    4    0    0  0.72509471090E+01 -0.54074612662E+01 -0.38761081782E+03  0.40739596348E+03  0.12509000000E+03 0.  0.
         25    1    3    3    0    0  0.19694472508E+02  0.13855215890E+02 -0.13752080094E+03  0.18745484268E+03  0.12509000000E+03 0.  0.
         25    1    4    4    0    0 -0.26945419617E+02 -0.84477546242E+01 -0.71496635676E+03  0.72637581154E+03  0.12509000000E+03 0.  0.
<mgrwt>
<rscale>  2 0.45584733E+03</rscale>
<asrwt>0</asrwt>
<pdfrwt beam="1">  1       21 0.59653420E-02 0.45584733E+03</pdfrwt>
<pdfrwt beam="2">  1       21 0.18833267E+00 0.45584733E+03</pdfrwt>
<totfact> 0.28317391E+04</totfact>
</mgrwt>
</event>
<event>
 7    0  0.4750554E-002  0.4501086E+03  0.7546771E-02  0.1027690E+00
         21   -1    0    0  502  501  0.00000000000E+00  0.00000000000E+00  0.55602797667E+03  0.55602797667E+03  0.00000000000E+00 0. -1.
         21   -1    0    0  501  502 -0.00000000000E+00 -0.00000000000E+00 -0.91091546632E+02  0.91091546632E+02  0.00000000000E+00 0. -1.
      99926    2    1    2    0    0  0.27755575616E-14  0.00000000000E+00  0.46493643004E+03  0.64711952330E+03  0.45010864629E+03 0.  0.
      99925    2    3    3    0    0  0.74517722089E+00  0.87700228475E+02  0.38574939978E+03  0.47504401887E+03  0.26300634036E+03 0.  0.
         25    1    4    4    0    0  0.28300252417E+02  0.60639001223E+02  0.15795362069E+03  0.21230837747E+03  0.12509000000E+03 0.  0.
         25    1    3    3    0    0 -0.74517722089E+00 -0.87700228475E+02  0.79187030254E+02  0.17207550443E+03  0.12509000000E+03 0.  0.
         25    1    4    4    0    0 -0.27555075196E+02  0.27061227251E+02  0.22779577909E+03  0.26273564140E+03  0.12509000000E+03 0.  0.
<mgrwt>
<rscale>  2 0.45010865E+03</rscale>
<asrwt>0</asrwt>
<pdfrwt beam="1">  1       21 0.81768818E-01 0.45010865E+03</pdfrwt>
<pdfrwt beam="2">  1       21 0.13395816E-01 0.45010865E+03</pdfrwt>
<totfact> 0.58076663E+04</totfact>
</mgrwt>
</event>
<event>
 7    0  0.4750554E-002  0.4576600E+03  0.7546771E-02  0.1025462E+00
         21   -1    0    0  502  501  0.00000000000E+00  0.00000000000E+00  0.48700206592E+02  0.48700206592E+02  0.00000000000E+00 0. -1.
         21   -1    0    0  501  502 -0.00000000000E+00 -0.00000000000E+00 -0.10752143445E+04  0.10752143445E+04  0.00000000000E+00 0. -1.
      99926    2    1    2    0    0  0.69388939039E-15  0.00000000000E+00 -0.10265141379E+04  0.11239145511E+04  0.45765996419E+03 0.  0.
      99925    2    3    3    0    0  0.20113784445E+00  0.25327248583E+02 -0.92149215122E+03  0.95863104989E+03  0.26302888640E+03 0.  0.
         25    1    4    4    0    0 -0.38182319824E+02  0.25251858348E+02 -0.44639515989E+03  0.46584513818E+03  0.12509000000E+03 0.  0.
         25    1    3    3    0    0 -0.20113784445E+00 -0.25327248583E+02 -0.10502198665E+03  0.16528350117E+03  0.12509000000E+03 0.  0.
         25    1    4    4    0    0  0.38383457669E+02  0.75390234902E-01 -0.47509699133E+03  0.49278591171E+03  0.12509000000E+03 0.  0.
<mgrwt>
<rscale>  2 0.45765996E+03</rscale>
<asrwt>0</asrwt>
<pdfrwt beam="1">  1       21 0.71617955E-02 0.45765996E+03</pdfrwt>
<pdfrwt beam="2">  1       21 0.15811975E+00 0.45765996E+03</pdfrwt>
<totfact> 0.33955720E+04</totfact>
</mgrwt>
</event>
<event>
 7    0  0.4750554E-002  0.4571471E+03  0.7546771E-02  0.1025612E+00
         21   -1    0    0  502  501  0.00000000000E+00  0.00000000000E+00  0.32295012444E+03  0.32295012444E+03  0.00000000000E+00 0. -1.
         21   -1    0    0  501  502 -0.00000000000E+00 -0.00000000000E+00 -0.16177685975E+03  0.16177685975E+03  0.00000000000E+00 0. -1.
      99926    2    1    2    0    0  0.00000000000E+00  0.00000000000E+00  0.16117326469E+03  0.48472698419E+03  0.45714705287E+03 0.  0.
      99925    2    3    3    0    0  0.36130717124E+02  0.60523382223E+02  0.45908634851E+01  0.27227919064E+03  0.26295697959E+03 0.  0.
         25    1    4    4    0    0 -0.14915098977E+02  0.34414297961E+02 -0.21134050544E+02  0.13229119500E+03  0.12509000000E+03 0.  0.
         25    1    4    4    0    0  0.51045816101E+02  0.26109084262E+02  0.25724914029E+02  0.13998799564E+03  0.12509000000E+03 0.  0.
         25    1    3    3    0    0 -0.36130717124E+02 -0.60523382223E+02  0.15658240121E+03  0.21244779355E+03  0.12509000000E+03 0.  0.
<mgrwt>
<rscale>  2 0.45714705E+03</rscale>
<asrwt>0</asrwt>
<pdfrwt beam="1">  1       21 0.47492665E-01 0.45714705E+03</pdfrwt>
<pdfrwt beam="2">  1       21 0.23790715E-01 0.45714705E+03</pdfrwt>
<totfact> 0.65238579E+04</totfact>
</mgrwt>
</event>
<event>
 7    0  0.4750554E-002  0.4599036E+03  0.7546771E-02  0.1024809E+00
         21   -1    0    0  502  501  0.00000000000E+00  0.00000000000E+00  0.91038857024E+03  0.91038857024E+03  0.00000000000E+00 0. -1.
         21   -1    0    0  501  502 -0.00000000000E+00 -0.00000000000E+00 -0.58082708543E+02  0.58082708543E+02  0.00000000000E+00 0. -1.
      99926    2    1    2    0    0 -0.14210854715E-13  0.00000000000E+00  0.85230586170E+03  0.96847127878E+03  0.45990361593E+03 0.  0.
      99925    2    3    3    0    0 -0.66859514298E+02  0.86382895526E+02  0.44183450472E+03  0.52567737380E+03  0.26303378580E+03 0.  0.
         25    1    3    3    0    0  0.66859514298E+02 -0.86382895526E+02  0.41047135698E+03  0.44279390499E+03  0.12509000000E+03 0.  0.
         25    1    4    4    0    0 -0.59345640986E+02  0.17908217727E+02  0.18438518971E+03  0.23127476224E+03  0.12509000000E+03 0.  0.
         25    1    4    4    0    0 -0.75138733124E+01  0.68474677800E+02  0.25744931501E+03  0.29440261156E+03  0.12509000000E+03 0.  0.
<mgrwt>
<rscale>  2 0.45990362E+03</rscale>
<asrwt>0</asrwt>
<pdfrwt beam="1">  1       21 0.13388066E+00 0.45990362E+03</pdfrwt>
<pdfrwt beam="2">  1       21 0.85415753E-02 0.45990362E+03</pdfrwt>
<totfact> 0.38889328E+04</totfact>
</mgrwt>
</event>
<event>
 7    0  0.4750554E-002  0.4389478E+03  0.7546771E-02  0.1031070E+00
         21   -1    0    0  502  501  0.00000000000E+00  0.00000000000E+00  0.94893146506E+02  0.94893146506E+02  0.00000000000E+00 0. -1.
         21   -1    0    0  501  502 -0.00000000000E+00 -0.00000000000E+00 -0.50761083477E+03  0.50761083477E+03  0.00000000000E+00 0. -1.
      99926    2    1    2    0    0 -0.35527136788E-14  0.00000000000E+00 -0.41271768826E+03  0.60250398127E+03  0.43894778419E+03 0.  0.
      99925    2    3    3    0    0 -0.20815343697E+02  0.40323838355E+01 -0.39400527553E+03  0.47425733943E+03  0.26311656773E+03 0.  0.
         25    1    4    4    0    0 -0.26561922370E+02 -0.18574770431E+01 -0.13193866293E+03  0.18375065936E+03  0.12509000000E+03 0.  0.
         25    1    4    4    0    0  0.57465786731E+01  0.58898608786E+01 -0.26206661260E+03  0.29050668007E+03  0.12509000000E+03 0.  0.
         25    1    3    3    0    0  0.20815343697E+02 -0.40323838355E+01 -0.18712412735E+02  0.12824664184E+03  0.12509000000E+03 0.  0.
<mgrwt>
<rscale>  2 0.43894778E+03</rscale>
<asrwt>0</asrwt>
<pdfrwt beam="1">  1       21 0.13954874E-01 0.43894778E+03</pdfrwt>
<pdfrwt beam="2">  1       21 0.74648654E-01 0.43894778E+03</pdfrwt>
<totfact> 0.66573611E+04</totfact>
</mgrwt>
</event>
<event>
 7    0  0.4750554E-002  0.4543877E+03  0.7546771E-02  0.1026422E+00
         21   -1    0    0  502  501  0.00000000000E+00  0.00000000000E+00  0.17471486825E+03  0.17471486825E+03  0.00000000000E+00 0.  1.
         21   -1    0    0  501  502 -0.00000000000E+00 -0.00000000000E+00 -0.29543591648E+03  0.29543591648E+03  0.00000000000E+00 0.  1.
      99926    2    1    2    0    0  0.00000000000E+00  0.71054273576E-14 -0.12072104823E+03  0.47015078473E+03  0.45438770768E+03 0.  0.
      99925    2    3    3    0    0  0.66967558034E+02 -0.59312480603E+02 -0.54038500674E+01  0.27793166894E+03  0.26308589247E+03 0.  0.
         25    1    4    4    0    0  0.15514441353E+02  0.87234122773E+01 -0.65771913766E+01  0.12652099967E+03  0.12509000000E+03 0.  0.
         25    1    4    4    0    0  0.51453116681E+02 -0.68035892880E+02  0.11733413092E+01  0.15141066926E+03  0.12509000000E+03 0.  0.
         25    1    3    3    0    0 -0.66967558034E+02  0.59312480603E+02 -0.11531719816E+03  0.19221911579E+03  0.12509000000E+03 0.  0.
<mgrwt>
<rscale>  2 0.45438771E+03</rscale>
<asrwt>0</asrwt>
<pdfrwt beam="1">  1       21 0.25693363E-01 0.45438771E+03</pdfrwt>
<pdfrwt beam="2">  1       21 0.43446458E-01 0.45438771E+03</pdfrwt>
<totfact> 0.67753005E+04</totfact>
</mgrwt>
</event>
<event>
 7    0  0.4750554E-002  0.4500319E+03  0.7546771E-02  0.1027713E+00
         21   -1    0    0  502  501  0.00000000000E+00  0.00000000000E+00  0.26686648598E+03  0.26686648598E+03  0.00000000000E+00 0. -1.
         21   -1    0    0  501  502 -0.00000000000E+00 -0.00000000000E+00 -0.18972846282E+03  0.18972846282E+03  0.00000000000E+00 0. -1.
      99926    2    1    2    0    0  0.00000000000E+00  0.00000000000E+00  0.77138023164E+02  0.45659494880E+03  0.45003185738E+03 0.  0.
      99925    2    3    3    0    0  0.99241412340E+02  0.21103857646E+02  0.87580280985E+02  0.29519240985E+03  0.26300954828E+03 0.  0.
         25    1    4    4    0    0  0.48509485615E+02  0.13160753202E+02  0.86109641874E+02  0.15996485284E+03  0.12509000000E+03 0.  0.
         25    1    3    3    0    0 -0.99241412340E+02 -0.21103857646E+02 -0.10442257821E+02  0.16140253895E+03  0.12509000000E+03 0.  0.
         25    1    4    4    0    0  0.50731926725E+02  0.79431044442E+01  0.14706391114E+01  0.13522755702E+03  0.12509000000E+03 0.  0.
<mgrwt>
<rscale>  2 0.45003186E+03</rscale>
<asrwt>0</asrwt>
<pdfrwt beam="1">  1       21 0.39245071E-01 0.45003186E+03</pdfrwt>
<pdfrwt beam="2">  1       21 0.27901245E-01 0.45003186E+03</pdfrwt>
<totfact> 0.71208919E+04</totfact>
</mgrwt>
</event>
<event>
 7    0  0.4750554E-002  0.4376841E+03  0.7546771E-02  0.1031460E+00
         21   -1    0    0  502  501  0.00000000000E+00  0.00000000000E+00  0.40075947080E+03  0.40075947080E+03  0.00000000000E+00 0.  1.
         21   -1    0    0  501  502 -0.00000000000E+00 -0.00000000000E+00 -0.11950272514E+03  0.11950272514E+03  0.00000000000E+00 0.  1.
      99926    2    1    2    0    0  0.00000000000E+00  0.00000000000E+00  0.28125674566E+03  0.52026219594E+03  0.43768412758E+03 0.  0.
      99925    2    3    3    0    0  0.10280164967E+02 -0.81064339709E+01  0.29300452021E+03  0.39394151524E+03  0.26299595530E+03 0.  0.
         25    1    3    3    0    0 -0.10280164967E+02  0.81064339709E+01 -0.11747774551E+02  0.12632068069E+03  0.12509000000E+03 0.  0.
         25    1    4    4    0    0  0.14660691508E+01  0.10848789972E+02  0.20198886228E+03  0.23783787374E+03  0.12509000000E+03 0.  0.
         25    1    4    4    0    0  0.88140958166E+01 -0.18955223943E+02  0.91015657936E+02  0.15610364150E+03  0.12509000000E+03 0.  0.
<mgrwt>
<rscale>  2 0.43768413E+03</rscale>
<asrwt>0</asrwt>
<pdfrwt beam="1">  1       21 0.58935216E-01 0.43768413E+03</pdfrwt>
<pdfrwt beam="2">  1       21 0.17573930E-01 0.43768413E+03</pdfrwt>
<totfact> 0.73437860E+04</totfact>
</mgrwt>
</event>
<event>
 7    0  0.4750554E-002  0.4553480E+03  0.7546771E-02  0.1026139E+00
         21   -1    0    0  502  501  0.00000000000E+00  0.00000000000E+00  0.11654336049E+03  0.11654336049E+03  0.00000000000E+00 0. -1.
         21   -1    0    0  501  502 -0.00000000000E+00 -0.00000000000E+00 -0.44477398647E+03  0.44477398647E+03  0.00000000000E+00 0. -1.
      99926    2    1    2    0    0  0.00000000000E+00 -0.71054273576E-14 -0.32823062598E+03  0.56131734696E+03  0.45534802093E+03 0.  0.
      99925    2    3    3    0    0 -0.96168946049E+02 -0.58797429565E+02 -0.22305210580E+03  0.36278363921E+03  0.26297171533E+03 0.  0.
         25    1    3    3    0    0  0.96168946049E+02  0.58797429565E+02 -0.10517852018E+03  0.19853370776E+03  0.12509000000E+03 0.  0.
         25    1    4    4    0    0 -0.21215286653E+02 -0.53218557545E+02 -0.13265170424E+03  0.19111851295E+03  0.12509000000E+03 0.  0.
         25    1    4    4    0    0 -0.74953659396E+02 -0.55788720203E+01 -0.90400401565E+02  0.17166512626E+03  0.12509000000E+03 0.  0.
<mgrwt>
<rscale>  2 0.45534802E+03</rscale>
<asrwt>0</asrwt>
<pdfrwt beam="1">  1       21 0.17138730E-01 0.45534802E+03</pdfrwt>
<pdfrwt beam="2">  1       21 0.65407938E-01 0.45534802E+03</pdfrwt>
<totfact> 0.60956821E+04</totfact>
</mgrwt>
</event>
<event>
 7    0  0.4750554E-002  0.4557835E+03  0.7546771E-02  0.1026011E+00
         21   -1    0    0  502  501  0.00000000000E+00  0.00000000000E+00  0.25866759746E+03  0.25866759746E+03  0.00000000000E+00 0. -1.
         21   -1    0    0  501  502 -0.00000000000E+00 -0.00000000000E+00 -0.20077754648E+03  0.20077754648E+03  0.00000000000E+00 0. -1.
      99926    2    1    2    0    0  0.00000000000E+00  0.00000000000E+00  0.57890050976E+02  0.45944514394E+03  0.45578348181E+03 0.  0.
      99925    2    3    3    0    0  0.48513150422E+02  0.24867533812E+02  0.13721365904E+03  0.30161085458E+03  0.26300113948E+03 0.  0.
         25    1    4    4    0    0  0.65724189123E+01  0.28085543264E+02  0.30637632815E+02  0.13197790374E+03  0.12509000000E+03 0.  0.
         25    1    4    4    0    0  0.41940731510E+02 -0.32180094516E+01  0.10657602622E+03  0.16963295084E+03  0.12509000000E+03 0.  0.
         25    1    3    3    0    0 -0.48513150422E+02 -0.24867533812E+02 -0.79323608064E+02  0.15783428936E+03  0.12509000000E+03 0.  0.
<mgrwt>
<rscale>  2 0.45578348E+03</rscale>
<asrwt>0</asrwt>
<pdfrwt beam="1">  1       21 0.38039353E-01 0.45578348E+03</pdfrwt>
<pdfrwt beam="2">  1       21 0.29526110E-01 0.45578348E+03</pdfrwt>
<totfact> 0.67796405E+04</totfact>
</mgrwt>
</event>
<event>
 7    0  0.4750554E-002  0.4402013E+03  0.7546771E-02  0.1030685E+00
         21   -1    0    0  502  501  0.00000000000E+00  0.00000000000E+00  0.14626403053E+04  0.14626403053E+04  0.00000000000E+00 0. -1.
         21   -1    0    0  501  502 -0.00000000000E+00 -0.00000000000E+00 -0.33121121157E+02  0.33121121157E+02  0.00000000000E+00 0. -1.
      99926    2    1    2    0    0  0.00000000000E+00  0.00000000000E+00  0.14295191842E+04  0.14957614265E+04  0.44020125743E+03 0.  0.
      99925    2    3    3    0    0 -0.35076366251E+02 -0.92019668802E+02  0.90615903576E+03  0.94872274050E+03  0.26315901911E+03 0.  0.
         25    1    3    3    0    0  0.35076366251E+02  0.92019668802E+02  0.52336014841E+03  0.54703868598E+03  0.12509000000E+03 0.  0.
         25    1    4    4    0    0 -0.10709591197E+02 -0.40863328082E+01  0.37698982917E+03  0.39736662272E+03  0.12509000000E+03 0.  0.
         25    1    4    4    0    0 -0.24366775054E+02 -0.87933335994E+02  0.52916920659E+03  0.55135611778E+03  0.12509000000E+03 0.  0.
<mgrwt>
<rscale>  2 0.44020126E+03</rscale>
<asrwt>0</asrwt>
<pdfrwt beam="1">  1       21 0.21509412E+00 0.44020126E+03</pdfrwt>
<pdfrwt beam="2">  1       21 0.48707541E-02 0.44020126E+03</pdfrwt>
<totfact> 0.26838285E+04</totfact>
</mgrwt>
</event>
<event>
 7    0  0.4750554E-002  0.4492790E+03  0.7546771E-02  0.1027937E+00
         21   -1    0    0  502  501  0.00000000000E+00  0.00000000000E+00  0.66119029465E+03  0.66119029465E+03  0.00000000000E+00 0. -1.
         21   -1    0    0  501  502 -0.00000000000E+00 -0.00000000000E+00 -0.76321307655E+02  0.76321307655E+02  0.00000000000E+00 0. -1.
      99926    2    1    2    0    0  0.00000000000E+00  0.00000000000E+00  0.58486898699E+03  0.73751160230E+03  0.44927901307E+03 0.  0.
      99925    2    3    3    0    0  0.33595142789E+02  0.21798814755E+02  0.20550808963E+03  0.33605672253E+03  0.26286255707E+03 0.  0.
         25    1    4    4    0    0  0.24726059402E+02  0.33012142308E+02  0.63341473017E+02  0.14615344627E+03  0.12509000000E+03 0.  0.
         25    1    4    4    0    0  0.88690833873E+01 -0.11213327554E+02  0.14216661661E+03  0.18990327626E+03  0.12509000000E+03 0.  0.
         25    1    3    3    0    0 -0.33595142789E+02 -0.21798814755E+02  0.37936089736E+03  0.40145487977E+03  0.12509000000E+03 0.  0.
<mgrwt>
<rscale>  2 0.44927901E+03</rscale>
<asrwt>0</asrwt>
<pdfrwt beam="1">  1       21 0.97233864E-01 0.44927901E+03</pdfrwt>
<pdfrwt beam="2">  1       21 0.11223722E-01 0.44927901E+03</pdfrwt>
<totfact> 0.53269008E+04</totfact>
</mgrwt>
</event>
<event>
 7    0  0.4750554E-002  0.4572870E+03  0.7546771E-02  0.1025571E+00
         21   -1    0    0  502  501  0.00000000000E+00  0.00000000000E+00  0.27743530694E+02  0.27743530694E+02  0.00000000000E+00 0. -1.
         21   -1    0    0  501  502 -0.00000000000E+00 -0.00000000000E+00 -0.18843256556E+04  0.18843256556E+04  0.00000000000E+00 0. -1.
      99926    2    1    2    0    0 -0.14210854715E-13 -0.17763568394E-14 -0.18565821249E+04  0.19120691863E+04  0.45728698501E+03 0.  0.
      99925    2    3    3    0    0 -0.11228101310E+03 -0.41980812467E+01 -0.12734478457E+04  0.13051773134E+04  0.26304705609E+03 0.  0.
         25    1    3    3    0    0  0.11228101310E+03  0.41980812467E+01 -0.58313427920E+03  0.60689187296E+03  0.12509000000E+03 0.  0.
         25    1    4    4    0    0 -0.73046529331E+02 -0.38990797386E+02 -0.63464487143E+03  0.65213319089E+03  0.12509000000E+03 0.  0.
         25    1    4    4    0    0 -0.39234483768E+02  0.34792716140E+02 -0.63880297432E+03  0.65304412248E+03  0.12509000000E+03 0.  0.
<mgrwt>
<rscale>  2 0.45728699E+03</rscale>
<asrwt>0</asrwt>
<pdfrwt beam="1">  1       21 0.40799301E-02 0.45728699E+03</pdfrwt>
<pdfrwt beam="2">  1       21 0.27710678E+00 0.45728699E+03</pdfrwt>
<totfact> 0.14932129E+04</totfact>
</mgrwt>
</event>
<event>
 7    0  0.4750554E-002  0.4523633E+03  0.7546771E-02  0.1027020E+00
         21   -1    0    0  502  501  0.00000000000E+00  0.00000000000E+00  0.30062601995E+03  0.30062601995E+03  0.00000000000E+00 0. -1.
         21   -1    0    0  501  502 -0.00000000000E+00 -0.00000000000E+00 -0.17017206216E+03  0.17017206216E+03  0.00000000000E+00 0. -1.
      99926    2    1    2    0    0  0.00000000000E+00  0.00000000000E+00  0.13045395779E+03  0.47079808211E+03  0.45236334845E+03 0.  0.
      99925    2    3    3    0    0  0.98250983952E+02 -0.34041466068E+02  0.43092086072E+02  0.28615875264E+03  0.26309280980E+03 0.  0.
         25    1    4    4    0    0  0.32196114544E+02 -0.49696826498E+02  0.35428499040E+01  0.13844285551E+03  0.12509000000E+03 0.  0.
         25    1    4    4    0    0  0.66054869408E+02  0.15655360430E+02  0.39549236168E+02  0.14771589713E+03  0.12509000000E+03 0.  0.
         25    1    3    3    0    0 -0.98250983952E+02  0.34041466068E+02  0.87361871718E+02  0.18463932948E+03  0.12509000000E+03 0.  0.
<mgrwt>
<rscale>  2 0.45236335E+03</rscale>
<asrwt>0</asrwt>
<pdfrwt beam="1">  1       21 0.44209709E-01 0.45236335E+03</pdfrwt>
<pdfrwt beam="2">  1       21 0.25025303E-01 0.45236335E+03</pdfrwt>
<totfact> 0.68804563E+04</totfact>
</mgrwt>
</event>
<event>
 7    0  0.4750554E-002  0.4532458E+03  0.7546771E-02  0.1026759E+00
         21   -1    0    0  502  501  0.00000000000E+00  0.00000000000E+00  0.10431061814E+04  0.10431061814E+04  0.00000000000E+00 0.  1.
         21   -1    0    0  501  502 -0.00000000000E+00 -0.00000000000E+00 -0.49235590410E+02  0.49235590410E+02  0.00000000000E+00 0.  1.
      99926    2    1    2    0    0  0.00000000000E+00  0.35527136788E-14  0.99387059100E+03  0.10923417718E+04  0.45324584368E+03 0.  0.
      99925    2    3    3    0    0  0.10744438099E+03  0.23115149055E+02  0.58130368422E+03  0.64744002335E+03  0.26303232772E+03 0.  0.
         25    1    3    3    0    0 -0.10744438099E+03 -0.23115149055E+02  0.41256690677E+03  0.44490174847E+03  0.12509000000E+03 0.  0.
         25    1    4    4    0    0  0.77788784945E+02  0.44355781667E+02  0.34063299096E+03  0.37376044876E+03  0.12509000000E+03 0.  0.
         25    1    4    4    0    0  0.29655596047E+02 -0.21240632611E+02  0.24067069326E+03  0.27367957459E+03  0.12509000000E+03 0.  0.
<mgrwt>
<rscale>  2 0.45324584E+03</rscale>
<asrwt>0</asrwt>
<pdfrwt beam="1">  1       21 0.15339795E+00 0.45324584E+03</pdfrwt>
<pdfrwt beam="2">  1       21 0.72405287E-02 0.45324584E+03</pdfrwt>
<totfact> 0.36254571E+04</totfact>
</mgrwt>
</event>
<event>
 7    0  0.4750554E-002  0.4469914E+03  0.7546771E-02  0.1028623E+00
         21   -1    0    0  502  501  0.00000000000E+00  0.00000000000E+00  0.76579552729E+03  0.76579552729E+03  0.00000000000E+00 0.  1.
         21   -1    0    0  501  502 -0.00000000000E+00 -0.00000000000E+00 -0.65226706216E+02  0.65226706216E+02  0.00000000000E+00 0.  1.
      99926    2    1    2    0    0  0.35527136788E-14 -0.14210854715E-13  0.70056882108E+03  0.83102223351E+03  0.44699136404E+03 0.  0.
      99925    2    3    3    0    0  0.27696764801E+02 -0.75146768248E+02  0.57181318892E+03  0.63445247879E+03  0.26295527616E+03 0.  0.
         25    1    3    3    0    0 -0.27696764801E+02  0.75146768248E+02  0.12875563216E+03  0.19656975472E+03  0.12509000000E+03 0.  0.
         25    1    4    4    0    0  0.39271877228E+02 -0.17893470168E+02  0.22289075336E+03  0.25921082664E+03  0.12509000000E+03 0.  0.
         25    1    4    4    0    0 -0.11575112427E+02 -0.57253298080E+02  0.34892243556E+03  0.37524165215E+03  0.12509000000E+03 0.  0.
<mgrwt>
<rscale>  2 0.44699136E+03</rscale>
<asrwt>0</asrwt>
<pdfrwt beam="1">  1       21 0.11261698E+00 0.44699136E+03</pdfrwt>
<pdfrwt beam="2">  1       21 0.95921631E-02 0.44699136E+03</pdfrwt>
<totfact> 0.49327872E+04</totfact>
</mgrwt>
</event>
<event>
 7    0  0.4750554E-002  0.4490536E+03  0.7546771E-02  0.1028005E+00
         21   -1    0    0  502  501  0.00000000000E+00  0.00000000000E+00  0.39860338941E+02  0.39860338941E+02  0.00000000000E+00 0.  1.
         21   -1    0    0  501  502 -0.00000000000E+00 -0.00000000000E+00 -0.12647226624E+04  0.12647226624E+04  0.00000000000E+00 0.  1.
      99926    2    1    2    0    0  0.17763568394E-14 -0.14210854715E-13 -0.12248623235E+04  0.13045830014E+04  0.44905355579E+03 0.  0.
      99925    2    3    3    0    0  0.74268335221E+01 -0.10714365849E+03 -0.78708869102E+03  0.83679225456E+03  0.26301663133E+03 0.  0.
         25    1    4    4    0    0  0.13839675340E+02 -0.92715448829E+02 -0.48061408252E+03  0.50539597889E+03  0.12509000000E+03 0.  0.
         25    1    3    3    0    0 -0.74268335221E+01  0.10714365849E+03 -0.43777363247E+03  0.46779074681E+03  0.12509000000E+03 0.  0.
         25    1    4    4    0    0 -0.64128418177E+01 -0.14428209666E+02 -0.30647460850E+03  0.33139627567E+03  0.12509000000E+03 0.  0.
<mgrwt>
<rscale>  2 0.44905356E+03</rscale>
<asrwt>0</asrwt>
<pdfrwt beam="1">  1       21 0.58618135E-02 0.44905356E+03</pdfrwt>
<pdfrwt beam="2">  1       21 0.18598866E+00 0.44905356E+03</pdfrwt>
<totfact> 0.30361840E+04</totfact>
</mgrwt>
</event>
<event>
 7    0  0.4750554E-002  0.4520803E+03  0.7546771E-02  0.1027103E+00
         21   -1    0    0  502  501  0.00000000000E+00  0.00000000000E+00  0.12208122834E+03  0.12208122834E+03  0.00000000000E+00 0.  1.
         21   -1    0    0  501  502 -0.00000000000E+00 -0.00000000000E+00 -0.41852590545E+03  0.41852590545E+03  0.00000000000E+00 0.  1.
      99926    2    1    2    0    0  0.71054273576E-14  0.00000000000E+00 -0.29644467711E+03  0.54060713379E+03  0.45208033193E+03 0.  0.
      99925    2    3    3    0    0  0.55154581748E+02 -0.93124102288E+02 -0.21379179301E+03  0.35569327908E+03  0.26286241973E+03 0.  0.
         25    1    4    4    0    0 -0.10832439686E+02 -0.42872222738E+02 -0.82131887006E+02  0.15604013649E+03  0.12509000000E+03 0.  0.
         25    1    3    3    0    0 -0.55154581748E+02  0.93124102288E+02 -0.82652884100E+02  0.18491385471E+03  0.12509000000E+03 0.  0.
         25    1    4    4    0    0  0.65987021434E+02 -0.50251879550E+02 -0.13165990601E+03  0.19965314259E+03  0.12509000000E+03 0.  0.
<mgrwt>
<rscale>  2 0.45208033E+03</rscale>
<asrwt>0</asrwt>
<pdfrwt beam="1">  1       21 0.17953122E-01 0.45208033E+03</pdfrwt>
<pdfrwt beam="2">  1       21 0.61547928E-01 0.45208033E+03</pdfrwt>
<totfact> 0.63956488E+04</totfact>
</mgrwt>
</event>
<event>
 7    0  0.4750554E-002  0.4820493E+03  0.7546771E-02  0.1018573E+00
         21   -1    0    0  502  501  0.00000000000E+00  0.00000000000E+00  0.64462349601E+03  0.64462349601E+03  0.00000000000E+00 0. -1.
         21   -1    0    0  501  502 -0.00000000000E+00 -0.00000000000E+00 -0.90119080831E+02  0.90119080831E+02  0.00000000000E+00 0. -1.
      99926    2    1    2    0    0 -0.71054273576E-14  0.28421709430E-13  0.55450441518E+03  0.73474257685E+03  0.48204927940E+03 0.  0.
      99925    2    3    3    0    0  0.47658545200E+02  0.12812994492E+03  0.35112082826E+03  0.45960440929E+03  0.26317628558E+03 0.  0.
         25    1    4    4    0    0  0.45419308091E+02  0.10457953265E+03  0.19958432458E+03  0.26168913412E+03  0.12509000000E+03 0.  0.
         25    1    3    3    0    0 -0.47658545200E+02 -0.12812994492E+03  0.20338358693E+03  0.27513816756E+03  0.12509000000E+03 0.  0.
         25    1    4    4    0    0  0.22392371096E+01  0.23550412266E+02  0.15153650368E+03  0.19791527517E+03  0.12509000000E+03 0.  0.
<mgrwt>
<rscale>  2 0.48204928E+03</rscale>
<asrwt>0</asrwt>
<pdfrwt beam="1">  1       21 0.94797571E-01 0.48204928E+03</pdfrwt>
<pdfrwt beam="2">  1       21 0.13252806E-01 0.48204928E+03</pdfrwt>
<totfact> 0.41498697E+04</totfact>
</mgrwt>
</event>
<event>
 7    0  0.4750554E-002  0.4207643E+03  0.7546771E-02  0.1036818E+00
         21   -1    0    0  502  501  0.00000000000E+00  0.00000000000E+00  0.19239212169E+03  0.19239212169E+03  0.00000000000E+00 0.  1.
         21   -1    0    0  501  502 -0.00000000000E+00 -0.00000000000E+00 -0.23005437725E+03  0.23005437725E+03  0.00000000000E+00 0.  1.
      99926    2    1    2    0    0  0.00000000000E+00 -0.71054273576E-14 -0.37662255560E+02  0.42244649895E+03  0.42076430336E+03 0.  0.
      99925    2    3    3    0    0  0.43080168884E+02 -0.54694300083E+02 -0.57055742277E+02  0.27797856880E+03  0.26300068360E+03 0.  0.
         25    1    4    4    0    0  0.30887166841E+02 -0.25977993966E+02  0.11537212171E+02  0.13194502117E+03  0.12509000000E+03 0.  0.
         25    1    4    4    0    0  0.12193002043E+02 -0.28716306117E+02 -0.68592954448E+02  0.14603354764E+03  0.12509000000E+03 0.  0.
         25    1    3    3    0    0 -0.43080168884E+02  0.54694300083E+02  0.19393486716E+02  0.14446793014E+03  0.12509000000E+03 0.  0.
<mgrwt>
<rscale>  2 0.42076430E+03</rscale>
<asrwt>0</asrwt>
<pdfrwt beam="1">  1       21 0.28292959E-01 0.42076430E+03</pdfrwt>
<pdfrwt beam="2">  1       21 0.33831526E-01 0.42076430E+03</pdfrwt>
<totfact> 0.94224944E+04</totfact>
</mgrwt>
</event>
<event>
 7    0  0.4750554E-002  0.4682667E+03  0.7546771E-02  0.1022411E+00
         21   -1    0    0  502  501  0.00000000000E+00  0.00000000000E+00  0.15577105827E+03  0.15577105827E+03  0.00000000000E+00 0. -1.
         21   -1    0    0  501  502 -0.00000000000E+00 -0.00000000000E+00 -0.35191657191E+03  0.35191657191E+03  0.00000000000E+00 0. -1.
      99926    2    1    2    0    0  0.00000000000E+00  0.00000000000E+00 -0.19614551365E+03  0.50768763018E+03  0.46826666261E+03 0.  0.
      99925    2    3    3    0    0  0.10133579182E+03  0.71860444509E+02 -0.10509474225E+03  0.30926732562E+03  0.26299906399E+03 0.  0.
         25    1    4    4    0    0  0.88342338929E+02  0.28519372666E+02 -0.74980439123E+02  0.17287943144E+03  0.12509000000E+03 0.  0.
         25    1    4    4    0    0  0.12993452886E+02  0.43341071843E+02 -0.30114303123E+02  0.13638789418E+03  0.12509000000E+03 0.  0.
         25    1    3    3    0    0 -0.10133579182E+03 -0.71860444509E+02 -0.91050771401E+02  0.19842030456E+03  0.12509000000E+03 0.  0.
<mgrwt>
<rscale>  2 0.46826666E+03</rscale>
<asrwt>0</asrwt>
<pdfrwt beam="1">  1       21 0.22907509E-01 0.46826666E+03</pdfrwt>
<pdfrwt beam="2">  1       21 0.51752436E-01 0.46826666E+03</pdfrwt>
<totfact> 0.58343371E+04</totfact>
</mgrwt>
</event>
<event>
 7    0  0.4750554E-002  0.4555525E+03  0.7546771E-02  0.1026079E+00
         21   -1    0    0  502  501  0.00000000000E+00  0.00000000000E+00  0.10465445518E+03  0.10465445518E+03  0.00000000000E+00 0. -1.
         21   -1    0    0  501  502 -0.00000000000E+00 -0.00000000000E+00 -0.49574591914E+03  0.49574591914E+03  0.00000000000E+00 0. -1.
      99926    2    1    2    0    0  0.14210854715E-13  0.00000000000E+00 -0.39109146396E+03  0.60040037432E+03  0.45555249565E+03 0.  0.
      99925    2    3    3    0    0  0.10674726846E+03  0.32423729867E+02 -0.21749145857E+03  0.35908989474E+03  0.26305273306E+03 0.  0.
         25    1    3    3    0    0 -0.10674726846E+03 -0.32423729867E+02 -0.17360000539E+03  0.24131047958E+03  0.12509000000E+03 0.  0.
         25    1    4    4    0    0  0.31926350106E+02 -0.13634705406E+02 -0.12615385951E+03  0.18101795876E+03  0.12509000000E+03 0.  0.
         25    1    4    4    0    0  0.74820918353E+02  0.46058435273E+02 -0.91337599056E+02  0.17807193598E+03  0.12509000000E+03 0.  0.
<mgrwt>
<rscale>  2 0.45555250E+03</rscale>
<asrwt>0</asrwt>
<pdfrwt beam="1">  1       21 0.15390361E-01 0.45555250E+03</pdfrwt>
<pdfrwt beam="2">  1       21 0.72903812E-01 0.45555250E+03</pdfrwt>
<totfact> 0.58398282E+04</totfact>
</mgrwt>
</event>
<event>
 7    0  0.4750554E-002  0.4474498E+03  0.7546771E-02  0.1028485E+00
         21   -1    0    0  502  501  0.00000000000E+00  0.00000000000E+00  0.61574606144E+03  0.61574606144E+03  0.00000000000E+00 0. -1.
         21   -1    0    0  501  502 -0.00000000000E+00 -0.00000000000E+00 -0.81288120753E+02  0.81288120753E+02  0.00000000000E+00 0. -1.
      99926    2    1    2    0    0  0.00000000000E+00  0.00000000000E+00  0.53445794069E+03  0.69703418220E+03  0.44744984164E+03 0.  0.
      99925    2    3    3    0    0 -0.38167034151E+02  0.45220482999E+02  0.20166573250E+03  0.33661806642E+03  0.26294683949E+03 0.  0.
         25    1    4    4    0    0  0.36107664510E+01  0.46820490804E+02  0.72517335965E+02  0.15202456416E+03  0.12509000000E+03 0.  0.
         25    1    4    4    0    0 -0.41777800602E+02 -0.16000078057E+01  0.12914839653E+03  0.18459350226E+03  0.12509000000E+03 0.  0.
         25    1    3    3    0    0  0.38167034151E+02 -0.45220482999E+02  0.33279220819E+03  0.36041611578E+03  0.12509000000E+03 0.  0.
<mgrwt>
<rscale>  2 0.44744984E+03</rscale>
<asrwt>0</asrwt>
<pdfrwt beam="1">  1       21 0.90550889E-01 0.44744984E+03</pdfrwt>
<pdfrwt beam="2">  1       21 0.11954136E-01 0.44744984E+03</pdfrwt>
<totfact> 0.56338117E+04</totfact>
</mgrwt>
</event>
<event>
 7    0  0.4750554E-002  0.4575257E+03  0.7546771E-02  0.1025501E+00
         21   -1    0    0  502  501  0.00000000000E+00  0.00000000000E+00  0.17201502349E+04  0.17201502349E+04  0.00000000000E+00 0.  1.
         21   -1    0    0  501  502 -0.00000000000E+00 -0.00000000000E+00 -0.30423185158E+02  0.30423185158E+02  0.00000000000E+00 0.  1.
      99926    2    1    2    0    0  0.00000000000E+00  0.00000000000E+00  0.16897270497E+04  0.17505734200E+04  0.45752573302E+03 0.  0.
      99925    2    3    3    0    0 -0.11276917242E+03 -0.24290856727E+02  0.10428162360E+04  0.10816578492E+04  0.26307996615E+03 0.  0.
         25    1    4    4    0    0 -0.59479305055E+02 -0.41515516527E+02  0.42854762838E+03  0.45228520176E+03  0.12509000000E+03 0.  0.
         25    1    3    3    0    0  0.11276917242E+03  0.24290856727E+02  0.64691081367E+03  0.66891557084E+03  0.12509000000E+03 0.  0.
         25    1    4    4    0    0 -0.53289867367E+02  0.17224659801E+02  0.61426860766E+03  0.62937264742E+03  0.12509000000E+03 0.  0.
<mgrwt>
<rscale>  2 0.45752573E+03</rscale>
<asrwt>0</asrwt>
<pdfrwt beam="1">  1       21 0.25296320E+00 0.45752573E+03</pdfrwt>
<pdfrwt beam="2">  1       21 0.44739990E-02 0.45752573E+03</pdfrwt>
<totfact> 0.17875725E+04</totfact>
</mgrwt>
</event>
<event>
 7    0  0.4750554E-002  0.4525606E+03  0.7546771E-02  0.1026961E+00
         21   -1    0    0  502  501  0.00000000000E+00  0.00000000000E+00  0.40528821240E+03  0.40528821240E+03  0.00000000000E+00 0.  1.
         21   -1    0    0  501  502 -0.00000000000E+00 -0.00000000000E+00 -0.12633670997E+03  0.12633670997E+03  0.00000000000E+00 0.  1.
      99926    2    1    2    0    0 -0.88817841970E-15 -0.88817841970E-15  0.27895150243E+03  0.53162492237E+03  0.45256062287E+03 0.  0.
      99925    2    3    3    0    0 -0.53804414938E+01  0.79454431457E+01  0.46105204131E+02  0.26713109266E+03  0.26294724110E+03 0.  0.
         25    1    4    4    0    0  0.29692074880E+02 -0.19191459399E+02  0.30306594811E+02  0.13347632454E+03  0.12509000000E+03 0.  0.
         25    1    4    4    0    0 -0.35072516374E+02  0.27136902544E+02  0.15798609320E+02  0.13365476812E+03  0.12509000000E+03 0.  0.
         25    1    3    3    0    0  0.53804414938E+01 -0.79454431457E+01  0.23284629830E+03  0.26449382970E+03  0.12509000000E+03 0.  0.
<mgrwt>
<rscale>  2 0.45256062E+03</rscale>
<asrwt>0</asrwt>
<pdfrwt beam="1">  1       21 0.59601207E-01 0.45256062E+03</pdfrwt>
<pdfrwt beam="2">  1       21 0.18578928E-01 0.45256062E+03</pdfrwt>
<totfact> 0.64330519E+04</totfact>
</mgrwt>
</event>
<event>
 7    0  0.4750554E-002  0.4515089E+03  0.7546771E-02  0.1027273E+00
         21   -1    0    0  502  501  0.00000000000E+00  0.00000000000E+00  0.77582618079E+02  0.77582618079E+02  0.00000000000E+00 0. -1.
         21   -1    0    0  501  502 -0.00000000000E+00 -0.00000000000E+00 -0.65691341863E+03  0.65691341863E+03  0.00000000000E+00 0. -1.
      99926    2    1    2    0    0  0.71054273576E-14  0.00000000000E+00 -0.57933080055E+03  0.73449603671E+03  0.45150886090E+03 0.  0.
      99925    2    3    3    0    0 -0.44153780738E+02  0.64751794891E+02 -0.49092011636E+03  0.56243119872E+03  0.26302840406E+03 0.  0.
         25    1    4    4    0    0 -0.52645620885E+01  0.19927747458E+01 -0.27542794432E+03  0.30255536250E+03  0.12509000000E+03 0.  0.
         25    1    4    4    0    0 -0.38889218650E+02  0.62759020146E+02 -0.21549217204E+03  0.25987583621E+03  0.12509000000E+03 0.  0.
         25    1    3    3    0    0  0.44153780738E+02 -0.64751794891E+02 -0.88410684189E+02  0.17206483799E+03  0.12509000000E+03 0.  0.
<mgrwt>
<rscale>  2 0.45150886E+03</rscale>
<asrwt>0</asrwt>
<pdfrwt beam="1">  1       21 0.11409208E-01 0.45150886E+03</pdfrwt>
<pdfrwt beam="2">  1       21 0.96604916E-01 0.45150886E+03</pdfrwt>
<totfact> 0.52495969E+04</totfact>
</mgrwt>
</event>
<event>
 7    0  0.4750554E-002  0.4503206E+03  0.7546771E-02  0.1027626E+00
         21   -1    0    0  502  501  0.00000000000E+00  0.00000000000E+00  0.12624641086E+03  0.12624641086E+03  0.00000000000E+00 0. -1.
         21   -1    0    0  501  502 -0.00000000000E+00 -0.00000000000E+00 -0.40157313956E+03  0.40157313956E+03  0.00000000000E+00 0. -1.
      99926    2    1    2    0    0  0.00000000000E+00  0.00000000000E+00 -0.27532672870E+03  0.52781955042E+03  0.45032063052E+03 0.  0.
      99925    2    3    3    0    0 -0.19209424251E+02  0.84704924332E+02 -0.25044083964E+03  0.37351225390E+03  0.26314798776E+03 0.  0.
         25    1    4    4    0    0  0.11328662638E+02  0.11859843219E+02 -0.88118668720E+02  0.15388762899E+03  0.12509000000E+03 0.  0.
         25    1    3    3    0    0  0.19209424251E+02 -0.84704924332E+02 -0.24885889054E+02  0.15430729652E+03  0.12509000000E+03 0.  0.
         25    1    4    4    0    0 -0.30538086889E+02  0.72845081112E+02 -0.16232217092E+03  0.21962462491E+03  0.12509000000E+03 0.  0.
<mgrwt>
<rscale>  2 0.45032063E+03</rscale>
<asrwt>0</asrwt>
<pdfrwt beam="1">  1       21 0.18565648E-01 0.45032063E+03</pdfrwt>
<pdfrwt beam="2">  1       21 0.59054875E-01 0.45032063E+03</pdfrwt>
<totfact> 0.65758714E+04</totfact>
</mgrwt>
</event>
<event>
 7    0  0.4750554E-002  0.4517004E+03  0.7546771E-02  0.1027216E+00
         21   -1    0    0  502  501  0.00000000000E+00  0.00000000000E+00  0.33185525029E+03  0.33185525029E+03  0.00000000000E+00 0. -1.
         21   -1    0    0  501  502 -0.00000000000E+00 -0.00000000000E+00 -0.15370650621E+03  0.15370650621E+03  0.00000000000E+00 0. -1.
      99926    2    1    2    0    0  0.00000000000E+00  0.44408920985E-14  0.17814874408E+03  0.48556175650E+03  0.45170039225E+03 0.  0.
      99925    2    3    3    0    0 -0.91265368000E+02  0.77705183360E+01  0.17798666918E+03  0.33052213989E+03  0.26301308370E+03 0.  0.
         25    1    4    4    0    0 -0.70018618208E+02  0.37486980768E+02  0.92847766257E+02  0.17486021967E+03  0.12509000000E+03 0.  0.
         25    1    4    4    0    0 -0.21246749792E+02 -0.29716462432E+02  0.85138902924E+02  0.15566192022E+03  0.12509000000E+03 0.  0.
         25    1    3    3    0    0  0.91265368000E+02 -0.77705183360E+01  0.16207489564E+00  0.15503961661E+03  0.12509000000E+03 0.  0.
<mgrwt>
<rscale>  2 0.45170039E+03</rscale>
<asrwt>0</asrwt>
<pdfrwt beam="1">  1       21 0.48802243E-01 0.45170039E+03</pdfrwt>
<pdfrwt beam="2">  1       21 0.22603898E-01 0.45170039E+03</pdfrwt>
<totfact> 0.68062879E+04</totfact>
</mgrwt>
</event>
<event>
 7    0  0.4750554E-002  0.4551273E+03  0.7546771E-02  0.1026204E+00
         21   -1    0    0  502  501  0.00000000000E+00  0.00000000000E+00  0.33612610026E+02  0.33612610026E+02  0.00000000000E+00 0.  1.
         21   -1    0    0  501  502 -0.00000000000E+00 -0.00000000000E+00 -0.15406485451E+04  0.15406485451E+04  0.00000000000E+00 0.  1.
      99926    2    1    2    0    0 -0.71054273576E-14 -0.14210854715E-13 -0.15070359351E+04  0.15742611552E+04  0.45512731729E+03 0.  0.
      99925    2    3    3    0    0  0.44474298415E+02  0.92934644714E+02 -0.78538828611E+03  0.83464121978E+03  0.26301405740E+03 0.  0.
         25    1    4    4    0    0  0.51160669282E+02  0.56749048560E+02 -0.49660829658E+03  0.51778873774E+03  0.12509000000E+03 0.  0.
         25    1    3    3    0    0 -0.44474298415E+02 -0.92934644714E+02 -0.72164764901E+03  0.73961993539E+03  0.12509000000E+03 0.  0.
         25    1    4    4    0    0 -0.66863708668E+01  0.36185596154E+02 -0.28877998953E+03  0.31685248204E+03  0.12509000000E+03 0.  0.
<mgrwt>
<rscale>  2 0.45512732E+03</rscale>
<asrwt>0</asrwt>
<pdfrwt beam="1">  1       21 0.49430296E-02 0.45512732E+03</pdfrwt>
<pdfrwt beam="2">  1       21 0.22656602E+00 0.45512732E+03</pdfrwt>
<totfact> 0.21994608E+04</totfact>
</mgrwt>
</event>
<event>
 7    0  0.4750554E-002  0.4141952E+03  0.7546771E-02  0.1038972E+00
         21   -1    0    0  502  501  0.00000000000E+00  0.00000000000E+00  0.49735055046E+03  0.49735055046E+03  0.00000000000E+00 0.  1.
         21   -1    0    0  501  502 -0.00000000000E+00 -0.00000000000E+00 -0.86235770447E+02  0.86235770447E+02  0.00000000000E+00 0.  1.
      99926    2    1    2    0    0  0.00000000000E+00  0.71054273576E-14  0.41111478002E+03  0.58358632091E+03  0.41419516125E+03 0.  0.
      99925    2    3    3    0    0 -0.63203121141E+01 -0.61723253518E+02  0.30959311303E+03  0.41094836640E+03  0.26302273255E+03 0.  0.
         25    1    4    4    0    0 -0.25519240128E+02  0.35105955305E+01  0.13959303033E+03  0.18920168634E+03  0.12509000000E+03 0.  0.
         25    1    3    3    0    0  0.63203121141E+01  0.61723253518E+02  0.10152166698E+03  0.17263795451E+03  0.12509000000E+03 0.  0.
         25    1    4    4    0    0  0.19198928013E+02 -0.65233849049E+02  0.17000008270E+03  0.22174668005E+03  0.12509000000E+03 0.  0.
<mgrwt>
<rscale>  2 0.41419516E+03</rscale>
<asrwt>0</asrwt>
<pdfrwt beam="1">  1       21 0.73139786E-01 0.41419516E+03</pdfrwt>
<pdfrwt beam="2">  1       21 0.12681731E-01 0.41419516E+03</pdfrwt>
<totfact> 0.83559628E+04</totfact>
</mgrwt>
</event>
<event>
 7    0  0.4750554E-002  0.4521504E+03  0.7546771E-02  0.1027083E+00
         21   -1    0    0  502  501  0.00000000000E+00  0.00000000000E+00  0.81125356192E+02  0.81125356192E+02  0.00000000000E+00 0.  1.
         21   -1    0    0  501  502 -0.00000000000E+00 -0.00000000000E+00 -0.63001272985E+03  0.63001272985E+03  0.00000000000E+00 0.  1.
      99926    2    1    2    0    0 -0.71054273576E-14  0.00000000000E+00 -0.54888737366E+03  0.71113808605E+03  0.45215044892E+03 0.  0.
      99925    2    3    3    0    0 -0.60207212635E+02 -0.92654935817E+02 -0.34741298275E+03  0.44950994559E+03  0.26297065429E+03 0.  0.
         25    1    4    4    0    0 -0.90134020011E+01 -0.47957337505E+02 -0.11413909321E+03  0.17622822798E+03  0.12509000000E+03 0.  0.
         25    1    4    4    0    0 -0.51193810633E+02 -0.44697598312E+02 -0.23327388954E+03  0.27328171762E+03  0.12509000000E+03 0.  0.
         25    1    3    3    0    0  0.60207212635E+02  0.92654935817E+02 -0.20147439091E+03  0.26162814045E+03  0.12509000000E+03 0.  0.
<mgrwt>
<rscale>  2 0.45215045E+03</rscale>
<asrwt>0</asrwt>
<pdfrwt beam="1">  1       21 0.11930199E-01 0.45215045E+03</pdfrwt>
<pdfrwt beam="2">  1       21 0.92648933E-01 0.45215045E+03</pdfrwt>
<totfact> 0.53491565E+04</totfact>
</mgrwt>
</event>
<event>
 7    0  0.4750554E-002  0.4483312E+03  0.7546771E-02  0.1028221E+00
         21   -1    0    0  502  501  0.00000000000E+00  0.00000000000E+00  0.16881084921E+02  0.16881084921E+02  0.00000000000E+00 0. -1.
         21   -1    0    0  501  502 -0.00000000000E+00 -0.00000000000E+00 -0.29767173113E+04  0.29767173113E+04  0.00000000000E+00 0. -1.
      99926    2    1    2    0    0 -0.17763568394E-14  0.00000000000E+00 -0.29598362264E+04  0.29935983962E+04  0.44833120667E+03 0.  0.
      99925    2    3    3    0    0 -0.14048106975E+01  0.16886851976E+02 -0.25779924495E+04  0.25914301263E+04  0.26301690199E+03 0.  0.
         25    1    3    3    0    0  0.14048106975E+01 -0.16886851976E+02 -0.38184377688E+03  0.40216826989E+03  0.12509000000E+03 0.  0.
         25    1    4    4    0    0  0.26642968853E+02 -0.14129750173E+02 -0.14681390322E+04  0.14737670180E+04  0.12509000000E+03 0.  0.
         25    1    4    4    0    0 -0.28047779550E+02  0.31016602149E+02 -0.11098534173E+04  0.11176631083E+04  0.12509000000E+03 0.  0.
<mgrwt>
<rscale>  2 0.44833121E+03</rscale>
<asrwt>0</asrwt>
<pdfrwt beam="1">  1       21 0.24825115E-02 0.44833121E+03</pdfrwt>
<pdfrwt beam="2">  1       21 0.43775272E+00 0.44833121E+03</pdfrwt>
<totfact> 0.34590631E+03</totfact>
</mgrwt>
</event>
<event>
 7    0  0.4750554E-002  0.4390760E+03  0.7546771E-02  0.1031031E+00
         21   -1    0    0  502  501  0.00000000000E+00  0.00000000000E+00  0.97467706047E+02  0.97467706047E+02  0.00000000000E+00 0. -1.
         21   -1    0    0  501  502 -0.00000000000E+00 -0.00000000000E+00 -0.49449124538E+03  0.49449124538E+03  0.00000000000E+00 0. -1.
      99926    2    1    2    0    0  0.00000000000E+00  0.00000000000E+00 -0.39702353934E+03  0.59195895143E+03  0.43907597223E+03 0.  0.
      99925    2    3    3    0    0  0.45075700359E+02  0.66413425885E+02 -0.17889499281E+03  0.32800794687E+03  0.26295100847E+03 0.  0.
         25    1    4    4    0    0  0.23581310021E+02 -0.48642606871E+01 -0.10315225680E+03  0.16391349974E+03  0.12509000000E+03 0.  0.
         25    1    4    4    0    0  0.21494390338E+02  0.71277686572E+02 -0.75742736009E+02  0.16409444712E+03  0.12509000000E+03 0.  0.
         25    1    3    3    0    0 -0.45075700359E+02 -0.66413425885E+02 -0.21812854653E+03  0.26395100457E+03  0.12509000000E+03 0.  0.
<mgrwt>
<rscale>  2 0.43907597E+03</rscale>
<asrwt>0</asrwt>
<pdfrwt beam="1">  1       21 0.14333486E-01 0.43907597E+03</pdfrwt>
<pdfrwt beam="2">  1       21 0.72719301E-01 0.43907597E+03</pdfrwt>
<totfact> 0.67247216E+04</totfact>
</mgrwt>
</event>
<event>
 7    0  0.4750554E-002  0.4552106E+03  0.7546771E-02  0.1026180E+00
         21   -1    0    0  502  501  0.00000000000E+00  0.00000000000E+00  0.14743389285E+03  0.14743389285E+03  0.00000000000E+00 0.  1.
         21   -1    0    0  501  502 -0.00000000000E+00 -0.00000000000E+00 -0.35137215642E+03  0.35137215642E+03  0.00000000000E+00 0.  1.
      99926    2    1    2    0    0  0.35527136788E-14  0.17763568394E-14 -0.20393826357E+03  0.49880604927E+03  0.45521056605E+03 0.  0.
      99925    2    3    3    0    0 -0.31245824432E+02 -0.12513767052E+02 -0.24691569508E+03  0.36232358289E+03  0.26301734225E+03 0.  0.
         25    1    4    4    0    0 -0.25105831668E+02 -0.19466250165E+02 -0.17594283005E+03  0.21820317419E+03  0.12509000000E+03 0.  0.
         25    1    3    3    0    0  0.31245824432E+02  0.12513767052E+02  0.42977431518E+02  0.13648246638E+03  0.12509000000E+03 0.  0.
         25    1    4    4    0    0 -0.61399927644E+01  0.69524831128E+01 -0.70972865033E+02  0.14412040870E+03  0.12509000000E+03 0.  0.
<mgrwt>
<rscale>  2 0.45521057E+03</rscale>
<asrwt>0</asrwt>
<pdfrwt beam="1">  1       21 0.21681455E-01 0.45521057E+03</pdfrwt>
<pdfrwt beam="2">  1       21 0.51672375E-01 0.45521057E+03</pdfrwt>
<totfact> 0.65245493E+04</totfact>
</mgrwt>
</event>
<event>
 7    0  0.4750554E-002  0.4594327E+03  0.7546771E-02  0.1024946E+00
         21   -1    0    0  502  501  0.00000000000E+00  0.00000000000E+00  0.98848549119E+03  0.98848549119E+03  0.00000000000E+00 0.  1.
         21   -1    0    0  501  502 -0.00000000000E+00 -0.00000000000E+00 -0.53384294352E+02  0.53384294352E+02  0.00000000000E+00 0.  1.
      99926    2    1    2    0    0  0.00000000000E+00  0.00000000000E+00  0.93510119683E+03  0.10418697855E+04  0.45943269550E+03 0.  0.
      99925    2    3    3    0    0 -0.54007133616E+02 -0.76810954221E+02  0.74542982266E+03  0.79602546193E+03  0.26300992825E+03 0.  0.
         25    1    4    4    0    0  0.27539377271E+01 -0.22066897813E+02  0.27561933156E+03  0.30349309083E+03  0.12509000000E+03 0.  0.
         25    1    3    3    0    0  0.54007133616E+02  0.76810954221E+02  0.18967137417E+03  0.24584432361E+03  0.12509000000E+03 0.  0.
         25    1    4    4    0    0 -0.56761071343E+02 -0.54744056408E+02  0.46981049110E+03  0.49253237110E+03  0.12509000000E+03 0.  0.
<mgrwt>
<rscale>  2 0.45943270E+03</rscale>
<asrwt>0</asrwt>
<pdfrwt beam="1">  1       21 0.14536550E+00 0.45943270E+03</pdfrwt>
<pdfrwt beam="2">  1       21 0.78506322E-02 0.45943270E+03</pdfrwt>
<totfact> 0.36304584E+04</totfact>
</mgrwt>
</event>
<event>
 7    0  0.4750554E-002  0.4529712E+03  0.7546771E-02  0.1026840E+00
         21   -1    0    0  502  501  0.00000000000E+00  0.00000000000E+00  0.48338966362E+03  0.48338966362E+03  0.00000000000E+00 0. -1.
         21   -1    0    0  501  502 -0.00000000000E+00 -0.00000000000E+00 -0.10611673801E+03  0.10611673801E+03  0.00000000000E+00 0. -1.
      99926    2    1    2    0    0  0.00000000000E+00  0.00000000000E+00  0.37727292561E+03  0.58950640163E+03  0.45297123217E+03 0.  0.
      99925    2    3    3    0    0 -0.83406263244E+02 -0.68027731316E+02  0.27387062967E+03  0.39476575389E+03  0.26315490054E+03 0.  0.
         25    1    3    3    0    0  0.83406263244E+02  0.68027731316E+02  0.10340229594E+03  0.19474064774E+03  0.12509000000E+03 0.  0.
         25    1    4    4    0    0 -0.28322883949E+02 -0.39573114999E+02  0.81346994496E+02  0.15694922363E+03  0.12509000000E+03 0.  0.
         25    1    4    4    0    0 -0.55083379295E+02 -0.28454616317E+02  0.19252363517E+03  0.23781653026E+03  0.12509000000E+03 0.  0.
<mgrwt>
<rscale>  2 0.45297123E+03</rscale>
<asrwt>0</asrwt>
<pdfrwt beam="1">  1       21 0.71086715E-01 0.45297123E+03</pdfrwt>
<pdfrwt beam="2">  1       21 0.15605403E-01 0.45297123E+03</pdfrwt>
<totfact> 0.60289784E+04</totfact>
</mgrwt>
</event>
<event>
 7    0  0.4750554E-002  0.4538257E+03  0.7546771E-02  0.1026587E+00
         21   -1    0    0  502  501  0.00000000000E+00  0.00000000000E+00  0.37763872808E+03  0.37763872808E+03  0.00000000000E+00 0. -1.
         21   -1    0    0  501  502 -0.00000000000E+00 -0.00000000000E+00 -0.13634575828E+03  0.13634575828E+03  0.00000000000E+00 0. -1.
      99926    2    1    2    0    0 -0.71054273576E-14 -0.17763568394E-14  0.24129296980E+03  0.51398448636E+03  0.45382568784E+03 0.  0.
      99925    2    3    3    0    0  0.58669923910E+02  0.80880839777E+01  0.25967359935E+03  0.37436739315E+03  0.26308361747E+03 0.  0.
         25    1    4    4    0    0  0.57776287083E+02  0.27493967978E+01  0.17700950676E+03  0.22433352873E+03  0.12509000000E+03 0.  0.
         25    1    4    4    0    0  0.89363682674E+00  0.53386871799E+01  0.82664092594E+02  0.15003386442E+03  0.12509000000E+03 0.  0.
         25    1    3    3    0    0 -0.58669923910E+02 -0.80880839777E+01 -0.18380629548E+02  0.13961709321E+03  0.12509000000E+03 0.  0.
<mgrwt>
<rscale>  2 0.45382569E+03</rscale>
<asrwt>0</asrwt>
<pdfrwt beam="1">  1       21 0.55535107E-01 0.45382569E+03</pdfrwt>
<pdfrwt beam="2">  1       21 0.20050847E-01 0.45382569E+03</pdfrwt>
<totfact> 0.64901632E+04</totfact>
</mgrwt>
</event>
<event>
 7    0  0.4750554E-002  0.4528889E+03  0.7546771E-02  0.1026864E+00
         21   -1    0    0  502  501  0.00000000000E+00  0.00000000000E+00  0.49876383536E+03  0.49876383536E+03  0.00000000000E+00 0.  1.
         21   -1    0    0  501  502 -0.00000000000E+00 -0.00000000000E+00 -0.10280833181E+03  0.10280833181E+03  0.00000000000E+00 0.  1.
      99926    2    1    2    0    0  0.17763568394E-14  0.00000000000E+00  0.39595550355E+03  0.60157216718E+03  0.45288885119E+03 0.  0.
      99925    2    3    3    0    0 -0.12478550119E+02 -0.41947602565E+02  0.11369796537E+03  0.28975147906E+03  0.26289423105E+03 0.  0.
         25    1    3    3    0    0  0.12478550119E+02  0.41947602565E+02  0.28225753818E+03  0.31182068811E+03  0.12509000000E+03 0.  0.
         25    1    4    4    0    0 -0.10896812707E+02  0.18551344989E+02  0.44386640794E+02  0.13446402831E+03  0.12509000000E+03 0.  0.
         25    1    4    4    0    0 -0.15817374118E+01 -0.60498947554E+02  0.69311324572E+02  0.15528745076E+03  0.12509000000E+03 0.  0.
<mgrwt>
<rscale>  2 0.45288885E+03</rscale>
<asrwt>0</asrwt>
<pdfrwt beam="1">  1       21 0.73347622E-01 0.45288885E+03</pdfrwt>
<pdfrwt beam="2">  1       21 0.15118873E-01 0.45288885E+03</pdfrwt>
<totfact> 0.59568999E+04</totfact>
</mgrwt>
</event>
<event>
 7    0  0.4750554E-002  0.4551620E+03  0.7546771E-02  0.1026194E+00
         21   -1    0    0  502  501  0.00000000000E+00  0.00000000000E+00  0.19482189286E+02  0.19482189286E+02  0.00000000000E+00 0. -1.
         21   -1    0    0  501  502 -0.00000000000E+00 -0.00000000000E+00 -0.26584846654E+04  0.26584846654E+04  0.00000000000E+00 0. -1.
      99926    2    1    2    0    0  0.00000000000E+00  0.00000000000E+00 -0.26390024761E+04  0.26779668547E+04  0.45516195565E+03 0.  0.
      99925    2    3    3    0    0  0.77179324855E+02 -0.62299861142E+02 -0.13371502380E+04  0.13663629972E+04  0.26294326453E+03 0.  0.
         25    1    4    4    0    0  0.56883404534E+02 -0.60223420814E+01 -0.53998248746E+03  0.55722579371E+03  0.12509000000E+03 0.  0.
         25    1    4    4    0    0  0.20295920322E+02 -0.56277519060E+02 -0.79716775054E+03  0.80913720352E+03  0.12509000000E+03 0.  0.
         25    1    3    3    0    0 -0.77179324855E+02  0.62299861142E+02 -0.13018522382E+04  0.13116038575E+04  0.12509000000E+03 0.  0.
<mgrwt>
<rscale>  2 0.45516196E+03</rscale>
<asrwt>0</asrwt>
<pdfrwt beam="1">  1       21 0.28650271E-02 0.45516196E+03</pdfrwt>
<pdfrwt beam="2">  1       21 0.39095372E+00 0.45516196E+03</pdfrwt>
<totfact> 0.54701534E+03</totfact>
</mgrwt>
</event>
<event>
 7    0  0.4750554E-002  0.4487505E+03  0.7546771E-02  0.1028095E+00
         21   -1    0    0  502  501  0.00000000000E+00  0.00000000000E+00  0.22723995954E+03  0.22723995954E+03  0.00000000000E+00 0. -1.
         21   -1    0    0  501  502 -0.00000000000E+00 -0.00000000000E+00 -0.22154665153E+03  0.22154665153E+03  0.00000000000E+00 0. -1.
      99926    2    1    2    0    0  0.00000000000E+00  0.00000000000E+00  0.56933080175E+01  0.44878661107E+03  0.44875049696E+03 0.  0.
      99925    2    3    3    0    0 -0.18162183163E+02  0.97333661082E+02 -0.38348036995E+02  0.28328478435E+03  0.26263280569E+03 0.  0.
         25    1    3    3    0    0  0.18162183163E+02 -0.97333661082E+02  0.44041345013E+02  0.16550182672E+03  0.12509000000E+03 0.  0.
         25    1    4    4    0    0 -0.64062881214E+01  0.59703975658E+02  0.19166289769E+02  0.14007305237E+03  0.12509000000E+03 0.  0.
         25    1    4    4    0    0 -0.11755895042E+02  0.37629685424E+02 -0.57514326765E+02  0.14321173198E+03  0.12509000000E+03 0.  0.
<mgrwt>
<rscale>  2 0.44875050E+03</rscale>
<asrwt>0</asrwt>
<pdfrwt beam="1">  1       21 0.33417641E-01 0.44875050E+03</pdfrwt>
<pdfrwt beam="2">  1       21 0.32580390E-01 0.44875050E+03</pdfrwt>
<totfact> 0.72554349E+04</totfact>
</mgrwt>
</event>
<event>
 7    0  0.4750554E-002  0.4506723E+03  0.7546771E-02  0.1027522E+00
         21   -1    0    0  502  501  0.00000000000E+00  0.00000000000E+00  0.13074780682E+04  0.13074780682E+04  0.00000000000E+00 0.  1.
         21   -1    0    0  501  502 -0.00000000000E+00 -0.00000000000E+00 -0.38835351454E+02  0.38835351454E+02  0.00000000000E+00 0.  1.
      99926    2    1    2    0    0  0.00000000000E+00  0.00000000000E+00  0.12686427168E+04  0.13463134197E+04  0.45067225474E+03 0.  0.
      99925    2    3    3    0    0  0.10141490451E+03 -0.12496648171E+02  0.68751852947E+03  0.74316005756E+03  0.26299048216E+03 0.  0.
         25    1    3    3    0    0 -0.10141490451E+03  0.12496648171E+02  0.58112418729E+03  0.60315336211E+03  0.12509000000E+03 0.  0.
         25    1    4    4    0    0  0.52803271007E+02  0.96261070987E+01  0.44198099518E+03  0.46246681563E+03  0.12509000000E+03 0.  0.
         25    1    4    4    0    0  0.48611633507E+02 -0.22122755269E+02  0.24553753429E+03  0.28069324192E+03  0.12509000000E+03 0.  0.
<mgrwt>
<rscale>  2 0.45067225E+03</rscale>
<asrwt>0</asrwt>
<pdfrwt beam="1">  1       21 0.19227616E+00 0.45067225E+03</pdfrwt>
<pdfrwt beam="2">  1       21 0.57110820E-02 0.45067225E+03</pdfrwt>
<totfact> 0.28753630E+04</totfact>
</mgrwt>
</event>
<event>
 7    0  0.4750554E-002  0.4506839E+03  0.7546771E-02  0.1027518E+00
         21   -1    0    0  502  501  0.00000000000E+00  0.00000000000E+00  0.13692300476E+04  0.13692300476E+04  0.00000000000E+00 0.  1.
         21   -1    0    0  501  502 -0.00000000000E+00 -0.00000000000E+00 -0.37085804775E+02  0.37085804775E+02  0.00000000000E+00 0.  1.
      99926    2    1    2    0    0  0.00000000000E+00  0.00000000000E+00  0.13321442428E+04  0.14063158524E+04  0.45068391690E+03 0.  0.
      99925    2    3    3    0    0  0.10488548117E+03  0.43389130216E+01  0.93432637310E+03  0.97628520708E+03  0.26295863506E+03 0.  0.
         25    1    4    4    0    0  0.50985879994E+02 -0.20038537508E+01  0.60395976564E+03  0.61888486974E+03  0.12509000000E+03 0.  0.
         25    1    3    3    0    0 -0.10488548117E+03 -0.43389130216E+01  0.39781786973E+03  0.43003064531E+03  0.12509000000E+03 0.  0.
         25    1    4    4    0    0  0.53899601175E+02  0.63427667725E+01  0.33036660747E+03  0.35740033733E+03  0.12509000000E+03 0.  0.
<mgrwt>
<rscale>  2 0.45068392E+03</rscale>
<asrwt>0</asrwt>
<pdfrwt beam="1">  1       21 0.20135733E+00 0.45068392E+03</pdfrwt>
<pdfrwt beam="2">  1       21 0.54537957E-02 0.45068392E+03</pdfrwt>
<totfact> 0.27060488E+04</totfact>
</mgrwt>
</event>
<event>
 7    0  0.4750554E-002  0.4590526E+03  0.7546771E-02  0.1025056E+00
         21   -1    0    0  502  501  0.00000000000E+00  0.00000000000E+00  0.39884427130E+03  0.39884427130E+03  0.00000000000E+00 0.  1.
         21   -1    0    0  501  502 -0.00000000000E+00 -0.00000000000E+00 -0.13208745810E+03  0.13208745810E+03  0.00000000000E+00 0.  1.
      99926    2    1    2    0    0  0.00000000000E+00  0.00000000000E+00  0.26675681320E+03  0.53093172940E+03  0.45905261561E+03 0.  0.
      99925    2    3    3    0    0 -0.38498687910E+02 -0.18282391319E+02  0.41197074354E+02  0.26951042444E+03  0.26291115447E+03 0.  0.
         25    1    4    4    0    0  0.13279407881E+02 -0.28176679963E+02  0.49247406612E+01  0.12900398885E+03  0.12509000000E+03 0.  0.
         25    1    3    3    0    0  0.38498687910E+02  0.18282391319E+02  0.22555973884E+03  0.26142130497E+03  0.12509000000E+03 0.  0.
         25    1    4    4    0    0 -0.51778095791E+02  0.98942886447E+01  0.36272333693E+02  0.14050643559E+03  0.12509000000E+03 0.  0.
<mgrwt>
<rscale>  2 0.45905262E+03</rscale>
<asrwt>0</asrwt>
<pdfrwt beam="1">  1       21 0.58653569E-01 0.45905262E+03</pdfrwt>
<pdfrwt beam="2">  1       21 0.19424626E-01 0.45905262E+03</pdfrwt>
<totfact> 0.61155309E+04</totfact>
</mgrwt>
</event>
<event>
 7    0  0.4750554E-002  0.3992210E+03  0.7546771E-02  0.1044050E+00
         21   -1    0    0  502  501  0.00000000000E+00  0.00000000000E+00  0.28260763496E+03  0.28260763496E+03  0.00000000000E+00 0.  1.
         21   -1    0    0  501  502 -0.00000000000E+00 -0.00000000000E+00 -0.14098824441E+03  0.14098824441E+03  0.00000000000E+00 0.  1.
      99926    2    1    2    0    0 -0.71054273576E-14  0.17763568394E-14  0.14161939056E+03  0.42359587937E+03  0.39922101302E+03 0.  0.
      99925    2    3    3    0    0 -0.40675730294E+02  0.56232566626E+01  0.75417130368E+02  0.27623108234E+03  0.26254472237E+03 0.  0.
         25    1    3    3    0    0  0.40675730294E+02 -0.56232566626E+01  0.66202260188E+02  0.14736479703E+03  0.12509000000E+03 0.  0.
         25    1    4    4    0    0 -0.19448854528E+02  0.26224198821E+02  0.71270509360E+02  0.14762438874E+03  0.12509000000E+03 0.  0.
         25    1    4    4    0    0 -0.21226875767E+02 -0.20600942159E+02  0.41466210077E+01  0.12860669360E+03  0.12509000000E+03 0.  0.
<mgrwt>
<rscale>  2 0.39922101E+03</rscale>
<asrwt>0</asrwt>
<pdfrwt beam="1">  1       21 0.41559946E-01 0.39922101E+03</pdfrwt>
<pdfrwt beam="2">  1       21 0.20733565E-01 0.39922101E+03</pdfrwt>
<totfact> 0.11359129E+05</totfact>
</mgrwt>
</event>
<event>
 7    0  0.4750554E-002  0.4618171E+03  0.7546771E-02  0.1024256E+00
         21   -1    0    0  502  501  0.00000000000E+00  0.00000000000E+00  0.16293912852E+04  0.16293912852E+04  0.00000000000E+00 0. -1.
         21   -1    0    0  501  502 -0.00000000000E+00 -0.00000000000E+00 -0.32723109513E+02  0.32723109513E+02  0.00000000000E+00 0. -1.
      99926    2    1    2    0    0  0.00000000000E+00  0.00000000000E+00  0.15966681757E+04  0.16621143947E+04  0.46181706103E+03 0.  0.
      99925    2    3    3    0    0  0.56669547537E+02  0.10178349992E+03  0.10937180301E+04  0.11309104080E+04  0.26299791452E+03 0.  0.
         25    1    3    3    0    0 -0.56669547537E+02 -0.10178349992E+03  0.50295014554E+03  0.53120398669E+03  0.12509000000E+03 0.  0.
         25    1    4    4    0    0  0.44411791875E+02  0.22709755764E+02  0.42167081927E+03  0.44265328214E+03  0.12509000000E+03 0.  0.
         25    1    4    4    0    0  0.12257755662E+02  0.79073744152E+02  0.67204721087E+03  0.68825712588E+03  0.12509000000E+03 0.  0.
<mgrwt>
<rscale>  2 0.46181706E+03</rscale>
<asrwt>0</asrwt>
<pdfrwt beam="1">  1       21 0.23961631E+00 0.46181706E+03</pdfrwt>
<pdfrwt beam="2">  1       21 0.48122231E-02 0.46181706E+03</pdfrwt>
<totfact> 0.19034304E+04</totfact>
</mgrwt>
</event>
<event>
 7    0  0.4750554E-002  0.4556224E+03  0.7546771E-02  0.1026059E+00
         21   -1    0    0  502  501  0.00000000000E+00  0.00000000000E+00  0.45167257721E+03  0.45167257721E+03  0.00000000000E+00 0.  1.
         21   -1    0    0  501  502 -0.00000000000E+00 -0.00000000000E+00 -0.11490170540E+03  0.11490170540E+03  0.00000000000E+00 0.  1.
      99926    2    1    2    0    0 -0.71054273576E-14  0.00000000000E+00  0.33677087180E+03  0.56657428261E+03  0.45562242879E+03 0.  0.
      99925    2    3    3    0    0  0.56391021812E+02 -0.84986923161E+02  0.14940373197E+03  0.31927552071E+03  0.26308298794E+03 0.  0.
         25    1    3    3    0    0 -0.56391021812E+02  0.84986923161E+02  0.18736713983E+03  0.24729876190E+03  0.12509000000E+03 0.  0.
         25    1    4    4    0    0 -0.70363418816E+01 -0.17809215340E+02  0.62710613387E+02  0.14123316675E+03  0.12509000000E+03 0.  0.
         25    1    4    4    0    0  0.63427363694E+02 -0.67177707821E+02  0.86693118588E+02  0.17804235396E+03  0.12509000000E+03 0.  0.
<mgrwt>
<rscale>  2 0.45562243E+03</rscale>
<asrwt>0</asrwt>
<pdfrwt beam="1">  1       21 0.66422437E-01 0.45562243E+03</pdfrwt>
<pdfrwt beam="2">  1       21 0.16897310E-01 0.45562243E+03</pdfrwt>
<totfact> 0.60486082E+04</totfact>
</mgrwt>
</event>
<event>
 7    0  0.4750554E-002  0.4389124E+03  0.7546771E-02  0.1031081E+00
         21   -1    0    0  502  501  0.00000000000E+00  0.00000000000E+00  0.14978725292E+03  0.14978725292E+03  0.00000000000E+00 0.  1.
         21   -1    0    0  501  502 -0.00000000000E+00 -0.00000000000E+00 -0.32152952166E+03  0.32152952166E+03  0.00000000000E+00 0.  1.
      99926    2    1    2    0    0 -0.71054273576E-14  0.00000000000E+00 -0.17174226874E+03  0.47131677458E+03  0.43891240029E+03 0.  0.
      99925    2    3    3    0    0  0.49942991050E+02  0.26244850425E+02 -0.24584927417E+02  0.27010572684E+03  0.26300112259E+03 0.  0.
         25    1    4    4    0    0 -0.41195826073E+01  0.37162087203E+02  0.32168496983E+01  0.13059803945E+03  0.12509000000E+03 0.  0.
         25    1    4    4    0    0  0.54062573658E+02 -0.10917236779E+02 -0.27801777116E+02  0.13950768739E+03  0.12509000000E+03 0.  0.
         25    1    3    3    0    0 -0.49942991050E+02 -0.26244850425E+02 -0.14715734132E+03  0.20121104774E+03  0.12509000000E+03 0.  0.
<mgrwt>
<rscale>  2 0.43891240E+03</rscale>
<asrwt>0</asrwt>
<pdfrwt beam="1">  1       21 0.22027538E-01 0.43891240E+03</pdfrwt>
<pdfrwt beam="2">  1       21 0.47283752E-01 0.43891240E+03</pdfrwt>
<totfact> 0.76670247E+04</totfact>
</mgrwt>
</event>
<event>
 7    0  0.4750554E-002  0.4488774E+03  0.7546771E-02  0.1028057E+00
         21   -1    0    0  502  501  0.00000000000E+00  0.00000000000E+00  0.47593012875E+03  0.47593012875E+03  0.00000000000E+00 0.  1.
         21   -1    0    0  501  502 -0.00000000000E+00 -0.00000000000E+00 -0.10584062276E+03  0.10584062276E+03  0.00000000000E+00 0.  1.
      99926    2    1    2    0    0  0.00000000000E+00  0.00000000000E+00  0.37008950599E+03  0.58177075150E+03  0.44887744972E+03 0.  0.
      99925    2    3    3    0    0 -0.87974591222E+02 -0.94553174179E+01  0.15535389797E+03  0.31797571520E+03  0.26295396957E+03 0.  0.
         25    1    4    4    0    0 -0.72733015168E+02  0.13293470890E+02  0.10955574722E+03  0.18198015747E+03  0.12509000000E+03 0.  0.
         25    1    3    3    0    0  0.87974591222E+02  0.94553174179E+01  0.21473560802E+03  0.26379503631E+03  0.12509000000E+03 0.  0.
         25    1    4    4    0    0 -0.15241576054E+02 -0.22748788307E+02  0.45798150751E+02  0.13599555773E+03  0.12509000000E+03 0.  0.
<mgrwt>
<rscale>  2 0.44887745E+03</rscale>
<asrwt>0</asrwt>
<pdfrwt beam="1">  1       21 0.69989724E-01 0.44887745E+03</pdfrwt>
<pdfrwt beam="2">  1       21 0.15564798E-01 0.44887745E+03</pdfrwt>
<totfact> 0.62799317E+04</totfact>
</mgrwt>
</event>
<event>
 7    0  0.4750554E-002  0.4583313E+03  0.7546771E-02  0.1025266E+00
         21   -1    0    0  502  501  0.00000000000E+00  0.00000000000E+00  0.81848677139E+03  0.81848677139E+03  0.00000000000E+00 0.  1.
         21   -1    0    0  501  502 -0.00000000000E+00 -0.00000000000E+00 -0.64163388853E+02  0.64163388853E+02  0.00000000000E+00 0.  1.
      99926    2    1    2    0    0 -0.14210854715E-13 -0.14210854715E-13  0.75432338254E+03  0.88265016025E+03  0.45833125568E+03 0.  0.
      99925    2    3    3    0    0  0.91498766831E+02  0.70292567277E+02  0.50189993091E+03  0.57821925449E+03  0.26290853214E+03 0.  0.
         25    1    4    4    0    0  0.87664310632E+02  0.33643552245E+02  0.28676015677E+03  0.32664325429E+03  0.12509000000E+03 0.  0.
         25    1    3    3    0    0 -0.91498766831E+02 -0.70292567277E+02  0.25242345163E+03  0.30443090575E+03  0.12509000000E+03 0.  0.
         25    1    4    4    0    0  0.38344561989E+01  0.36649015032E+02  0.21513977415E+03  0.25157600020E+03  0.12509000000E+03 0.  0.
<mgrwt>
<rscale>  2 0.45833126E+03</rscale>
<asrwt>0</asrwt>
<pdfrwt beam="1">  1       21 0.12036570E+00 0.45833126E+03</pdfrwt>
<pdfrwt beam="2">  1       21 0.94357930E-02 0.45833126E+03</pdfrwt>
<totfact> 0.42863117E+04</totfact>
</mgrwt>
</event>
<event>
 7    0  0.4750554E-002  0.4561572E+03  0.7546771E-02  0.1025902E+00
         21   -1    0    0  502  501  0.00000000000E+00  0.00000000000E+00  0.16800794784E+04  0.16800794784E+04  0.00000000000E+00 0. -1.
         21   -1    0    0  501  502 -0.00000000000E+00 -0.00000000000E+00 -0.30962727652E+02  0.30962727652E+02  0.00000000000E+00 0. -1.
      99926    2    1    2    0    0  0.00000000000E+00 -0.13322676296E-14  0.16491167508E+04  0.17110422061E+04  0.45615718047E+03 0.  0.
      99925    2    3    3    0    0 -0.33943221918E+02 -0.33792057743E+01  0.14457193027E+04  0.14698336007E+04  0.26295047075E+03 0.  0.
         25    1    3    3    0    0  0.33943221918E+02  0.33792057743E+01  0.20339744805E+03  0.24120860540E+03  0.12509000000E+03 0.  0.
         25    1    4    4    0    0 -0.35396194577E+02 -0.21868953088E+02  0.57096989856E+03  0.58599084879E+03  0.12509000000E+03 0.  0.
         25    1    4    4    0    0  0.14529726596E+01  0.18489747314E+02  0.87474940415E+03  0.88384275188E+03  0.12509000000E+03 0.  0.
<mgrwt>
<rscale>  2 0.45615718E+03</rscale>
<asrwt>0</asrwt>
<pdfrwt beam="1">  1       21 0.24707045E+00 0.45615718E+03</pdfrwt>
<pdfrwt beam="2">  1       21 0.45533434E-02 0.45615718E+03</pdfrwt>
<totfact> 0.18862981E+04</totfact>
</mgrwt>
</event>
<event>
 7    0  0.4750554E-002  0.4393417E+03  0.7546771E-02  0.1030949E+00
         21   -1    0    0  502  501  0.00000000000E+00  0.00000000000E+00  0.90341738393E+02  0.90341738393E+02  0.00000000000E+00 0.  1.
         21   -1    0    0  501  502 -0.00000000000E+00 -0.00000000000E+00 -0.53414156200E+03  0.53414156200E+03  0.00000000000E+00 0.  1.
      99926    2    1    2    0    0 -0.71054273576E-14  0.14210854715E-13 -0.44379982361E+03  0.62448330040E+03  0.43934167687E+03 0.  0.
      99925    2    3    3    0    0 -0.35679370429E+02  0.88468452820E+02 -0.31525972565E+03  0.42133372618E+03  0.26274270606E+03 0.  0.
         25    1    3    3    0    0  0.35679370429E+02 -0.88468452820E+02 -0.12854009796E+03  0.20314957421E+03  0.12509000000E+03 0.  0.
         25    1    4    4    0    0 -0.42108464244E+02  0.63493527022E+02 -0.12711828157E+03  0.19393585626E+03  0.12509000000E+03 0.  0.
         25    1    4    4    0    0  0.64290938141E+01  0.24974925798E+02 -0.18814144408E+03  0.22739786992E+03  0.12509000000E+03 0.  0.
<mgrwt>
<rscale>  2 0.43934168E+03</rscale>
<asrwt>0</asrwt>
<pdfrwt beam="1">  1       21 0.13285550E-01 0.43934168E+03</pdfrwt>
<pdfrwt beam="2">  1       21 0.78550230E-01 0.43934168E+03</pdfrwt>
<totfact> 0.64848122E+04</totfact>
</mgrwt>
</event>
<event>
 7    0  0.4750554E-002  0.4561762E+03  0.7546771E-02  0.1025896E+00
         21   -1    0    0  502  501  0.00000000000E+00  0.00000000000E+00  0.68418300107E+02  0.68418300107E+02  0.00000000000E+00 0.  1.
         21   -1    0    0  501  502 -0.00000000000E+00 -0.00000000000E+00 -0.76038390340E+03  0.76038390340E+03  0.00000000000E+00 0.  1.
      99926    2    1    2    0    0  0.71054273576E-14  0.00000000000E+00 -0.69196560329E+03  0.82880220351E+03  0.45617616816E+03 0.  0.
      99925    2    3    3    0    0  0.54161725925E+02 -0.86763906833E+02 -0.34209445770E+03  0.44342084083E+03  0.26292956472E+03 0.  0.
         25    1    4    4    0    0  0.32809870287E+02 -0.97825674552E+01 -0.12269075246E+03  0.17852931147E+03  0.12509000000E+03 0.  0.
         25    1    3    3    0    0 -0.54161725925E+02  0.86763906833E+02 -0.34987114559E+03  0.38538136268E+03  0.12509000000E+03 0.  0.
         25    1    4    4    0    0  0.21351855639E+02 -0.76981339378E+02 -0.21940370524E+03  0.26489152936E+03  0.12509000000E+03 0.  0.
<mgrwt>
<rscale>  2 0.45617617E+03</rscale>
<asrwt>0</asrwt>
<pdfrwt beam="1">  1       21 0.10061515E-01 0.45617617E+03</pdfrwt>
<pdfrwt beam="2">  1       21 0.11182116E+00 0.45617617E+03</pdfrwt>
<totfact> 0.45977259E+04</totfact>
</mgrwt>
</event>
<event>
 7    0  0.4750554E-002  0.4478451E+03  0.7546771E-02  0.1028367E+00
         21   -1    0    0  502  501  0.00000000000E+00  0.00000000000E+00  0.23575983041E+03  0.23575983041E+03  0.00000000000E+00 0. -1.
         21   -1    0    0  501  502 -0.00000000000E+00 -0.00000000000E+00 -0.21267965057E+03  0.21267965057E+03  0.00000000000E+00 0. -1.
      99926    2    1    2    0    0 -0.71054273576E-14  0.14210854715E-13  0.23080179839E+02  0.44843948097E+03  0.44784514444E+03 0.  0.
      99925    2    3    3    0    0 -0.54254446883E+02  0.90578611601E+02  0.81193251106E+01  0.28406379798E+03  0.26358734415E+03 0.  0.
         25    1    4    4    0    0  0.77894911612E+01  0.52375825971E+02 -0.17803793682E+02  0.13699776089E+03  0.12509000000E+03 0.  0.
         25    1    4    4    0    0 -0.62043938044E+02  0.38202785630E+02  0.25923118793E+02  0.14706603709E+03  0.12509000000E+03 0.  0.
         25    1    3    3    0    0  0.54254446883E+02 -0.90578611601E+02  0.14960854728E+02  0.16437568300E+03  0.12509000000E+03 0.  0.
<mgrwt>
<rscale>  2 0.44784514E+03</rscale>
<asrwt>0</asrwt>
<pdfrwt beam="1">  1       21 0.34670564E-01 0.44784514E+03</pdfrwt>
<pdfrwt beam="2">  1       21 0.31276419E-01 0.44784514E+03</pdfrwt>
<totfact> 0.73114775E+04</totfact>
</mgrwt>
</event>
<event>
 7    0  0.4750554E-002  0.4547856E+03  0.7546771E-02  0.1026304E+00
         21   -1    0    0  502  501  0.00000000000E+00  0.00000000000E+00  0.12184743646E+04  0.12184743646E+04  0.00000000000E+00 0. -1.
         21   -1    0    0  501  502 -0.00000000000E+00 -0.00000000000E+00 -0.42436243450E+02  0.42436243450E+02  0.00000000000E+00 0. -1.
      99926    2    1    2    0    0  0.17763568394E-14  0.00000000000E+00  0.11760381212E+04  0.12609106081E+04  0.45478555287E+03 0.  0.
      99925    2    3    3    0    0 -0.11343935303E+02  0.11197033346E+03  0.71160026428E+03  0.76693077907E+03  0.26294836627E+03 0.  0.
         25    1    3    3    0    0  0.11343935303E+02 -0.11197033346E+03  0.46443785691E+03  0.49397982902E+03  0.12509000000E+03 0.  0.
         25    1    4    4    0    0 -0.14066419450E+01  0.99644261979E+02  0.39814711317E+03  0.42906828060E+03  0.12509000000E+03 0.  0.
         25    1    4    4    0    0 -0.99372933582E+01  0.12326071483E+02  0.31345315111E+03  0.33786249847E+03  0.12509000000E+03 0.  0.
<mgrwt>
<rscale>  2 0.45478555E+03</rscale>
<asrwt>0</asrwt>
<pdfrwt beam="1">  1       21 0.17918738E+00 0.45478555E+03</pdfrwt>
<pdfrwt beam="2">  1       21 0.62406248E-02 0.45478555E+03</pdfrwt>
<totfact> 0.30321972E+04</totfact>
</mgrwt>
</event>
<event>
 7    0  0.4750554E-002  0.4617176E+03  0.7546771E-02  0.1024284E+00
         21   -1    0    0  502  501  0.00000000000E+00  0.00000000000E+00  0.28616857732E+03  0.28616857732E+03  0.00000000000E+00 0. -1.
         21   -1    0    0  501  502 -0.00000000000E+00 -0.00000000000E+00 -0.18623910897E+03  0.18623910897E+03  0.00000000000E+00 0. -1.
      99926    2    1    2    0    0  0.00000000000E+00  0.00000000000E+00  0.99929468348E+02  0.47240768629E+03  0.46171757972E+03 0.  0.
      99925    2    3    3    0    0 -0.43668469450E+02  0.85257200566E+02  0.13539009601E+03  0.31091251705E+03  0.26298363008E+03 0.  0.
         25    1    4    4    0    0 -0.25134777622E+02  0.28915849668E+02  0.10832659270E+03  0.16985300172E+03  0.12509000000E+03 0.  0.
         25    1    4    4    0    0 -0.18533691828E+02  0.56341350898E+02  0.27063503307E+02  0.14105951533E+03  0.12509000000E+03 0.  0.
         25    1    3    3    0    0  0.43668469450E+02 -0.85257200566E+02 -0.35460627660E+02  0.16149516924E+03  0.12509000000E+03 0.  0.
<mgrwt>
<rscale>  2 0.46171758E+03</rscale>
<asrwt>0</asrwt>
<pdfrwt beam="1">  1       21 0.42083614E-01 0.46171758E+03</pdfrwt>
<pdfrwt beam="2">  1       21 0.27388104E-01 0.46171758E+03</pdfrwt>
<totfact> 0.63789104E+04</totfact>
</mgrwt>
</event>
<event>
 7    0  0.4750554E-002  0.4568752E+03  0.7546771E-02  0.1025691E+00
         21   -1    0    0  502  501  0.00000000000E+00  0.00000000000E+00  0.25534473856E+03  0.25534473856E+03  0.00000000000E+00 0.  1.
         21   -1    0    0  501  502 -0.00000000000E+00 -0.00000000000E+00 -0.20436583295E+03  0.20436583295E+03  0.00000000000E+00 0.  1.
      99926    2    1    2    0    0  0.00000000000E+00  0.71054273576E-14  0.50978905615E+02  0.45971057151E+03  0.45687521353E+03 0.  0.
      99925    2    3    3    0    0  0.82677132547E+02  0.52884370518E+02  0.92168139429E+02  0.29546585782E+03  0.26300730469E+03 0.  0.
         25    1    3    3    0    0 -0.82677132547E+02 -0.52884370518E+02 -0.41189233814E+02  0.16424471368E+03  0.12509000000E+03 0.  0.
         25    1    4    4    0    0  0.14255432579E+01  0.20062100369E+02  0.27715645095E+02  0.12969265641E+03  0.12509000000E+03 0.  0.
         25    1    4    4    0    0  0.81251589289E+02  0.32822270149E+02  0.64452494334E+02  0.16577320141E+03  0.12509000000E+03 0.  0.
<mgrwt>
<rscale>  2 0.45687521E+03</rscale>
<asrwt>0</asrwt>
<pdfrwt beam="1">  1       21 0.37550697E-01 0.45687521E+03</pdfrwt>
<pdfrwt beam="2">  1       21 0.30053799E-01 0.45687521E+03</pdfrwt>
<totfact> 0.67191096E+04</totfact>
</mgrwt>
</event>
<event>
 7    0  0.4750554E-002  0.4583042E+03  0.7546771E-02  0.1025274E+00
         21   -1    0    0  502  501  0.00000000000E+00  0.00000000000E+00  0.27684482910E+03  0.27684482910E+03  0.00000000000E+00 0.  1.
         21   -1    0    0  501  502 -0.00000000000E+00 -0.00000000000E+00 -0.18967550490E+03  0.18967550490E+03  0.00000000000E+00 0.  1.
      99926    2    1    2    0    0  0.00000000000E+00 -0.71054273576E-14  0.87169324201E+02  0.46652033399E+03  0.45830419041E+03 0.  0.
      99925    2    3    3    0    0  0.94649764778E+02  0.49748158696E+02  0.81359274558E+01  0.28396282753E+03  0.26293580364E+03 0.  0.
         25    1    4    4    0    0  0.31465799866E+02 -0.96783383323E+01  0.21627772630E+02  0.13114509310E+03  0.12509000000E+03 0.  0.
         25    1    4    4    0    0  0.63183964911E+02  0.59426497028E+02 -0.13491845174E+02  0.15281773443E+03  0.12509000000E+03 0.  0.
         25    1    3    3    0    0 -0.94649764778E+02 -0.49748158696E+02  0.79033396746E+02  0.18255750647E+03  0.12509000000E+03 0.  0.
<mgrwt>
<rscale>  2 0.45830419E+03</rscale>
<asrwt>0</asrwt>
<pdfrwt beam="1">  1       21 0.40712475E-01 0.45830419E+03</pdfrwt>
<pdfrwt beam="2">  1       21 0.27893456E-01 0.45830419E+03</pdfrwt>
<totfact> 0.65948187E+04</totfact>
</mgrwt>
</event>
<event>
 7    0  0.4750554E-002  0.4594056E+03  0.7546771E-02  0.1024954E+00
         21   -1    0    0  502  501  0.00000000000E+00  0.00000000000E+00  0.28858777146E+03  0.28858777146E+03  0.00000000000E+00 0. -1.
         21   -1    0    0  501  502 -0.00000000000E+00 -0.00000000000E+00 -0.18283299592E+03  0.18283299592E+03  0.00000000000E+00 0. -1.
      99926    2    1    2    0    0  0.71054273576E-14  0.00000000000E+00  0.10575477553E+03  0.47142076738E+03  0.45940555871E+03 0.  0.
      99925    2    3    3    0    0  0.34400788439E+02 -0.11148058257E+03  0.52929600475E+02  0.29239746790E+03  0.26283721596E+03 0.  0.
         25    1    4    4    0    0  0.84944553571E+01 -0.94796663085E+02  0.44173799928E+02  0.16327092761E+03  0.12509000000E+03 0.  0.
         25    1    3    3    0    0 -0.34400788439E+02  0.11148058257E+03  0.52825175058E+02  0.17902329948E+03  0.12509000000E+03 0.  0.
         25    1    4    4    0    0  0.25906333082E+02 -0.16683919490E+02  0.87558005473E+01  0.12912654029E+03  0.12509000000E+03 0.  0.
<mgrwt>
<rscale>  2 0.45940556E+03</rscale>
<asrwt>0</asrwt>
<pdfrwt beam="1">  1       21 0.42439378E-01 0.45940556E+03</pdfrwt>
<pdfrwt beam="2">  1       21 0.26887205E-01 0.45940556E+03</pdfrwt>
<totfact> 0.65027944E+04</totfact>
</mgrwt>
</event>
<event>
 7    0  0.4750554E-002  0.4538964E+03  0.7546771E-02  0.1026566E+00
         21   -1    0    0  502  501  0.00000000000E+00  0.00000000000E+00  0.10415223568E+03  0.10415223568E+03  0.00000000000E+00 0.  1.
         21   -1    0    0  501  502 -0.00000000000E+00 -0.00000000000E+00 -0.49452120129E+03  0.49452120129E+03  0.00000000000E+00 0.  1.
      99926    2    1    2    0    0  0.00000000000E+00  0.00000000000E+00 -0.39036896561E+03  0.59867343697E+03  0.45389641420E+03 0.  0.
      99925    2    3    3    0    0  0.40760206238E+02 -0.52894994073E+02 -0.36458267466E+03  0.45454947744E+03  0.26312625481E+03 0.  0.
         25    1    4    4    0    0 -0.49353402167E+01 -0.11077828885E+02 -0.12491253187E+03  0.17719403092E+03  0.12509000000E+03 0.  0.
         25    1    3    3    0    0 -0.40760206238E+02  0.52894994073E+02 -0.25786290952E+02  0.14412395953E+03  0.12509000000E+03 0.  0.
         25    1    4    4    0    0  0.45695546454E+02 -0.41817165188E+02 -0.23967014278E+03  0.27735544652E+03  0.12509000000E+03 0.  0.
<mgrwt>
<rscale>  2 0.45389641E+03</rscale>
<asrwt>0</asrwt>
<pdfrwt beam="1">  1       21 0.15316505E-01 0.45389641E+03</pdfrwt>
<pdfrwt beam="2">  1       21 0.72723707E-01 0.45389641E+03</pdfrwt>
<totfact> 0.59275186E+04</totfact>
</mgrwt>
</event>
<event>
 7    0  0.4750554E-002  0.4740466E+03  0.7546771E-02  0.1020784E+00
         21   -1    0    0  502  501  0.00000000000E+00  0.00000000000E+00  0.57039807025E+03  0.57039807025E+03  0.00000000000E+00 0.  1.
         21   -1    0    0  501  502 -0.00000000000E+00 -0.00000000000E+00 -0.98492680565E+02  0.98492680565E+02  0.00000000000E+00 0.  1.
      99926    2    1    2    0    0  0.00000000000E+00  0.28421709430E-13  0.47190538968E+03  0.66889075081E+03  0.47404655859E+03 0.  0.
      99925    2    3    3    0    0 -0.34402154709E+01 -0.12992661292E+03  0.28092364410E+03  0.40618503129E+03  0.26301221644E+03 0.  0.
         25    1    3    3    0    0  0.34402154709E+01  0.12992661292E+03  0.19098174558E+03  0.26270571953E+03  0.12509000000E+03 0.  0.
         25    1    4    4    0    0 -0.24208822238E+02 -0.79816686697E+02  0.10396366272E+03  0.18279147085E+03  0.12509000000E+03 0.  0.
         25    1    4    4    0    0  0.20768606767E+02 -0.50109926222E+02  0.17695998139E+03  0.22339356044E+03  0.12509000000E+03 0.  0.
<mgrwt>
<rscale>  2 0.47404656E+03</rscale>
<asrwt>0</asrwt>
<pdfrwt beam="1">  1       21 0.83882067E-01 0.47404656E+03</pdfrwt>
<pdfrwt beam="2">  1       21 0.14484218E-01 0.47404656E+03</pdfrwt>
<totfact> 0.47136980E+04</totfact>
</mgrwt>
</event>
<event>
 7    0  0.4750554E-002  0.4703568E+03  0.7546771E-02  0.1021820E+00
         21   -1    0    0  502  501  0.00000000000E+00  0.00000000000E+00  0.14341683241E+03  0.14341683241E+03  0.00000000000E+00 0. -1.
         21   -1    0    0  501  502 -0.00000000000E+00 -0.00000000000E+00 -0.38565118352E+03  0.38565118352E+03  0.00000000000E+00 0. -1.
      99926    2    1    2    0    0  0.00000000000E+00  0.00000000000E+00 -0.24223435111E+03  0.52906801594E+03  0.47035676314E+03 0.  0.
      99925    2    3    3    0    0 -0.74784065017E+02 -0.71484344312E+02 -0.67431361666E+02  0.29051768355E+03  0.26296552637E+03 0.  0.
         25    1    4    4    0    0 -0.75959122143E+02 -0.31143917799E+02 -0.50892944725E+02  0.15804218353E+03  0.12509000000E+03 0.  0.
         25    1    3    3    0    0  0.74784065017E+02  0.71484344312E+02 -0.17480298944E+03  0.23855033238E+03  0.12509000000E+03 0.  0.
         25    1    4    4    0    0  0.11750571262E+01 -0.40340426513E+02 -0.16538416941E+02  0.13247550002E+03  0.12509000000E+03 0.  0.
<mgrwt>
<rscale>  2 0.47035676E+03</rscale>
<asrwt>0</asrwt>
<pdfrwt beam="1">  1       21 0.21090711E-01 0.47035676E+03</pdfrwt>
<pdfrwt beam="2">  1       21 0.56713408E-01 0.47035676E+03</pdfrwt>
<totfact> 0.56118148E+04</totfact>
</mgrwt>
</event>
<event>
 7    0  0.4750554E-002  0.4510306E+03  0.7546771E-02  0.1027415E+00
         21   -1    0    0  502  501  0.00000000000E+00  0.00000000000E+00  0.51625797371E+02  0.51625797371E+02  0.00000000000E+00 0.  1.
         21   -1    0    0  501  502 -0.00000000000E+00 -0.00000000000E+00 -0.98511113718E+03  0.98511113718E+03  0.00000000000E+00 0.  1.
      99926    2    1    2    0    0 -0.14210854715E-13 -0.17763568394E-14 -0.93348533981E+03  0.10367369345E+04  0.45103058857E+03 0.  0.
      99925    2    3    3    0    0  0.10213095307E+03 -0.91777810421E+01 -0.67718236475E+03  0.73366320364E+03  0.26300338024E+03 0.  0.
         25    1    3    3    0    0 -0.10213095307E+03  0.91777810421E+01 -0.25630297506E+03  0.30307373090E+03  0.12509000000E+03 0.  0.
         25    1    4    4    0    0  0.69803587305E+02 -0.41171238714E+02 -0.34628886407E+03  0.37700278139E+03  0.12509000000E+03 0.  0.
         25    1    4    4    0    0  0.32327365763E+02  0.31993457672E+02 -0.33089350068E+03  0.35666042226E+03  0.12509000000E+03 0.  0.
<mgrwt>
<rscale>  2 0.45103059E+03</rscale>
<asrwt>0</asrwt>
<pdfrwt beam="1">  1       21 0.75920293E-02 0.45103059E+03</pdfrwt>
<pdfrwt beam="2">  1       21 0.14486928E+00 0.45103059E+03</pdfrwt>
<totfact> 0.38961194E+04</totfact>
</mgrwt>
</event>
<event>
 7    0  0.4750554E-002  0.4612393E+03  0.7546771E-02  0.1024422E+00
         21   -1    0    0  502  501  0.00000000000E+00  0.00000000000E+00  0.81456472169E+02  0.81456472169E+02  0.00000000000E+00 0.  1.
         21   -1    0    0  501  502 -0.00000000000E+00 -0.00000000000E+00 -0.65293073386E+03  0.65293073386E+03  0.00000000000E+00 0.  1.
      99926    2    1    2    0    0 -0.17763568394E-14  0.00000000000E+00 -0.57147426169E+03  0.73438720603E+03  0.46123934850E+03 0.  0.
      99925    2    3    3    0    0  0.10644410234E+02  0.11224814128E+03 -0.29744983026E+03  0.41275100501E+03  0.26300958523E+03 0.  0.
         25    1    3    3    0    0 -0.10644410234E+02 -0.11224814128E+03 -0.27402443142E+03  0.32163620102E+03  0.12509000000E+03 0.  0.
         25    1    4    4    0    0 -0.27977023634E+02  0.62940717610E+02 -0.11819856714E+03  0.18537167302E+03  0.12509000000E+03 0.  0.
         25    1    4    4    0    0  0.38621433868E+02  0.49307423665E+02 -0.17925126313E+03  0.22737933199E+03  0.12509000000E+03 0.  0.
<mgrwt>
<rscale>  2 0.46123935E+03</rscale>
<asrwt>0</asrwt>
<pdfrwt beam="1">  1       21 0.11978893E-01 0.46123935E+03</pdfrwt>
<pdfrwt beam="2">  1       21 0.96019227E-01 0.46123935E+03</pdfrwt>
<totfact> 0.48644711E+04</totfact>
</mgrwt>
</event>
<event>
 7    0  0.4750554E-002  0.4724206E+03  0.7546771E-02  0.1021239E+00
         21   -1    0    0  502  501  0.00000000000E+00  0.00000000000E+00  0.21170621220E+03  0.21170621220E+03  0.00000000000E+00 0. -1.
         21   -1    0    0  501  502 -0.00000000000E+00 -0.00000000000E+00 -0.26355067592E+03  0.26355067592E+03  0.00000000000E+00 0. -1.
      99926    2    1    2    0    0  0.00000000000E+00  0.00000000000E+00 -0.51844463727E+02  0.47525688812E+03  0.47242064020E+03 0.  0.
      99925    2    3    3    0    0  0.34229471725E+02  0.65392452018E+02 -0.13848292157E+03  0.30613693072E+03  0.26285827221E+03 0.  0.
         25    1    4    4    0    0  0.57010481283E+01  0.31195535352E+02 -0.24952812324E+02  0.13143749206E+03  0.12509000000E+03 0.  0.
         25    1    3    3    0    0 -0.34229471725E+02 -0.65392452018E+02  0.86638457843E+02  0.16911995741E+03  0.12509000000E+03 0.  0.
         25    1    4    4    0    0  0.28528423597E+02  0.34196916666E+02 -0.11353010925E+03  0.17469943866E+03  0.12509000000E+03 0.  0.
<mgrwt>
<rscale>  2 0.47242064E+03</rscale>
<asrwt>0</asrwt>
<pdfrwt beam="1">  1       21 0.31133267E-01 0.47242064E+03</pdfrwt>
<pdfrwt beam="2">  1       21 0.38757452E-01 0.47242064E+03</pdfrwt>
<totfact> 0.58519903E+04</totfact>
</mgrwt>
</event>
<event>
 7    0  0.4750554E-002  0.4369692E+03  0.7546771E-02  0.1031681E+00
         21   -1    0    0  502  501  0.00000000000E+00  0.00000000000E+00  0.21527622373E+03  0.21527622373E+03  0.00000000000E+00 0.  1.
         21   -1    0    0  501  502 -0.00000000000E+00 -0.00000000000E+00 -0.22174077444E+03  0.22174077444E+03  0.00000000000E+00 0.  1.
      99926    2    1    2    0    0  0.35527136788E-14  0.00000000000E+00 -0.64645507036E+01  0.43701699817E+03  0.43696918230E+03 0.  0.
      99925    2    3    3    0    0 -0.22974069835E+02  0.92448439055E+02 -0.89368412511E+01  0.27976515529E+03  0.26289570787E+03 0.  0.
         25    1    3    3    0    0  0.22974069835E+02 -0.92448439055E+02  0.24722905475E+01  0.15725184288E+03  0.12509000000E+03 0.  0.
         25    1    4    4    0    0 -0.84665519695E+01  0.60170508983E+02  0.33443673931E+02  0.14303202466E+03  0.12509000000E+03 0.  0.
         25    1    4    4    0    0 -0.14507517865E+02  0.32277930072E+02 -0.42380515182E+02  0.13673313063E+03  0.12509000000E+03 0.  0.
<mgrwt>
<rscale>  2 0.43696918E+03</rscale>
<asrwt>0</asrwt>
<pdfrwt beam="1">  1       21 0.31658268E-01 0.43696918E+03</pdfrwt>
<pdfrwt beam="2">  1       21 0.32608937E-01 0.43696918E+03</pdfrwt>
<totfact> 0.80912850E+04</totfact>
</mgrwt>
</event>
<event>
 7    0  0.4750554E-002  0.4568788E+03  0.7546771E-02  0.1025690E+00
         21   -1    0    0  502  501  0.00000000000E+00  0.00000000000E+00  0.27208817540E+03  0.27208817540E+03  0.00000000000E+00 0. -1.
         21   -1    0    0  501  502 -0.00000000000E+00 -0.00000000000E+00 -0.19179281903E+03  0.19179281903E+03  0.00000000000E+00 0. -1.
      99926    2    1    2    0    0  0.00000000000E+00  0.00000000000E+00  0.80295356370E+02  0.46388099444E+03  0.45687879437E+03 0.  0.
      99925    2    3    3    0    0  0.45492513160E+02  0.10253008695E+03  0.76018017059E+02  0.29581020217E+03  0.26295046930E+03 0.  0.
         25    1    4    4    0    0  0.53842288810E+00  0.16393520974E+02  0.47868003483E+02  0.13493661952E+03  0.12509000000E+03 0.  0.
         25    1    4    4    0    0  0.44954090272E+02  0.86136565976E+02  0.28150013576E+02  0.16087358265E+03  0.12509000000E+03 0.  0.
         25    1    3    3    0    0 -0.45492513160E+02 -0.10253008695E+03  0.42773393107E+01  0.16807079227E+03  0.12509000000E+03 0.  0.
<mgrwt>
<rscale>  2 0.45687879E+03</rscale>
<asrwt>0</asrwt>
<pdfrwt beam="1">  1       21 0.40012967E-01 0.45687879E+03</pdfrwt>
<pdfrwt beam="2">  1       21 0.28204826E-01 0.45687879E+03</pdfrwt>
<totfact> 0.66888665E+04</totfact>
</mgrwt>
</event>
<event>
 7    0  0.4750554E-002  0.4628483E+03  0.7546771E-02  0.1023958E+00
         21   -1    0    0  502  501  0.00000000000E+00  0.00000000000E+00  0.21863694704E+03  0.21863694704E+03  0.00000000000E+00 0.  1.
         21   -1    0    0  501  502 -0.00000000000E+00 -0.00000000000E+00 -0.24495923616E+03  0.24495923616E+03  0.00000000000E+00 0.  1.
      99926    2    1    2    0    0  0.14210854715E-13  0.35527136788E-14 -0.26322289114E+02  0.46359618320E+03  0.46284831011E+03 0.  0.
      99925    2    3    3    0    0  0.11081843246E+03  0.18645167638E+02  0.26553138275E+02  0.28732455709E+03  0.26310067408E+03 0.  0.
         25    1    4    4    0    0  0.34282864494E+02  0.12419044418E+02 -0.23194860750E+02  0.13234446391E+03  0.12509000000E+03 0.  0.
         25    1    4    4    0    0  0.76535567970E+02  0.62261232200E+01  0.49747999024E+02  0.15498009318E+03  0.12509000000E+03 0.  0.
         25    1    3    3    0    0 -0.11081843246E+03 -0.18645167638E+02 -0.52875427388E+02  0.17627162611E+03  0.12509000000E+03 0.  0.
<mgrwt>
<rscale>  2 0.46284831E+03</rscale>
<asrwt>0</asrwt>
<pdfrwt beam="1">  1       21 0.32152492E-01 0.46284831E+03</pdfrwt>
<pdfrwt beam="2">  1       21 0.36023417E-01 0.46284831E+03</pdfrwt>
<totfact> 0.63828990E+04</totfact>
</mgrwt>
</event>
<event>
 7    0  0.4750554E-002  0.4504160E+03  0.7546771E-02  0.1027598E+00
         21   -1    0    0  502  501  0.00000000000E+00  0.00000000000E+00  0.10411035479E+03  0.10411035479E+03  0.00000000000E+00 0. -1.
         21   -1    0    0  501  502 -0.00000000000E+00 -0.00000000000E+00 -0.48716239901E+03  0.48716239901E+03  0.00000000000E+00 0. -1.
      99926    2    1    2    0    0  0.00000000000E+00  0.00000000000E+00 -0.38305204421E+03  0.59127275380E+03  0.45041603081E+03 0.  0.
      99925    2    3    3    0    0 -0.61380764017E+02 -0.67943085252E+02 -0.16499617400E+03  0.32372886644E+03  0.26304520621E+03 0.  0.
         25    1    4    4    0    0 -0.22600827961E+02 -0.23383320590E+02 -0.35013760173E+02  0.13390686542E+03  0.12509000000E+03 0.  0.
         25    1    4    4    0    0 -0.38779936056E+02 -0.44559764662E+02 -0.12998241383E+03  0.18982200102E+03  0.12509000000E+03 0.  0.
         25    1    3    3    0    0  0.61380764017E+02  0.67943085252E+02 -0.21805587022E+03  0.26754388735E+03  0.12509000000E+03 0.  0.
<mgrwt>
<rscale>  2 0.45041603E+03</rscale>
<asrwt>0</asrwt>
<pdfrwt beam="1">  1       21 0.15310346E-01 0.45041603E+03</pdfrwt>
<pdfrwt beam="2">  1       21 0.71641529E-01 0.45041603E+03</pdfrwt>
<totfact> 0.61413492E+04</totfact>
</mgrwt>
</event>
<event>
 7    0  0.4750554E-002  0.4538969E+03  0.7546771E-02  0.1026566E+00
         21   -1    0    0  502  501  0.00000000000E+00  0.00000000000E+00  0.11404772032E+03  0.11404772032E+03  0.00000000000E+00 0. -1.
         21   -1    0    0  501  502 -0.00000000000E+00 -0.00000000000E+00 -0.45161445860E+03  0.45161445860E+03  0.00000000000E+00 0. -1.
      99926    2    1    2    0    0  0.00000000000E+00  0.00000000000E+00 -0.33756673828E+03  0.56566217891E+03  0.45389690223E+03 0.  0.
      99925    2    3    3    0    0 -0.83616296764E+02 -0.67471991724E+02 -0.25274192685E+03  0.38022509663E+03  0.26296100047E+03 0.  0.
         25    1    3    3    0    0  0.83616296764E+02  0.67471991724E+02 -0.84824811431E+02  0.18543708228E+03  0.12509000000E+03 0.  0.
         25    1    4    4    0    0 -0.27167697848E+02 -0.54557152455E+02 -0.84775574475E+02  0.16293855534E+03  0.12509000000E+03 0.  0.
         25    1    4    4    0    0 -0.56448598917E+02 -0.12914839269E+02 -0.16796635237E+03  0.21728654128E+03  0.12509000000E+03 0.  0.
<mgrwt>
<rscale>  2 0.45389690E+03</rscale>
<asrwt>0</asrwt>
<pdfrwt beam="1">  1       21 0.16771723E-01 0.45389690E+03</pdfrwt>
<pdfrwt beam="2">  1       21 0.66413892E-01 0.45389690E+03</pdfrwt>
<totfact> 0.61376961E+04</totfact>
</mgrwt>
</event>
<event>
 7    0  0.4750554E-002  0.4471201E+03  0.7546771E-02  0.1028584E+00
         21   -1    0    0  502  501  0.00000000000E+00  0.00000000000E+00  0.19713185490E+04  0.19713185490E+04  0.00000000000E+00 0. -1.
         21   -1    0    0  501  502 -0.00000000000E+00 -0.00000000000E+00 -0.25353124781E+02  0.25353124781E+02  0.00000000000E+00 0. -1.
      99926    2    1    2    0    0  0.00000000000E+00 -0.71054273576E-14  0.19459654242E+04  0.19966716738E+04  0.44712005169E+03 0.  0.
      99925    2    3    3    0    0  0.35491658499E+02  0.50785411143E+02  0.16150542406E+04  0.16375219343E+04  0.26313317827E+03 0.  0.
         25    1    4    4    0    0  0.32203165038E+02  0.63116963787E+02  0.79742901606E+03  0.81028472694E+03  0.12509000000E+03 0.  0.
         25    1    3    3    0    0 -0.35491658499E+02 -0.50785411143E+02  0.33091118364E+03  0.35914973948E+03  0.12509000000E+03 0.  0.
         25    1    4    4    0    0  0.32884934613E+01 -0.12331552644E+02  0.81762522452E+03  0.82723720737E+03  0.12509000000E+03 0.  0.
<mgrwt>
<rscale>  2 0.44712005E+03</rscale>
<asrwt>0</asrwt>
<pdfrwt beam="1">  1       21 0.28989968E+00 0.44712005E+03</pdfrwt>
<pdfrwt beam="2">  1       21 0.37284021E-02 0.44712005E+03</pdfrwt>
<totfact> 0.14639260E+04</totfact>
</mgrwt>
</event>
<event>
 7    0  0.4750554E-002  0.4522781E+03  0.7546771E-02  0.1027045E+00
         21   -1    0    0  502  501  0.00000000000E+00  0.00000000000E+00  0.56970473785E+03  0.56970473785E+03  0.00000000000E+00 0. -1.
         21   -1    0    0  501  502 -0.00000000000E+00 -0.00000000000E+00 -0.89763828209E+02  0.89763828209E+02  0.00000000000E+00 0. -1.
      99926    2    1    2    0    0  0.17763568394E-14 -0.35527136788E-14  0.47994090964E+03  0.65946856605E+03  0.45227813663E+03 0.  0.
      99925    2    3    3    0    0 -0.45261968101E+01 -0.22911831577E+02  0.14511210876E+03  0.30127410423E+03  0.26298882731E+03 0.  0.
         25    1    4    4    0    0  0.22068131407E+02  0.20991065733E+02  0.74185069789E+02  0.14858855926E+03  0.12509000000E+03 0.  0.
         25    1    3    3    0    0  0.45261968101E+01  0.22911831577E+02  0.33482880087E+03  0.35819446182E+03  0.12509000000E+03 0.  0.
         25    1    4    4    0    0 -0.26594328217E+02 -0.43902897310E+02  0.70927038973E+02  0.15268554497E+03  0.12509000000E+03 0.  0.
<mgrwt>
<rscale>  2 0.45227814E+03</rscale>
<asrwt>0</asrwt>
<pdfrwt beam="1">  1       21 0.83780107E-01 0.45227814E+03</pdfrwt>
<pdfrwt beam="2">  1       21 0.13200563E-01 0.45227814E+03</pdfrwt>
<totfact> 0.56358851E+04</totfact>
</mgrwt>
</event>
<event>
 7    0  0.4750554E-002  0.4526342E+03  0.7546771E-02  0.1026939E+00
         21   -1    0    0  502  501  0.00000000000E+00  0.00000000000E+00  0.90990924291E+03  0.90990924291E+03  0.00000000000E+00 0. -1.
         21   -1    0    0  501  502 -0.00000000000E+00 -0.00000000000E+00 -0.56290691113E+02  0.56290691113E+02  0.00000000000E+00 0. -1.
      99926    2    1    2    0    0  0.00000000000E+00  0.00000000000E+00  0.85361855180E+03  0.96619993403E+03  0.45263415750E+03 0.  0.
      99925    2    3    3    0    0  0.39535077270E+02  0.59115834848E+02  0.72013517057E+03  0.76992709987E+03  0.26293605868E+03 0.  0.
         25    1    3    3    0    0 -0.39535077270E+02 -0.59115834848E+02  0.13348338123E+03  0.19627283416E+03  0.12509000000E+03 0.  0.
         25    1    4    4    0    0  0.26348092018E+02  0.57181703495E+02  0.46221157756E+03  0.48296068132E+03  0.12509000000E+03 0.  0.
         25    1    4    4    0    0  0.13186985252E+02  0.19341313529E+01  0.25792359301E+03  0.28696641855E+03  0.12509000000E+03 0.  0.
<mgrwt>
<rscale>  2 0.45263416E+03</rscale>
<asrwt>0</asrwt>
<pdfrwt beam="1">  1       21 0.13381017E+00 0.45263416E+03</pdfrwt>
<pdfrwt beam="2">  1       21 0.82780434E-02 0.45263416E+03</pdfrwt>
<totfact> 0.41249437E+04</totfact>
</mgrwt>
</event>
<event>
 7    0  0.4750554E-002  0.4630610E+03  0.7546771E-02  0.1023897E+00
         21   -1    0    0  502  501  0.00000000000E+00  0.00000000000E+00  0.38616804361E+03  0.38616804361E+03  0.00000000000E+00 0.  1.
         21   -1    0    0  501  502 -0.00000000000E+00 -0.00000000000E+00 -0.13881619286E+03  0.13881619286E+03  0.00000000000E+00 0.  1.
      99926    2    1    2    0    0  0.00000000000E+00  0.00000000000E+00  0.24735185074E+03  0.52498423647E+03  0.46306102241E+03 0.  0.
      99925    2    3    3    0    0 -0.74878821810E+02 -0.72492223359E+02  0.85909161862E+02  0.29569574941E+03  0.26304682421E+03 0.  0.
         25    1    4    4    0    0  0.36429018554E+01 -0.40125704253E+02  0.47017982325E+02  0.13957629325E+03  0.12509000000E+03 0.  0.
         25    1    3    3    0    0  0.74878821810E+02  0.72492223359E+02  0.16144268888E+03  0.22928848706E+03  0.12509000000E+03 0.  0.
         25    1    4    4    0    0 -0.78521723665E+02 -0.32366519106E+02  0.38891179537E+02  0.15611945616E+03  0.12509000000E+03 0.  0.
<mgrwt>
<rscale>  2 0.46306102E+03</rscale>
<asrwt>0</asrwt>
<pdfrwt beam="1">  1       21 0.56789418E-01 0.46306102E+03</pdfrwt>
<pdfrwt beam="2">  1       21 0.20414146E-01 0.46306102E+03</pdfrwt>
<totfact> 0.59642294E+04</totfact>
</mgrwt>
</event>
<event>
 7    0  0.4750554E-002  0.4538388E+03  0.7546771E-02  0.1026583E+00
         21   -1    0    0  502  501  0.00000000000E+00  0.00000000000E+00  0.37218954980E+03  0.37218954980E+03  0.00000000000E+00 0.  1.
         21   -1    0    0  501  502 -0.00000000000E+00 -0.00000000000E+00 -0.13834998552E+03  0.13834998552E+03  0.00000000000E+00 0.  1.
      99926    2    1    2    0    0  0.00000000000E+00  0.00000000000E+00  0.23383956428E+03  0.51053953531E+03  0.45383882083E+03 0.  0.
      99925    2    3    3    0    0 -0.39369561400E+02 -0.75529626998E+02  0.22930868939E+03  0.35913701272E+03  0.26294910527E+03 0.  0.
         25    1    4    4    0    0 -0.20175529309E+02 -0.71663821156E+02  0.15357546156E+03  0.21160266005E+03  0.12509000000E+03 0.  0.
         25    1    4    4    0    0 -0.19194032091E+02 -0.38658058419E+01  0.75733227821E+02  0.14753435267E+03  0.12509000000E+03 0.  0.
         25    1    3    3    0    0  0.39369561400E+02  0.75529626998E+02  0.45308748928E+01  0.15140252259E+03  0.12509000000E+03 0.  0.
<mgrwt>
<rscale>  2 0.45383882E+03</rscale>
<asrwt>0</asrwt>
<pdfrwt beam="1">  1       21 0.54733757E-01 0.45383882E+03</pdfrwt>
<pdfrwt beam="2">  1       21 0.20345586E-01 0.45383882E+03</pdfrwt>
<totfact> 0.65134546E+04</totfact>
</mgrwt>
</event>
<event>
 7    0  0.4750554E-002  0.4521192E+03  0.7546771E-02  0.1027092E+00
         21   -1    0    0  502  501  0.00000000000E+00  0.00000000000E+00  0.25561060829E+04  0.25561060829E+04  0.00000000000E+00 0. -1.
         21   -1    0    0  501  502 -0.00000000000E+00 -0.00000000000E+00 -0.19992493034E+02  0.19992493034E+02  0.00000000000E+00 0. -1.
      99926    2    1    2    0    0  0.00000000000E+00 -0.35527136788E-14  0.25361135899E+04  0.25760985759E+04  0.45211915711E+03 0.  0.
      99925    2    3    3    0    0  0.85109499606E+02  0.29730507658E+02  0.19636506643E+04  0.19832336341E+04  0.26299084776E+03 0.  0.
         25    1    4    4    0    0  0.27516313197E+02  0.16846933669E+02  0.68078754638E+03  0.69293589752E+03  0.12509000000E+03 0.  0.
         25    1    4    4    0    0  0.57593186409E+02  0.12883573989E+02  0.12828631180E+04  0.12902977366E+04  0.12509000000E+03 0.  0.
         25    1    3    3    0    0 -0.85109499606E+02 -0.29730507658E+02  0.57246292553E+03  0.59286494180E+03  0.12509000000E+03 0.  0.
<mgrwt>
<rscale>  2 0.45211916E+03</rscale>
<asrwt>0</asrwt>
<pdfrwt beam="1">  1       21 0.37589773E+00 0.45211916E+03</pdfrwt>
<pdfrwt beam="2">  1       21 0.29400743E-02 0.45211916E+03</pdfrwt>
<totfact> 0.65292880E+03</totfact>
</mgrwt>
</event>
<event>
 7    0  0.4750554E-002  0.4221614E+03  0.7546771E-02  0.1036365E+00
         21   -1    0    0  502  501  0.00000000000E+00  0.00000000000E+00  0.46225934158E+03  0.46225934158E+03  0.00000000000E+00 0.  1.
         21   -1    0    0  501  502 -0.00000000000E+00 -0.00000000000E+00 -0.96385420930E+02  0.96385420930E+02  0.00000000000E+00 0.  1.
      99926    2    1    2    0    0  0.00000000000E+00 -0.35527136788E-14  0.36587392065E+03  0.55864476251E+03  0.42216139670E+03 0.  0.
      99925    2    3    3    0    0 -0.64959871599E+02  0.18508053154E+02  0.29100884005E+03  0.39797547066E+03  0.26293724976E+03 0.  0.
         25    1    3    3    0    0  0.64959871599E+02 -0.18508053154E+02  0.74865080600E+02  0.16066929185E+03  0.12509000000E+03 0.  0.
         25    1    4    4    0    0 -0.67124559318E+02 -0.12494915992E+02  0.15733478449E+03  0.21228182188E+03  0.12509000000E+03 0.  0.
         25    1    4    4    0    0  0.21646877186E+01  0.31002969146E+02  0.13367405556E+03  0.18569364879E+03  0.12509000000E+03 0.  0.
<mgrwt>
<rscale>  2 0.42216140E+03</rscale>
<asrwt>0</asrwt>
<pdfrwt beam="1">  1       21 0.67979314E-01 0.42216140E+03</pdfrwt>
<pdfrwt beam="2">  1       21 0.14174327E-01 0.42216140E+03</pdfrwt>
<totfact> 0.80183545E+04</totfact>
</mgrwt>
</event>
<event>
 7    0  0.4750554E-002  0.4555344E+03  0.7546771E-02  0.1026084E+00
         21   -1    0    0  502  501  0.00000000000E+00  0.00000000000E+00  0.36647798474E+03  0.36647798474E+03  0.00000000000E+00 0. -1.
         21   -1    0    0  501  502 -0.00000000000E+00 -0.00000000000E+00 -0.14155798842E+03  0.14155798842E+03  0.00000000000E+00 0. -1.
      99926    2    1    2    0    0  0.00000000000E+00 -0.35527136788E-14  0.22491999632E+03  0.50803597316E+03  0.45553435137E+03 0.  0.
      99925    2    3    3    0    0  0.87453678535E+02  0.28873978849E+02  0.67228408124E+02  0.28668557756E+03  0.26303442546E+03 0.  0.
         25    1    4    4    0    0  0.52961245886E+02  0.46420203175E+02  0.10346041936E+02  0.14392455493E+03  0.12509000000E+03 0.  0.
         25    1    4    4    0    0  0.34492432649E+02 -0.17546224326E+02  0.56882366188E+02  0.14276102263E+03  0.12509000000E+03 0.  0.
         25    1    3    3    0    0 -0.87453678535E+02 -0.28873978849E+02  0.15769158820E+03  0.22135039560E+03  0.12509000000E+03 0.  0.
<mgrwt>
<rscale>  2 0.45553435E+03</rscale>
<asrwt>0</asrwt>
<pdfrwt beam="1">  1       21 0.53893821E-01 0.45553435E+03</pdfrwt>
<pdfrwt beam="2">  1       21 0.20817351E-01 0.45553435E+03</pdfrwt>
<totfact> 0.64436009E+04</totfact>
</mgrwt>
</event>
<event>
 7    0  0.4750554E-002  0.4530746E+03  0.7546771E-02  0.1026809E+00
         21   -1    0    0  502  501  0.00000000000E+00  0.00000000000E+00  0.45005761280E+02  0.45005761280E+02  0.00000000000E+00 0. -1.
         21   -1    0    0  501  502 -0.00000000000E+00 -0.00000000000E+00 -0.11402794684E+04  0.11402794684E+04  0.00000000000E+00 0. -1.
      99926    2    1    2    0    0 -0.14210854715E-13 -0.12212453271E-14 -0.10952737072E+04  0.11852852297E+04  0.45307458789E+03 0.  0.
      99925    2    3    3    0    0  0.10952197738E+03 -0.68434763958E+00 -0.74301603871E+03  0.79576179661E+03  0.26299899487E+03 0.  0.
         25    1    3    3    0    0 -0.10952197738E+03  0.68434763958E+00 -0.35225766844E+03  0.38952343311E+03  0.12509000000E+03 0.  0.
         25    1    4    4    0    0  0.74862258866E+02 -0.36043403142E+02 -0.37736661975E+03  0.40614844394E+03  0.12509000000E+03 0.  0.
         25    1    4    4    0    0  0.34659718510E+02  0.35359055502E+02 -0.36564941896E+03  0.38961335267E+03  0.12509000000E+03 0.  0.
<mgrwt>
<rscale>  2 0.45307459E+03</rscale>
<asrwt>0</asrwt>
<pdfrwt beam="1">  1       21 0.66184938E-02 0.45307459E+03</pdfrwt>
<pdfrwt beam="2">  1       21 0.16768817E+00 0.45307459E+03</pdfrwt>
<totfact> 0.33119878E+04</totfact>
</mgrwt>
</event>
<event>
 7    0  0.4750554E-002  0.4297995E+03  0.7546771E-02  0.1033923E+00
         21   -1    0    0  502  501  0.00000000000E+00  0.00000000000E+00  0.19453315397E+02  0.19453315397E+02  0.00000000000E+00 0. -1.
         21   -1    0    0  501  502 -0.00000000000E+00 -0.00000000000E+00 -0.23739861850E+04  0.23739861850E+04  0.00000000000E+00 0. -1.
      99926    2    1    2    0    0 -0.71054273576E-14 -0.22204460493E-15 -0.23545328696E+04  0.23934395004E+04  0.42979949747E+03 0.  0.
      99925    2    3    3    0    0  0.51008385028E+02  0.18018949449E+01 -0.19133921763E+04  0.19320744372E+04  0.26312907159E+03 0.  0.
         25    1    4    4    0    0  0.65270657236E+02 -0.63423766401E+01 -0.10766018985E+04  0.10858267083E+04  0.12509000000E+03 0.  0.
         25    1    3    3    0    0 -0.51008385028E+02 -0.18018949449E+01 -0.44114069332E+03  0.46136506323E+03  0.12509000000E+03 0.  0.
         25    1    4    4    0    0 -0.14262272208E+02  0.81442715851E+01 -0.83679027782E+03  0.84624772894E+03  0.12509000000E+03 0.  0.
<mgrwt>
<rscale>  2 0.42979950E+03</rscale>
<asrwt>0</asrwt>
<pdfrwt beam="1">  1       21 0.28607825E-02 0.42979950E+03</pdfrwt>
<pdfrwt beam="2">  1       21 0.34911551E+00 0.42979950E+03</pdfrwt>
<totfact> 0.10127346E+04</totfact>
</mgrwt>
</event>
<event>
 7    0  0.4750554E-002  0.4747108E+03  0.7546771E-02  0.1020599E+00
         21   -1    0    0  502  501  0.00000000000E+00  0.00000000000E+00  0.10753307894E+03  0.10753307894E+03  0.00000000000E+00 0.  1.
         21   -1    0    0  501  502 -0.00000000000E+00 -0.00000000000E+00 -0.52390925569E+03  0.52390925569E+03  0.00000000000E+00 0.  1.
      99926    2    1    2    0    0  0.00000000000E+00  0.00000000000E+00 -0.41637617674E+03  0.63144233463E+03  0.47471075551E+03 0.  0.
      99925    2    3    3    0    0  0.67686061710E+02  0.11134293973E+03 -0.24248461465E+03  0.38071452077E+03  0.26299449576E+03 0.  0.
         25    1    4    4    0    0  0.27319230858E+02  0.65576164550E+02 -0.17348240911E+03  0.22536687446E+03  0.12509000000E+03 0.  0.
         25    1    3    3    0    0 -0.67686061710E+02 -0.11134293973E+03 -0.17389156209E+03  0.25072781386E+03  0.12509000000E+03 0.  0.
         25    1    4    4    0    0  0.40366830852E+02  0.45766775183E+02 -0.69002205541E+02  0.15534764631E+03  0.12509000000E+03 0.  0.
<mgrwt>
<rscale>  2 0.47471076E+03</rscale>
<asrwt>0</asrwt>
<pdfrwt beam="1">  1       21 0.15813688E-01 0.47471076E+03</pdfrwt>
<pdfrwt beam="2">  1       21 0.77045479E-01 0.47471076E+03</pdfrwt>
<totfact> 0.48743782E+04</totfact>
</mgrwt>
</event>
<event>
 7    0  0.4750554E-002  0.4662282E+03  0.7546771E-02  0.1022990E+00
         21   -1    0    0  502  501  0.00000000000E+00  0.00000000000E+00  0.32524987637E+03  0.32524987637E+03  0.00000000000E+00 0.  1.
         21   -1    0    0  501  502 -0.00000000000E+00 -0.00000000000E+00 -0.16707827609E+03  0.16707827609E+03  0.00000000000E+00 0.  1.
      99926    2    1    2    0    0  0.00000000000E+00  0.00000000000E+00  0.15817160029E+03  0.49232815246E+03  0.46622822155E+03 0.  0.
      99925    2    3    3    0    0  0.12026425969E+03  0.27329580243E+02  0.93711001958E+02  0.30521034210E+03  0.26298517624E+03 0.  0.
         25    1    4    4    0    0  0.62343065785E+02 -0.25644350571E+02  0.56488325266E+02  0.15291412479E+03  0.12509000000E+03 0.  0.
         25    1    3    3    0    0 -0.12026425969E+03 -0.27329580243E+02  0.64460598328E+02  0.18711781035E+03  0.12509000000E+03 0.  0.
         25    1    4    4    0    0  0.57921193906E+02  0.52973930813E+02  0.37222676692E+02  0.15229621732E+03  0.12509000000E+03 0.  0.
<mgrwt>
<rscale>  2 0.46622822E+03</rscale>
<asrwt>0</asrwt>
<pdfrwt beam="1">  1       21 0.47830864E-01 0.46622822E+03</pdfrwt>
<pdfrwt beam="2">  1       21 0.24570335E-01 0.46622822E+03</pdfrwt>
<totfact> 0.60260078E+04</totfact>
</mgrwt>
</event>
<event>
 7    0  0.4750554E-002  0.4561654E+03  0.7546771E-02  0.1025899E+00
         21   -1    0    0  502  501  0.00000000000E+00  0.00000000000E+00  0.40053193399E+03  0.40053193399E+03  0.00000000000E+00 0. -1.
         21   -1    0    0  501  502 -0.00000000000E+00 -0.00000000000E+00 -0.12988156153E+03  0.12988156153E+03  0.00000000000E+00 0. -1.
      99926    2    1    2    0    0  0.00000000000E+00  0.00000000000E+00  0.27065037247E+03  0.53041349552E+03  0.45616537803E+03 0.  0.
      99925    2    3    3    0    0 -0.99158646707E+02 -0.55893055085E+02  0.16726080339E+03  0.33218791211E+03  0.26346947030E+03 0.  0.
         25    1    4    4    0    0 -0.21271584361E+02 -0.58270218291E+02  0.80409747534E+02  0.16112459229E+03  0.12509000000E+03 0.  0.
         25    1    3    3    0    0  0.99158646707E+02  0.55893055085E+02  0.10338956907E+03  0.19822558341E+03  0.12509000000E+03 0.  0.
         25    1    4    4    0    0 -0.77887062346E+02  0.23771632058E+01  0.86851055859E+02  0.17106331983E+03  0.12509000000E+03 0.  0.
<mgrwt>
<rscale>  2 0.45616538E+03</rscale>
<asrwt>0</asrwt>
<pdfrwt beam="1">  1       21 0.58901755E-01 0.45616538E+03</pdfrwt>
<pdfrwt beam="2">  1       21 0.19100230E-01 0.45616538E+03</pdfrwt>
<totfact> 0.62598336E+04</totfact>
</mgrwt>
</event>
<event>
 7    0  0.4750554E-002  0.4493014E+03  0.7546771E-02  0.1027931E+00
         21   -1    0    0  502  501  0.00000000000E+00  0.00000000000E+00  0.32948487951E+03  0.32948487951E+03  0.00000000000E+00 0.  1.
         21   -1    0    0  501  502 -0.00000000000E+00 -0.00000000000E+00 -0.15317221653E+03  0.15317221653E+03  0.00000000000E+00 0.  1.
      99926    2    1    2    0    0  0.71054273576E-14  0.71054273576E-14  0.17631266297E+03  0.48265709604E+03  0.44930136571E+03 0.  0.
      99925    2    3    3    0    0 -0.56538917054E+02 -0.44911581389E+02  0.25675227848E+02  0.27396391396E+03  0.26302720305E+03 0.  0.
         25    1    4    4    0    0 -0.56064318558E+02 -0.51403086295E+02  0.26074934518E+02  0.14870405309E+03  0.12509000000E+03 0.  0.
         25    1    3    3    0    0  0.56538917054E+02  0.44911581389E+02  0.15063743513E+03  0.20869318208E+03  0.12509000000E+03 0.  0.
         25    1    4    4    0    0 -0.47459849611E+00  0.64915049058E+01 -0.39970667021E+00  0.12525986087E+03  0.12509000000E+03 0.  0.
<mgrwt>
<rscale>  2 0.44930137E+03</rscale>
<asrwt>0</asrwt>
<pdfrwt beam="1">  1       21 0.48453659E-01 0.44930137E+03</pdfrwt>
<pdfrwt beam="2">  1       21 0.22525326E-01 0.44930137E+03</pdfrwt>
<totfact> 0.69603018E+04</totfact>
</mgrwt>
</event>
<event>
 7    0  0.4750554E-002  0.4533262E+03  0.7546771E-02  0.1026735E+00
         21   -1    0    0  502  501  0.00000000000E+00  0.00000000000E+00  0.14138993778E+04  0.14138993778E+04  0.00000000000E+00 0.  1.
         21   -1    0    0  501  502 -0.00000000000E+00 -0.00000000000E+00 -0.36336508711E+02  0.36336508711E+02  0.00000000000E+00 0.  1.
      99926    2    1    2    0    0 -0.71054273576E-14  0.71054273576E-14  0.13775628691E+04  0.14502358865E+04  0.45332622716E+03 0.  0.
      99925    2    3    3    0    0 -0.60647749702E+02  0.50385578895E+02  0.61557695202E+03  0.67403558889E+03  0.26300596027E+03 0.  0.
         25    1    4    4    0    0 -0.14133654228E+02 -0.48245225251E+01  0.22907527840E+03  0.26143073169E+03  0.12509000000E+03 0.  0.
         25    1    3    3    0    0  0.60647749702E+02 -0.50385578895E+02  0.76198591708E+03  0.77620029763E+03  0.12509000000E+03 0.  0.
         25    1    4    4    0    0 -0.46514095474E+02  0.55210101420E+02  0.38650167362E+03  0.41260485720E+03  0.12509000000E+03 0.  0.
<mgrwt>
<rscale>  2 0.45332623E+03</rscale>
<asrwt>0</asrwt>
<pdfrwt beam="1">  1       21 0.20792634E+00 0.45332623E+03</pdfrwt>
<pdfrwt beam="2">  1       21 0.53436052E-02 0.45332623E+03</pdfrwt>
<totfact> 0.25351580E+04</totfact>
</mgrwt>
</event>
<event>
 7    0  0.4750554E-002  0.4545484E+03  0.7546771E-02  0.1026374E+00
         21   -1    0    0  502  501  0.00000000000E+00  0.00000000000E+00  0.95656287733E+02  0.95656287733E+02  0.00000000000E+00 0. -1.
         21   -1    0    0  501  502 -0.00000000000E+00 -0.00000000000E+00 -0.53999128902E+03  0.53999128902E+03  0.00000000000E+00 0. -1.
      99926    2    1    2    0    0  0.00000000000E+00 -0.14210854715E-13 -0.44433500129E+03  0.63564757675E+03  0.45454840057E+03 0.  0.
      99925    2    3    3    0    0 -0.71707277415E+02  0.85620728024E+02 -0.30155406678E+03  0.41540510569E+03  0.26297091843E+03 0.  0.
         25    1    4    4    0    0 -0.37154722781E+02  0.71757983995E+01 -0.17159132431E+03  0.21569204015E+03  0.12509000000E+03 0.  0.
         25    1    3    3    0    0  0.71707277415E+02 -0.85620728024E+02 -0.14278093451E+03  0.22024247107E+03  0.12509000000E+03 0.  0.
         25    1    4    4    0    0 -0.34552554634E+02  0.78444929624E+02 -0.12996274247E+03  0.19971306554E+03  0.12509000000E+03 0.  0.
<mgrwt>
<rscale>  2 0.45454840E+03</rscale>
<asrwt>0</asrwt>
<pdfrwt beam="1">  1       21 0.14067101E-01 0.45454840E+03</pdfrwt>
<pdfrwt beam="2">  1       21 0.79410484E-01 0.45454840E+03</pdfrwt>
<totfact> 0.56737961E+04</totfact>
</mgrwt>
</event>
<event>
 6    0  0.4750554E-002  0.4701328E+03  0.7546771E-02  0.1021883E+00
         21   -1    0    0  502  501  0.00000000000E+00  0.00000000000E+00  0.16645547787E+03  0.16645547787E+03  0.00000000000E+00 0. -1.
         21   -1    0    0  501  502 -0.00000000000E+00 -0.00000000000E+00 -0.33195794584E+03  0.33195794584E+03  0.00000000000E+00 0. -1.
      99926    2    1    2    0    0 -0.88817841970E-15 -0.14210854715E-13 -0.16550246796E+03  0.49841342371E+03  0.47013282595E+03 0.  0.
         25    1    3    3    0    0  0.11492529791E+02 -0.26279171893E+02 -0.94515580453E+02  0.15938436612E+03  0.12509000000E+03 0.  0.
         25    1    3    3    0    0 -0.42095623062E+01 -0.94768236712E+02 -0.40870023761E+02  0.16222393796E+03  0.12509000000E+03 0.  0.
         25    1    3    3    0    0 -0.72829674852E+01  0.12104740861E+03 -0.30116863750E+02  0.17680511963E+03  0.12509000000E+03 0.  0.
<mgrwt>
<rscale>  2 0.47013283E+03</rscale>
<asrwt>0</asrwt>
<pdfrwt beam="1">  1       21 0.24478747E-01 0.47013283E+03</pdfrwt>
<pdfrwt beam="2">  1       21 0.48817344E-01 0.47013283E+03</pdfrwt>
<totfact> 0.58084512E+04</totfact>
</mgrwt>
</event>
<event>
 7    0  0.4750554E-002  0.4292276E+03  0.7546771E-02  0.1034104E+00
         21   -1    0    0  502  501  0.00000000000E+00  0.00000000000E+00  0.67195350846E+02  0.67195350846E+02  0.00000000000E+00 0.  1.
         21   -1    0    0  501  502 -0.00000000000E+00 -0.00000000000E+00 -0.68545034175E+03  0.68545034175E+03  0.00000000000E+00 0.  1.
      99926    2    1    2    0    0  0.24980018054E-14  0.14210854715E-13 -0.61825499091E+03  0.75264569260E+03  0.42922756762E+03 0.  0.
      99925    2    3    3    0    0 -0.28245880582E+00  0.83919903430E+02 -0.43797974808E+03  0.51772165967E+03  0.26299586913E+03 0.  0.
         25    1    3    3    0    0  0.28245880582E+00 -0.83919903430E+02 -0.18027524282E+03  0.23492403293E+03  0.12509000000E+03 0.  0.
         25    1    4    4    0    0 -0.36388880930E+02  0.36189686248E+02 -0.24874625339E+03  0.28311843939E+03  0.12509000000E+03 0.  0.
         25    1    4    4    0    0  0.36106422124E+02  0.47730217182E+02 -0.18923349469E+03  0.23460322028E+03  0.12509000000E+03 0.  0.
<mgrwt>
<rscale>  2 0.42922757E+03</rscale>
<asrwt>0</asrwt>
<pdfrwt beam="1">  1       21 0.98816700E-02 0.42922757E+03</pdfrwt>
<pdfrwt beam="2">  1       21 0.10080151E+00 0.42922757E+03</pdfrwt>
<totfact> 0.61713163E+04</totfact>
</mgrwt>
</event>
<event>
 6    0  0.4750554E-002  0.4940254E+03  0.7546771E-02  0.1015350E+00
         21   -1    0    0  502  501  0.00000000000E+00  0.00000000000E+00  0.15363164406E+03  0.15363164406E+03  0.00000000000E+00 0.  1.
         21   -1    0    0  501  502 -0.00000000000E+00 -0.00000000000E+00 -0.39715295825E+03  0.39715295825E+03  0.00000000000E+00 0.  1.
      99926    2    1    2    0    0  0.00000000000E+00  0.00000000000E+00 -0.24352131419E+03  0.55078460231E+03  0.49402535124E+03 0.  0.
         25    1    3    3    0    0  0.32400576439E+02  0.35574156552E+02 -0.18072165675E+02  0.13523841629E+03  0.12509000000E+03 0.  0.
         25    1    3    3    0    0 -0.12304824138E+03 -0.73118243174E+02 -0.12358671041E+03  0.22673405188E+03  0.12509000000E+03 0.  0.
         25    1    3    3    0    0  0.90647664944E+02  0.37544086622E+02 -0.10186243811E+03  0.18881213414E+03  0.12509000000E+03 0.  0.
<mgrwt>
<rscale>  2 0.49402535E+03</rscale>
<asrwt>0</asrwt>
<pdfrwt beam="1">  1       21 0.22592889E-01 0.49402535E+03</pdfrwt>
<pdfrwt beam="2">  1       21 0.58404846E-01 0.49402535E+03</pdfrwt>
<totfact> 0.45894556E+04</totfact>
</mgrwt>
</event>
<event>
 7    0  0.4750554E-002  0.4551728E+03  0.7546771E-02  0.1026191E+00
         21   -1    0    0  502  501  0.00000000000E+00  0.00000000000E+00  0.36400290439E+03  0.36400290439E+03  0.00000000000E+00 0.  1.
         21   -1    0    0  501  502 -0.00000000000E+00 -0.00000000000E+00 -0.14229438366E+03  0.14229438366E+03  0.00000000000E+00 0.  1.
      99926    2    1    2    0    0  0.00000000000E+00  0.71054273576E-14  0.22170852072E+03  0.50629728805E+03  0.45517279766E+03 0.  0.
      99925    2    3    3    0    0  0.80821679725E+02  0.54778187098E+02  0.20352133054E+03  0.34657541828E+03  0.26298440045E+03 0.  0.
         25    1    4    4    0    0  0.55198070303E+02  0.66390589225E+02  0.10218589093E+03  0.18315021624E+03  0.12509000000E+03 0.  0.
         25    1    4    4    0    0  0.25623609421E+02 -0.11612402126E+02  0.10133543961E+03  0.16342520205E+03  0.12509000000E+03 0.  0.
         25    1    3    3    0    0 -0.80821679725E+02 -0.54778187098E+02  0.18187190187E+02  0.15972186977E+03  0.12509000000E+03 0.  0.
<mgrwt>
<rscale>  2 0.45517280E+03</rscale>
<asrwt>0</asrwt>
<pdfrwt beam="1">  1       21 0.53529839E-01 0.45517280E+03</pdfrwt>
<pdfrwt beam="2">  1       21 0.20925645E-01 0.45517280E+03</pdfrwt>
<totfact> 0.64741645E+04</totfact>
</mgrwt>
</event>
<event>
 7    0  0.4750554E-002  0.4443041E+03  0.7546771E-02  0.1029434E+00
         21   -1    0    0  502  501  0.00000000000E+00  0.00000000000E+00  0.37635742847E+03  0.37635742847E+03  0.00000000000E+00 0.  1.
         21   -1    0    0  501  502 -0.00000000000E+00 -0.00000000000E+00 -0.13112944832E+03  0.13112944832E+03  0.00000000000E+00 0.  1.
      99926    2    1    2    0    0  0.00000000000E+00  0.00000000000E+00  0.24522798016E+03  0.50748687679E+03  0.44430413892E+03 0.  0.
      99925    2    3    3    0    0 -0.43360891925E+02  0.93978141420E+01  0.26177549882E+03  0.37373406623E+03  0.26302519769E+03 0.  0.
         25    1    3    3    0    0  0.43360891925E+02 -0.93978141420E+01 -0.16547518660E+02  0.13375281056E+03  0.12509000000E+03 0.  0.
         25    1    4    4    0    0  0.98838337724E+01  0.20713510043E+02  0.15498796501E+03  0.20048819683E+03  0.12509000000E+03 0.  0.
         25    1    4    4    0    0 -0.53244725698E+02 -0.11315695901E+02  0.10678753380E+03  0.17324586940E+03  0.12509000000E+03 0.  0.
<mgrwt>
<rscale>  2 0.44430414E+03</rscale>
<asrwt>0</asrwt>
<pdfrwt beam="1">  1       21 0.55346680E-01 0.44430414E+03</pdfrwt>
<pdfrwt beam="2">  1       21 0.19283743E-01 0.44430414E+03</pdfrwt>
<totfact> 0.70548172E+04</totfact>
</mgrwt>
</event>
<event>
 7    0  0.4750554E-002  0.4538486E+03  0.7546771E-02  0.1026581E+00
         21   -1    0    0  502  501  0.00000000000E+00  0.00000000000E+00  0.11099012869E+03  0.11099012869E+03  0.00000000000E+00 0. -1.
         21   -1    0    0  501  502 -0.00000000000E+00 -0.00000000000E+00 -0.46395696001E+03  0.46395696001E+03  0.00000000000E+00 0. -1.
      99926    2    1    2    0    0  0.00000000000E+00  0.00000000000E+00 -0.35296683133E+03  0.57494708870E+03  0.45384862101E+03 0.  0.
      99925    2    3    3    0    0  0.43654214518E+02  0.10255917853E+03 -0.20761723435E+03  0.35314066637E+03  0.26301965459E+03 0.  0.
         25    1    3    3    0    0 -0.43654214518E+02 -0.10255917853E+03 -0.14534959697E+03  0.22180642233E+03  0.12509000000E+03 0.  0.
         25    1    4    4    0    0 -0.18561908720E+02  0.43773900697E+02 -0.89709797043E+02  0.16110882851E+03  0.12509000000E+03 0.  0.
         25    1    4    4    0    0  0.62216123239E+02  0.58785277835E+02 -0.11790743731E+03  0.19203183786E+03  0.12509000000E+03 0.  0.
<mgrwt>
<rscale>  2 0.45384862E+03</rscale>
<asrwt>0</asrwt>
<pdfrwt beam="1">  1       21 0.16322078E-01 0.45384862E+03</pdfrwt>
<pdfrwt beam="2">  1       21 0.68228963E-01 0.45384862E+03</pdfrwt>
<totfact> 0.60799070E+04</totfact>
</mgrwt>
</event>
<event>
 7    0  0.4750554E-002  0.4563031E+03  0.7546771E-02  0.1025859E+00
         21   -1    0    0  502  501  0.00000000000E+00  0.00000000000E+00  0.45974579735E+03  0.45974579735E+03  0.00000000000E+00 0. -1.
         21   -1    0    0  501  502 -0.00000000000E+00 -0.00000000000E+00 -0.11322155317E+03  0.11322155317E+03  0.00000000000E+00 0. -1.
      99926    2    1    2    0    0  0.00000000000E+00 -0.35527136788E-14  0.34652424418E+03  0.57296735051E+03  0.45630311521E+03 0.  0.
      99925    2    3    3    0    0  0.11134902539E+03  0.22745924990E+02  0.20215896790E+03  0.35069539175E+03  0.26306468203E+03 0.  0.
         25    1    4    4    0    0  0.69625744686E+02  0.50067460967E+02  0.11415022559E+03  0.18982169811E+03  0.12509000000E+03 0.  0.
         25    1    4    4    0    0  0.41723280704E+02 -0.27321535976E+02  0.88008742312E+02  0.16087369364E+03  0.12509000000E+03 0.  0.
         25    1    3    3    0    0 -0.11134902539E+03 -0.22745924990E+02  0.14436527628E+03  0.22227195877E+03  0.12509000000E+03 0.  0.
<mgrwt>
<rscale>  2 0.45630312E+03</rscale>
<asrwt>0</asrwt>
<pdfrwt beam="1">  1       21 0.67609675E-01 0.45630312E+03</pdfrwt>
<pdfrwt beam="2">  1       21 0.16650229E-01 0.45630312E+03</pdfrwt>
<totfact> 0.59755727E+04</totfact>
</mgrwt>
</event>
<event>
 7    0  0.4750554E-002  0.4538852E+03  0.7546771E-02  0.1026570E+00
         21   -1    0    0  502  501  0.00000000000E+00  0.00000000000E+00  0.79691736455E+02  0.79691736455E+02  0.00000000000E+00 0. -1.
         21   -1    0    0  501  502 -0.00000000000E+00 -0.00000000000E+00 -0.64627719642E+03  0.64627719642E+03  0.00000000000E+00 0. -1.
      99926    2    1    2    0    0  0.00000000000E+00 -0.14210854715E-13 -0.56658545997E+03  0.72596893288E+03  0.45388523666E+03 0.  0.
      99925    2    3    3    0    0  0.52837035252E+02 -0.98552652624E+02 -0.34628311110E+03  0.44904834742E+03  0.26311223395E+03 0.  0.
         25    1    4    4    0    0  0.11342290265E+02 -0.80160880320E+02 -0.14615763124E+03  0.20871984944E+03  0.12509000000E+03 0.  0.
         25    1    4    4    0    0  0.41494744987E+02 -0.18391772304E+02 -0.20012547986E+03  0.24032849798E+03  0.12509000000E+03 0.  0.
         25    1    3    3    0    0 -0.52837035252E+02  0.98552652624E+02 -0.22030234887E+03  0.27692058546E+03  0.12509000000E+03 0.  0.
<mgrwt>
<rscale>  2 0.45388524E+03</rscale>
<asrwt>0</asrwt>
<pdfrwt beam="1">  1       21 0.11719373E-01 0.45388524E+03</pdfrwt>
<pdfrwt beam="2">  1       21 0.95040764E-01 0.45388524E+03</pdfrwt>
<totfact> 0.51969747E+04</totfact>
</mgrwt>
</event>
<event>
 7    0  0.4750554E-002  0.4396835E+03  0.7546771E-02  0.1030844E+00
         21   -1    0    0  502  501  0.00000000000E+00  0.00000000000E+00  0.85901343056E+02  0.85901343056E+02  0.00000000000E+00 0.  1.
         21   -1    0    0  501  502 -0.00000000000E+00 -0.00000000000E+00 -0.56262676347E+03  0.56262676347E+03  0.00000000000E+00 0.  1.
      99926    2    1    2    0    0  0.00000000000E+00 -0.88817841970E-15 -0.47672542041E+03  0.64852810652E+03  0.43968349808E+03 0.  0.
      99925    2    3    3    0    0  0.88978580048E+02  0.32182605493E+01 -0.36491005155E+03  0.45858672156E+03  0.26308722995E+03 0.  0.
         25    1    4    4    0    0  0.36016467061E+02  0.40919771371E+02 -0.19046454292E+03  0.23429866367E+03  0.12509000000E+03 0.  0.
         25    1    4    4    0    0  0.52962112987E+02 -0.37701510821E+02 -0.17444550863E+03  0.22428805789E+03  0.12509000000E+03 0.  0.
         25    1    3    3    0    0 -0.88978580048E+02 -0.32182605493E+01 -0.11181536886E+03  0.18994138497E+03  0.12509000000E+03 0.  0.
<mgrwt>
<rscale>  2 0.43968350E+03</rscale>
<asrwt>0</asrwt>
<pdfrwt beam="1">  1       21 0.12632551E-01 0.43968350E+03</pdfrwt>
<pdfrwt beam="2">  1       21 0.82739227E-01 0.43968350E+03</pdfrwt>
<totfact> 0.63066142E+04</totfact>
</mgrwt>
</event>
<event>
 7    0  0.4750554E-002  0.4545902E+03  0.7546771E-02  0.1026362E+00
         21   -1    0    0  502  501  0.00000000000E+00  0.00000000000E+00  0.96106258181E+03  0.96106258181E+03  0.00000000000E+00 0. -1.
         21   -1    0    0  501  502 -0.00000000000E+00 -0.00000000000E+00 -0.53756189272E+02  0.53756189272E+02  0.00000000000E+00 0. -1.
      99926    2    1    2    0    0  0.00000000000E+00  0.00000000000E+00  0.90730639254E+03  0.10148187711E+04  0.45459019809E+03 0.  0.
      99925    2    3    3    0    0 -0.34498770037E+02  0.10334928512E+03  0.63463382264E+03  0.69564941424E+03  0.26324281345E+03 0.  0.
         25    1    4    4    0    0 -0.93933879485E+00  0.10524078104E+02  0.28389351308E+03  0.31041049184E+03  0.12509000000E+03 0.  0.
         25    1    3    3    0    0  0.34498770037E+02 -0.10334928512E+03  0.27267256990E+03  0.31916935684E+03  0.12509000000E+03 0.  0.
         25    1    4    4    0    0 -0.33559431242E+02  0.92825207018E+02  0.35074030956E+03  0.38523892240E+03  0.12509000000E+03 0.  0.
<mgrwt>
<rscale>  2 0.45459020E+03</rscale>
<asrwt>0</asrwt>
<pdfrwt beam="1">  1       21 0.14133272E+00 0.45459020E+03</pdfrwt>
<pdfrwt beam="2">  1       21 0.79053226E-02 0.45459020E+03</pdfrwt>
<totfact> 0.38719045E+04</totfact>
</mgrwt>
</event>
<event>
 7    0  0.4750554E-002  0.4605225E+03  0.7546771E-02  0.1024630E+00
         21   -1    0    0  502  501  0.00000000000E+00  0.00000000000E+00  0.28022390502E+02  0.28022390502E+02  0.00000000000E+00 0.  1.
         21   -1    0    0  501  502 -0.00000000000E+00 -0.00000000000E+00 -0.18920669854E+04  0.18920669854E+04  0.00000000000E+00 0.  1.
      99926    2    1    2    0    0  0.14210854715E-13  0.71054273576E-14 -0.18640445949E+04  0.19200893759E+04  0.46052248553E+03 0.  0.
      99925    2    3    3    0    0  0.11331829834E+03  0.33425421902E+02 -0.11846271986E+04  0.12192229107E+04  0.26306769226E+03 0.  0.
         25    1    4    4    0    0  0.43746798676E+02  0.55035118420E+02 -0.60800404160E+03  0.62470718689E+03  0.12509000000E+03 0.  0.
         25    1    3    3    0    0 -0.11331829834E+03 -0.33425421902E+02 -0.67941739628E+03  0.70086646520E+03  0.12509000000E+03 0.  0.
         25    1    4    4    0    0  0.69571499666E+02 -0.21609696517E+02 -0.57662315698E+03  0.59451572377E+03  0.12509000000E+03 0.  0.
<mgrwt>
<rscale>  2 0.46052249E+03</rscale>
<asrwt>0</asrwt>
<pdfrwt beam="1">  1       21 0.41209384E-02 0.46052249E+03</pdfrwt>
<pdfrwt beam="2">  1       21 0.27824524E+00 0.46052249E+03</pdfrwt>
<totfact> 0.14430163E+04</totfact>
</mgrwt>
</event>
<event>
 7    0  0.4750554E-002  0.4542181E+03  0.7546771E-02  0.1026472E+00
         21   -1    0    0  502  501  0.00000000000E+00  0.00000000000E+00  0.45592971719E+03  0.45592971719E+03  0.00000000000E+00 0.  1.
         21   -1    0    0  501  502 -0.00000000000E+00 -0.00000000000E+00 -0.11312821496E+03  0.11312821496E+03  0.00000000000E+00 0.  1.
      99926    2    1    2    0    0  0.14210854715E-13  0.00000000000E+00  0.34280150223E+03  0.56905793215E+03  0.45421807562E+03 0.  0.
      99925    2    3    3    0    0  0.64288479558E+02  0.77961278056E+02  0.15392755576E+03  0.32100179892E+03  0.26294009395E+03 0.  0.
         25    1    3    3    0    0 -0.64288479558E+02 -0.77961278056E+02  0.18887394647E+03  0.24805613323E+03  0.12509000000E+03 0.  0.
         25    1    4    4    0    0  0.48070376822E+02  0.43911530079E+01  0.90699984116E+02  0.16187661527E+03  0.12509000000E+03 0.  0.
         25    1    4    4    0    0  0.16218102737E+02  0.73570125048E+02  0.63227571645E+02  0.15912518365E+03  0.12509000000E+03 0.  0.
<mgrwt>
<rscale>  2 0.45421808E+03</rscale>
<asrwt>0</asrwt>
<pdfrwt beam="1">  1       21 0.67048487E-01 0.45421808E+03</pdfrwt>
<pdfrwt beam="2">  1       21 0.16636502E-01 0.45421808E+03</pdfrwt>
<totfact> 0.61000760E+04</totfact>
</mgrwt>
</event>
<event>
 7    0  0.4750554E-002  0.4552058E+03  0.7546771E-02  0.1026181E+00
         21   -1    0    0  502  501  0.00000000000E+00  0.00000000000E+00  0.76971132477E+03  0.76971132477E+03  0.00000000000E+00 0.  1.
         21   -1    0    0  501  502 -0.00000000000E+00 -0.00000000000E+00 -0.67301958652E+02  0.67301958652E+02  0.00000000000E+00 0.  1.
      99926    2    1    2    0    0  0.71054273576E-14  0.00000000000E+00  0.70240936611E+03  0.83701328342E+03  0.45520579853E+03 0.  0.
      99925    2    3    3    0    0  0.33273362288E+02 -0.36469851718E+02  0.25431956459E+03  0.36917875599E+03  0.26301586686E+03 0.  0.
         25    1    3    3    0    0 -0.33273362288E+02  0.36469851718E+02  0.44808980152E+03  0.46783452742E+03  0.12509000000E+03 0.  0.
         25    1    4    4    0    0  0.28179635112E+02 -0.17072555224E+02  0.74697170420E+02  0.14937449362E+03  0.12509000000E+03 0.  0.
         25    1    4    4    0    0  0.50937271761E+01 -0.19397296494E+02  0.17962239417E+03  0.21980426237E+03  0.12509000000E+03 0.  0.
<mgrwt>
<rscale>  2 0.45520580E+03</rscale>
<asrwt>0</asrwt>
<pdfrwt beam="1">  1       21 0.11319284E+00 0.45520580E+03</pdfrwt>
<pdfrwt beam="2">  1       21 0.98973473E-02 0.45520580E+03</pdfrwt>
<totfact> 0.45951786E+04</totfact>
</mgrwt>
</event>
<event>
 7    0  0.4750554E-002  0.4542936E+03  0.7546771E-02  0.1026449E+00
         21   -1    0    0  502  501  0.00000000000E+00  0.00000000000E+00  0.23439174088E+03  0.23439174088E+03  0.00000000000E+00 0. -1.
         21   -1    0    0  501  502 -0.00000000000E+00 -0.00000000000E+00 -0.22012576793E+03  0.22012576793E+03  0.00000000000E+00 0. -1.
      99926    2    1    2    0    0 -0.35527136788E-14 -0.71054273576E-14  0.14265972947E+02  0.45451750881E+03  0.45429357009E+03 0.  0.
      99925    2    3    3    0    0 -0.52035202752E+01 -0.38110494872E+02 -0.96764539794E+02  0.28289359059E+03  0.26303216722E+03 0.  0.
         25    1    4    4    0    0  0.32429113265E+02 -0.51604793910E+01 -0.63753046637E+02  0.14418819990E+03  0.12509000000E+03 0.  0.
         25    1    3    3    0    0  0.52035202752E+01  0.38110494872E+02  0.11103051274E+03  0.17162391821E+03  0.12509000000E+03 0.  0.
         25    1    4    4    0    0 -0.37632633540E+02 -0.32950015481E+02 -0.33011493157E+02  0.13870539070E+03  0.12509000000E+03 0.  0.
<mgrwt>
<rscale>  2 0.45429357E+03</rscale>
<asrwt>0</asrwt>
<pdfrwt beam="1">  1       21 0.34469374E-01 0.45429357E+03</pdfrwt>
<pdfrwt beam="2">  1       21 0.32371436E-01 0.45429357E+03</pdfrwt>
<totfact> 0.68969094E+04</totfact>
</mgrwt>
</event>
<event>
 7    0  0.4750554E-002  0.4572040E+03  0.7546771E-02  0.1025595E+00
         21   -1    0    0  502  501  0.00000000000E+00  0.00000000000E+00  0.30016731917E+02  0.30016731917E+02  0.00000000000E+00 0. -1.
         21   -1    0    0  501  502 -0.00000000000E+00 -0.00000000000E+00 -0.17409913271E+04  0.17409913271E+04  0.00000000000E+00 0. -1.
      99926    2    1    2    0    0  0.00000000000E+00 -0.71054273576E-14 -0.17109745951E+04  0.17710080590E+04  0.45720398045E+03 0.  0.
      99925    2    3    3    0    0  0.77365476433E+02  0.58086369557E+02 -0.82510983463E+03  0.87113955453E+03  0.26214202448E+03 0.  0.
         25    1    3    3    0    0 -0.77365476433E+02 -0.58086369557E+02 -0.88586476052E+03  0.89986850445E+03  0.12509000000E+03 0.  0.
         25    1    4    4    0    0  0.16423274331E+02  0.61106028655E+02 -0.40476582156E+03  0.42835329937E+03  0.12509000000E+03 0.  0.
         25    1    4    4    0    0  0.60942202102E+02 -0.30196590983E+01 -0.42034401307E+03  0.44278625516E+03  0.12509000000E+03 0.  0.
<mgrwt>
<rscale>  2 0.45720398E+03</rscale>
<asrwt>0</asrwt>
<pdfrwt beam="1">  1       21 0.44142261E-02 0.45720398E+03</pdfrwt>
<pdfrwt beam="2">  1       21 0.25602809E+00 0.45720398E+03</pdfrwt>
<totfact> 0.17521509E+04</totfact>
</mgrwt>
</event>
<event>
 7    0  0.4750554E-002  0.4873241E+03  0.7546771E-02  0.1017142E+00
         21   -1    0    0  502  501  0.00000000000E+00  0.00000000000E+00  0.16387450803E+03  0.16387450803E+03  0.00000000000E+00 0.  1.
         21   -1    0    0  501  502 -0.00000000000E+00 -0.00000000000E+00 -0.36229665313E+03  0.36229665313E+03  0.00000000000E+00 0.  1.
      99926    2    1    2    0    0 -0.35527136788E-14  0.00000000000E+00 -0.19842214510E+03  0.52617116116E+03  0.48732406381E+03 0.  0.
      99925    2    3    3    0    0  0.30518388011E+02  0.10836632453E+03 -0.21380817923E+03  0.35717746173E+03  0.26303454025E+03 0.  0.
         25    1    3    3    0    0 -0.30518388011E+02 -0.10836632453E+03  0.15386034130E+02  0.16899369943E+03  0.12509000000E+03 0.  0.
         25    1    4    4    0    0  0.81806866305E+01  0.17819654424E+02 -0.68472386274E+02  0.14394596034E+03  0.12509000000E+03 0.  0.
         25    1    4    4    0    0  0.22337701381E+02  0.90546670110E+02 -0.14533579296E+03  0.21323150139E+03  0.12509000000E+03 0.  0.
<mgrwt>
<rscale>  2 0.48732406E+03</rscale>
<asrwt>0</asrwt>
<pdfrwt beam="1">  1       21 0.24099193E-01 0.48732406E+03</pdfrwt>
<pdfrwt beam="2">  1       21 0.53278918E-01 0.48732406E+03</pdfrwt>
<totfact> 0.49498502E+04</totfact>
</mgrwt>
</event>
<event>
 7    0  0.4750554E-002  0.4459589E+03  0.7546771E-02  0.1028934E+00
         21   -1    0    0  502  501  0.00000000000E+00  0.00000000000E+00  0.22427874089E+03  0.22427874089E+03  0.00000000000E+00 0.  1.
         21   -1    0    0  501  502 -0.00000000000E+00 -0.00000000000E+00 -0.22168764348E+03  0.22168764348E+03  0.00000000000E+00 0.  1.
      99926    2    1    2    0    0  0.00000000000E+00 -0.17763568394E-14  0.25910974076E+01  0.44596638437E+03  0.44595885708E+03 0.  0.
      99925    2    3    3    0    0  0.83316414596E+02  0.81967697364E+01 -0.60719639646E+02  0.28267348954E+03  0.26307530305E+03 0.  0.
         25    1    4    4    0    0  0.37406057934E+02 -0.65398997767E+01 -0.70005162048E+02  0.14829097839E+03  0.12509000000E+03 0.  0.
         25    1    4    4    0    0  0.45910356663E+02  0.14736669513E+02  0.92855224023E+01  0.13438251115E+03  0.12509000000E+03 0.  0.
         25    1    3    3    0    0 -0.83316414596E+02 -0.81967697364E+01  0.63310737053E+02  0.16329289483E+03  0.12509000000E+03 0.  0.
<mgrwt>
<rscale>  2 0.44595886E+03</rscale>
<asrwt>0</asrwt>
<pdfrwt beam="1">  1       21 0.32982168E-01 0.44595886E+03</pdfrwt>
<pdfrwt beam="2">  1       21 0.32601124E-01 0.44595886E+03</pdfrwt>
<totfact> 0.74439507E+04</totfact>
</mgrwt>
</event>
<event>
 7    0  0.4750554E-002  0.4527642E+03  0.7546771E-02  0.1026901E+00
         21   -1    0    0  502  501  0.00000000000E+00  0.00000000000E+00  0.45541295387E+02  0.45541295387E+02  0.00000000000E+00 0. -1.
         21   -1    0    0  501  502 -0.00000000000E+00 -0.00000000000E+00 -0.11253269758E+04  0.11253269758E+04  0.00000000000E+00 0. -1.
      99926    2    1    2    0    0  0.00000000000E+00  0.00000000000E+00 -0.10797856805E+04  0.11708682712E+04  0.45276416914E+03 0.  0.
      99925    2    3    3    0    0  0.44255912341E+01  0.89236811065E+02 -0.51172632238E+03  0.58237720358E+03  0.26328042830E+03 0.  0.
         25    1    4    4    0    0  0.13726788409E+02  0.25257074636E+02 -0.17188200331E+03  0.21451637630E+03  0.12509000000E+03 0.  0.
         25    1    3    3    0    0 -0.44255912341E+01 -0.89236811065E+02 -0.56805935807E+03  0.58849106765E+03  0.12509000000E+03 0.  0.
         25    1    4    4    0    0 -0.93011971750E+01  0.63979736430E+02 -0.33984431907E+03  0.36786082728E+03  0.12509000000E+03 0.  0.
<mgrwt>
<rscale>  2 0.45276417E+03</rscale>
<asrwt>0</asrwt>
<pdfrwt beam="1">  1       21 0.66972484E-02 0.45276417E+03</pdfrwt>
<pdfrwt beam="2">  1       21 0.16548928E+00 0.45276417E+03</pdfrwt>
<totfact> 0.33676088E+04</totfact>
</mgrwt>
</event>
<event>
 7    0  0.4750554E-002  0.4564554E+03  0.7546771E-02  0.1025814E+00
         21   -1    0    0  502  501  0.00000000000E+00  0.00000000000E+00  0.25259125368E+04  0.25259125368E+04  0.00000000000E+00 0.  1.
         21   -1    0    0  501  502 -0.00000000000E+00 -0.00000000000E+00 -0.20621409740E+02  0.20621409740E+02  0.00000000000E+00 0.  1.
      99926    2    1    2    0    0  0.00000000000E+00  0.00000000000E+00  0.25052911271E+04  0.25465339465E+04  0.45645537520E+03 0.  0.
      99925    2    3    3    0    0 -0.68872529648E+02  0.78601298413E+02  0.13169755122E+04  0.13470911184E+04  0.26326487038E+03 0.  0.
         25    1    4    4    0    0 -0.26918505719E+02  0.19203044932E+02  0.79380884119E+03  0.80428436970E+03  0.12509000000E+03 0.  0.
         25    1    3    3    0    0  0.68872529648E+02 -0.78601298413E+02  0.11883156148E+04  0.11994428282E+04  0.12509000000E+03 0.  0.
         25    1    4    4    0    0 -0.41954023929E+02  0.59398253481E+02  0.52316667103E+03  0.54280674868E+03  0.12509000000E+03 0.  0.
<mgrwt>
<rscale>  2 0.45645538E+03</rscale>
<asrwt>0</asrwt>
<pdfrwt beam="1">  1       21 0.37145751E+00 0.45645538E+03</pdfrwt>
<pdfrwt beam="2">  1       21 0.30325620E-02 0.45645538E+03</pdfrwt>
<totfact> 0.65924318E+03</totfact>
</mgrwt>
</event>
<event>
 7    0  0.4750554E-002  0.4557698E+03  0.7546771E-02  0.1026015E+00
         21   -1    0    0  502  501  0.00000000000E+00  0.00000000000E+00  0.21483557587E+03  0.21483557587E+03  0.00000000000E+00 0.  1.
         21   -1    0    0  501  502 -0.00000000000E+00 -0.00000000000E+00 -0.24172688292E+03  0.24172688292E+03  0.00000000000E+00 0.  1.
      99926    2    1    2    0    0 -0.14210854715E-13  0.00000000000E+00 -0.26891307050E+02  0.45656245878E+03  0.45576982829E+03 0.  0.
      99925    2    3    3    0    0 -0.67675889452E+02  0.75838253403E+02 -0.68357721689E+02  0.29013398065E+03  0.26300852062E+03 0.  0.
         25    1    3    3    0    0  0.67675889452E+02 -0.75838253403E+02  0.41466414639E+02  0.16642847814E+03  0.12509000000E+03 0.  0.
         25    1    4    4    0    0 -0.40950070378E+02  0.11258538297E+02 -0.17402394032E+01  0.13211434245E+03  0.12509000000E+03 0.  0.
         25    1    4    4    0    0 -0.26725819074E+02  0.64579715106E+02 -0.66617482286E+02  0.15801963819E+03  0.12509000000E+03 0.  0.
<mgrwt>
<rscale>  2 0.45576983E+03</rscale>
<asrwt>0</asrwt>
<pdfrwt beam="1">  1       21 0.31593467E-01 0.45576983E+03</pdfrwt>
<pdfrwt beam="2">  1       21 0.35548071E-01 0.45576983E+03</pdfrwt>
<totfact> 0.68012795E+04</totfact>
</mgrwt>
</event>
<event>
 7    0  0.4750554E-002  0.4550531E+03  0.7546771E-02  0.1026226E+00
         21   -1    0    0  502  501  0.00000000000E+00  0.00000000000E+00  0.83699623957E+02  0.83699623957E+02  0.00000000000E+00 0.  1.
         21   -1    0    0  501  502 -0.00000000000E+00 -0.00000000000E+00 -0.61850131921E+03  0.61850131921E+03  0.00000000000E+00 0.  1.
      99926    2    1    2    0    0 -0.14210854715E-13 -0.14210854715E-13 -0.53480169525E+03  0.70220094317E+03  0.45505308629E+03 0.  0.
      99925    2    3    3    0    0 -0.70868039550E+02 -0.76113494919E+02 -0.26714325955E+03  0.38898521968E+03  0.26292287247E+03 0.  0.
         25    1    4    4    0    0 -0.52250563608E+02 -0.28532336379E+02 -0.86223306201E+02  0.16317531139E+03  0.12509000000E+03 0.  0.
         25    1    3    3    0    0  0.70868039550E+02  0.76113494919E+02 -0.26765843570E+03  0.31321572349E+03  0.12509000000E+03 0.  0.
         25    1    4    4    0    0 -0.18617475942E+02 -0.47581158540E+02 -0.18091995335E+03  0.22580990828E+03  0.12509000000E+03 0.  0.
<mgrwt>
<rscale>  2 0.45505309E+03</rscale>
<asrwt>0</asrwt>
<pdfrwt beam="1">  1       21 0.12308768E-01 0.45505309E+03</pdfrwt>
<pdfrwt beam="2">  1       21 0.90956078E-01 0.45505309E+03</pdfrwt>
<totfact> 0.52761573E+04</totfact>
</mgrwt>
</event>
<event>
 7    0  0.4750554E-002  0.4444930E+03  0.7546771E-02  0.1029377E+00
         21   -1    0    0  502  501  0.00000000000E+00  0.00000000000E+00  0.51273500343E+03  0.51273500343E+03  0.00000000000E+00 0. -1.
         21   -1    0    0  501  502 -0.00000000000E+00 -0.00000000000E+00 -0.96333405000E+02  0.96333405000E+02  0.00000000000E+00 0. -1.
      99926    2    1    2    0    0  0.00000000000E+00  0.00000000000E+00  0.41640159843E+03  0.60906840843E+03  0.44449300891E+03 0.  0.
      99925    2    3    3    0    0 -0.90972822533E+02 -0.22957552957E+02  0.20630035940E+03  0.34716548286E+03  0.26298465835E+03 0.  0.
         25    1    4    4    0    0 -0.64944835260E+02  0.47531498508E+01  0.14666748323E+03  0.20346813706E+03  0.12509000000E+03 0.  0.
         25    1    4    4    0    0 -0.26027987272E+02 -0.27710702808E+02  0.59632876167E+02  0.14369734581E+03  0.12509000000E+03 0.  0.
         25    1    3    3    0    0  0.90972822533E+02  0.22957552957E+02  0.21010123903E+03  0.26190292556E+03  0.12509000000E+03 0.  0.
<mgrwt>
<rscale>  2 0.44449301E+03</rscale>
<asrwt>0</asrwt>
<pdfrwt beam="1">  1       21 0.75402205E-01 0.44449301E+03</pdfrwt>
<pdfrwt beam="2">  1       21 0.14166677E-01 0.44449301E+03</pdfrwt>
<totfact> 0.63208190E+04</totfact>
</mgrwt>
</event>
<event>
 7    0  0.4750554E-002  0.4536177E+03  0.7546771E-02  0.1026649E+00
         21   -1    0    0  502  501  0.00000000000E+00  0.00000000000E+00  0.33567270278E+03  0.33567270278E+03  0.00000000000E+00 0.  1.
         21   -1    0    0  501  502 -0.00000000000E+00 -0.00000000000E+00 -0.15325125689E+03  0.15325125689E+03  0.00000000000E+00 0.  1.
      99926    2    1    2    0    0  0.00000000000E+00 -0.14210854715E-13  0.18242144590E+03  0.48892395967E+03  0.45361774041E+03 0.  0.
      99925    2    3    3    0    0  0.14634271855E+02  0.11096020031E+03  0.11452465839E+03  0.30786096008E+03  0.26293753136E+03 0.  0.
         25    1    4    4    0    0 -0.91989978101E+01  0.30311281973E+02  0.21726908664E+02  0.13085473639E+03  0.12509000000E+03 0.  0.
         25    1    4    4    0    0  0.23833269665E+02  0.80648918337E+02  0.92797749728E+02  0.17700622369E+03  0.12509000000E+03 0.  0.
         25    1    3    3    0    0 -0.14634271855E+02 -0.11096020031E+03  0.67896787505E+02  0.18106299959E+03  0.12509000000E+03 0.  0.
<mgrwt>
<rscale>  2 0.45361774E+03</rscale>
<asrwt>0</asrwt>
<pdfrwt beam="1">  1       21 0.49363633E-01 0.45361774E+03</pdfrwt>
<pdfrwt beam="2">  1       21 0.22536950E-01 0.45361774E+03</pdfrwt>
<totfact> 0.66785873E+04</totfact>
</mgrwt>
</event>
<event>
 7    0  0.4750554E-002  0.4547519E+03  0.7546771E-02  0.1026314E+00
         21   -1    0    0  502  501  0.00000000000E+00  0.00000000000E+00  0.22158423405E+03  0.22158423405E+03  0.00000000000E+00 0.  1.
         21   -1    0    0  501  502 -0.00000000000E+00 -0.00000000000E+00 -0.23331909413E+03  0.23331909413E+03  0.00000000000E+00 0.  1.
      99926    2    1    2    0    0  0.17763568394E-14 -0.35527136788E-14 -0.11734860079E+02  0.45490332818E+03  0.45475194452E+03 0.  0.
      99925    2    3    3    0    0 -0.64767838332E+01  0.16503500671E+02  0.10417734888E+03  0.28344644570E+03  0.26301074750E+03 0.  0.
         25    1    3    3    0    0  0.64767838332E+01 -0.16503500671E+02 -0.11591220896E+03  0.17145688248E+03  0.12509000000E+03 0.  0.
         25    1    4    4    0    0  0.11731224203E+02 -0.16265097974E+02  0.82213893864E+02  0.15102585036E+03  0.12509000000E+03 0.  0.
         25    1    4    4    0    0 -0.18208008037E+02  0.32768598646E+02  0.21963455014E+02  0.13242059534E+03  0.12509000000E+03 0.  0.
<mgrwt>
<rscale>  2 0.45475194E+03</rscale>
<asrwt>0</asrwt>
<pdfrwt beam="1">  1       21 0.32585917E-01 0.45475194E+03</pdfrwt>
<pdfrwt beam="2">  1       21 0.34311631E-01 0.45475194E+03</pdfrwt>
<totfact> 0.68688731E+04</totfact>
</mgrwt>
</event>
<event>
 7    0  0.4750554E-002  0.4544913E+03  0.7546771E-02  0.1026391E+00
         21   -1    0    0  502  501  0.00000000000E+00  0.00000000000E+00  0.31931671438E+03  0.31931671438E+03  0.00000000000E+00 0. -1.
         21   -1    0    0  501  502 -0.00000000000E+00 -0.00000000000E+00 -0.16172214946E+03  0.16172214946E+03  0.00000000000E+00 0. -1.
      99926    2    1    2    0    0  0.00000000000E+00 -0.17763568394E-14  0.15759456492E+03  0.48103886385E+03  0.45449129985E+03 0.  0.
      99925    2    3    3    0    0  0.48806438163E+02 -0.69439468018E+01 -0.80196375054E+01  0.26771784063E+03  0.26301756747E+03 0.  0.
         25    1    4    4    0    0 -0.28500552417E+01  0.27051324695E+02 -0.14177218149E+01  0.12802115067E+03  0.12509000000E+03 0.  0.
         25    1    4    4    0    0  0.51656493405E+02 -0.33995271496E+02 -0.66019156905E+01  0.13969668996E+03  0.12509000000E+03 0.  0.
         25    1    3    3    0    0 -0.48806438163E+02  0.69439468018E+01  0.16561420242E+03  0.21332102322E+03  0.12509000000E+03 0.  0.
<mgrwt>
<rscale>  2 0.45449130E+03</rscale>
<asrwt>0</asrwt>
<pdfrwt beam="1">  1       21 0.46958340E-01 0.45449130E+03</pdfrwt>
<pdfrwt beam="2">  1       21 0.23782669E-01 0.45449130E+03</pdfrwt>
<totfact> 0.66894262E+04</totfact>
</mgrwt>
</event>
<event>
 7    0  0.4750554E-002  0.4541976E+03  0.7546771E-02  0.1026478E+00
         21   -1    0    0  502  501  0.00000000000E+00  0.00000000000E+00  0.22226468271E+03  0.22226468271E+03  0.00000000000E+00 0. -1.
         21   -1    0    0  501  502 -0.00000000000E+00 -0.00000000000E+00 -0.23203801388E+03  0.23203801388E+03  0.00000000000E+00 0. -1.
      99926    2    1    2    0    0 -0.14210854715E-13  0.88817841970E-15 -0.97733311708E+01  0.45430269658E+03  0.45419755847E+03 0.  0.
      99925    2    3    3    0    0 -0.75553229172E+02 -0.57743030953E+01 -0.89240710250E+02  0.28785689323E+03  0.26297538592E+03 0.  0.
         25    1    4    4    0    0 -0.12824787648E+00 -0.20719802220E+02 -0.38682765009E+02  0.13256391311E+03  0.12509000000E+03 0.  0.
         25    1    4    4    0    0 -0.75424981295E+02  0.14945499125E+02 -0.50557945241E+02  0.15529298012E+03  0.12509000000E+03 0.  0.
         25    1    3    3    0    0  0.75553229172E+02  0.57743030953E+01  0.79467379079E+02  0.16644580335E+03  0.12509000000E+03 0.  0.
<mgrwt>
<rscale>  2 0.45419756E+03</rscale>
<asrwt>0</asrwt>
<pdfrwt beam="1">  1       21 0.32685983E-01 0.45419756E+03</pdfrwt>
<pdfrwt beam="2">  1       21 0.34123237E-01 0.45419756E+03</pdfrwt>
<totfact> 0.69037877E+04</totfact>
</mgrwt>
</event>
<event>
 7    0  0.4750554E-002  0.4515010E+03  0.7546771E-02  0.1027275E+00
         21   -1    0    0  502  501  0.00000000000E+00  0.00000000000E+00  0.11592855600E+04  0.11592855600E+04  0.00000000000E+00 0. -1.
         21   -1    0    0  501  502 -0.00000000000E+00 -0.00000000000E+00 -0.43960952591E+02  0.43960952591E+02  0.00000000000E+00 0. -1.
      99926    2    1    2    0    0 -0.14210854715E-13  0.00000000000E+00  0.11153246074E+04  0.12032465126E+04  0.45150104116E+03 0.  0.
      99925    2    3    3    0    0  0.72733024445E+02  0.64881716956E+02  0.83937440073E+03  0.88497657259E+03  0.26293424920E+03 0.  0.
         25    1    4    4    0    0  0.74118789864E+02  0.17816775891E+02  0.41939817247E+03  0.44424471599E+03  0.12509000000E+03 0.  0.
         25    1    4    4    0    0 -0.13857654192E+01  0.47064941065E+02  0.41997622826E+03  0.44073185660E+03  0.12509000000E+03 0.  0.
         25    1    3    3    0    0 -0.72733024445E+02 -0.64881716956E+02  0.27595020670E+03  0.31826994002E+03  0.12509000000E+03 0.  0.
<mgrwt>
<rscale>  2 0.45150104E+03</rscale>
<asrwt>0</asrwt>
<pdfrwt beam="1">  1       21 0.17048315E+00 0.45150104E+03</pdfrwt>
<pdfrwt beam="2">  1       21 0.64648467E-02 0.45150104E+03</pdfrwt>
<totfact> 0.32941965E+04</totfact>
</mgrwt>
</event>
<event>
 7    0  0.4750554E-002  0.4561699E+03  0.7546771E-02  0.1025898E+00
         21   -1    0    0  502  501  0.00000000000E+00  0.00000000000E+00  0.34524130323E+02  0.34524130323E+02  0.00000000000E+00 0. -1.
         21   -1    0    0  501  502 -0.00000000000E+00 -0.00000000000E+00 -0.15068516665E+04  0.15068516665E+04  0.00000000000E+00 0. -1.
      99926    2    1    2    0    0  0.00000000000E+00  0.00000000000E+00 -0.14723275362E+04  0.15413757968E+04  0.45616989516E+03 0.  0.
      99925    2    3    3    0    0 -0.66676115692E+02 -0.90116072605E+02 -0.10002596383E+04  0.10403147035E+04  0.26299948164E+03 0.  0.
         25    1    3    3    0    0  0.66676115692E+02  0.90116072605E+02 -0.47206789784E+03  0.50106109330E+03  0.12509000000E+03 0.  0.
         25    1    4    4    0    0 -0.30332091736E+02 -0.17719889144E+02 -0.58115532095E+03  0.59550234712E+03  0.12509000000E+03 0.  0.
         25    1    4    4    0    0 -0.36344023956E+02 -0.72396183461E+02 -0.41910431740E+03  0.44481235641E+03  0.12509000000E+03 0.  0.
<mgrwt>
<rscale>  2 0.45616990E+03</rscale>
<asrwt>0</asrwt>
<pdfrwt beam="1">  1       21 0.50770792E-02 0.45616990E+03</pdfrwt>
<pdfrwt beam="2">  1       21 0.22159578E+00 0.45616990E+03</pdfrwt>
<totfact> 0.22577234E+04</totfact>
</mgrwt>
</event>
<event>
 7    0  0.4750554E-002  0.4174620E+03  0.7546771E-02  0.1037895E+00
         21   -1    0    0  502  501  0.00000000000E+00  0.00000000000E+00  0.92712230941E+02  0.92712230941E+02  0.00000000000E+00 0.  1.
         21   -1    0    0  501  502 -0.00000000000E+00 -0.00000000000E+00 -0.46993410879E+03  0.46993410879E+03  0.00000000000E+00 0.  1.
      99926    2    1    2    0    0  0.00000000000E+00  0.00000000000E+00 -0.37722187785E+03  0.56264633973E+03  0.41746204436E+03 0.  0.
      99925    2    3    3    0    0 -0.17954003590E+02 -0.56993311763E+02 -0.30202110984E+03  0.40493379286E+03  0.26302859537E+03 0.  0.
         25    1    4    4    0    0  0.24082048753E+01  0.10153396757E+02 -0.12565649213E+03  0.17761180431E+03  0.12509000000E+03 0.  0.
         25    1    4    4    0    0 -0.20362208466E+02 -0.67146708520E+02 -0.17636461771E+03  0.22732198855E+03  0.12509000000E+03 0.  0.
         25    1    3    3    0    0  0.17954003590E+02  0.56993311763E+02 -0.75200768008E+02  0.15771254687E+03  0.12509000000E+03 0.  0.
<mgrwt>
<rscale>  2 0.41746204E+03</rscale>
<asrwt>0</asrwt>
<pdfrwt beam="1">  1       21 0.13634152E-01 0.41746204E+03</pdfrwt>
<pdfrwt beam="2">  1       21 0.69107957E-01 0.41746204E+03</pdfrwt>
<totfact> 0.83094031E+04</totfact>
</mgrwt>
</event>
<event>
 7    0  0.4750554E-002  0.4189270E+03  0.7546771E-02  0.1037416E+00
         21   -1    0    0  502  501  0.00000000000E+00  0.00000000000E+00  0.96998274327E+02  0.96998274327E+02  0.00000000000E+00 0. -1.
         21   -1    0    0  501  502 -0.00000000000E+00 -0.00000000000E+00 -0.45232710886E+03  0.45232710886E+03  0.00000000000E+00 0. -1.
      99926    2    1    2    0    0  0.00000000000E+00  0.00000000000E+00 -0.35532883453E+03  0.54932538318E+03  0.41892695779E+03 0.  0.
      99925    2    3    3    0    0  0.12817011444E+02 -0.26186606774E+02 -0.32172634014E+03  0.41655998903E+03  0.26299120206E+03 0.  0.
         25    1    4    4    0    0  0.27680096172E+02 -0.41478868421E+02 -0.13404172492E+03  0.19000362199E+03  0.12509000000E+03 0.  0.
         25    1    4    4    0    0 -0.14863084728E+02  0.15292261647E+02 -0.18768461522E+03  0.22655636703E+03  0.12509000000E+03 0.  0.
         25    1    3    3    0    0 -0.12817011444E+02  0.26186606774E+02 -0.33602494386E+02  0.13276539416E+03  0.12509000000E+03 0.  0.
<mgrwt>
<rscale>  2 0.41892696E+03</rscale>
<asrwt>0</asrwt>
<pdfrwt beam="1">  1       21 0.14264452E-01 0.41892696E+03</pdfrwt>
<pdfrwt beam="2">  1       21 0.66518694E-01 0.41892696E+03</pdfrwt>
<totfact> 0.83245153E+04</totfact>
</mgrwt>
</event>
<event>
 7    0  0.4750554E-002  0.4594084E+03  0.7546771E-02  0.1024953E+00
         21   -1    0    0  502  501  0.00000000000E+00  0.00000000000E+00  0.30493632783E+03  0.30493632783E+03  0.00000000000E+00 0.  1.
         21   -1    0    0  501  502 -0.00000000000E+00 -0.00000000000E+00 -0.17303293781E+03  0.17303293781E+03  0.00000000000E+00 0.  1.
      99926    2    1    2    0    0  0.00000000000E+00  0.00000000000E+00  0.13190339002E+03  0.47796926563E+03  0.45940843984E+03 0.  0.
      99925    2    3    3    0    0 -0.11489400437E+03 -0.12152010015E+02  0.62331549442E+02  0.29402347827E+03  0.26308987082E+03 0.  0.
         25    1    4    4    0    0 -0.62406786221E+02 -0.54710730899E+01 -0.97905658122E+01  0.14024230063E+03  0.12509000000E+03 0.  0.
         25    1    4    4    0    0 -0.52487218150E+02 -0.66809369253E+01  0.72122115254E+02  0.15378117764E+03  0.12509000000E+03 0.  0.
         25    1    3    3    0    0  0.11489400437E+03  0.12152010015E+02  0.69571840576E+02  0.18394578736E+03  0.12509000000E+03 0.  0.
<mgrwt>
<rscale>  2 0.45940844E+03</rscale>
<asrwt>0</asrwt>
<pdfrwt beam="1">  1       21 0.44843578E-01 0.45940844E+03</pdfrwt>
<pdfrwt beam="2">  1       21 0.25446020E-01 0.45940844E+03</pdfrwt>
<totfact> 0.64559852E+04</totfact>
</mgrwt>
</event>
<event>
 7    0  0.4750554E-002  0.4551907E+03  0.7546771E-02  0.1026185E+00
         21   -1    0    0  502  501  0.00000000000E+00  0.00000000000E+00  0.80703898160E+02  0.80703898160E+02  0.00000000000E+00 0.  1.
         21   -1    0    0  501  502 -0.00000000000E+00 -0.00000000000E+00 -0.64184816283E+03  0.64184816283E+03  0.00000000000E+00 0.  1.
      99926    2    1    2    0    0  0.00000000000E+00  0.00000000000E+00 -0.56114426467E+03  0.72255206099E+03  0.45519072384E+03 0.  0.
      99925    2    3    3    0    0  0.94393408614E+02 -0.61095404207E+02 -0.33093155500E+03  0.43744126885E+03  0.26305209672E+03 0.  0.
         25    1    3    3    0    0 -0.94393408614E+02  0.61095404207E+02 -0.23021270967E+03  0.28511079214E+03  0.12509000000E+03 0.  0.
         25    1    4    4    0    0  0.28870296519E+02 -0.55808579648E+02 -0.20452847254E+03  0.24784570959E+03  0.12509000000E+03 0.  0.
         25    1    4    4    0    0  0.65523112095E+02 -0.52868245585E+01 -0.12640308246E+03  0.18959555925E+03  0.12509000000E+03 0.  0.
<mgrwt>
<rscale>  2 0.45519072E+03</rscale>
<asrwt>0</asrwt>
<pdfrwt beam="1">  1       21 0.11868220E-01 0.45519072E+03</pdfrwt>
<pdfrwt beam="2">  1       21 0.94389440E-01 0.45519072E+03</pdfrwt>
<totfact> 0.51618140E+04</totfact>
</mgrwt>
</event>
<event>
 7    0  0.4750554E-002  0.4618260E+03  0.7546771E-02  0.1024253E+00
         21   -1    0    0  502  501  0.00000000000E+00  0.00000000000E+00  0.25289741769E+04  0.25289741769E+04  0.00000000000E+00 0.  1.
         21   -1    0    0  501  502 -0.00000000000E+00 -0.00000000000E+00 -0.21083972844E+02  0.21083972844E+02  0.00000000000E+00 0.  1.
      99926    2    1    2    0    0  0.00000000000E+00  0.00000000000E+00  0.25078902040E+04  0.25500581497E+04  0.46182604027E+03 0.  0.
      99925    2    3    3    0    0 -0.85234773110E+02  0.81651180657E+02  0.16731663810E+04  0.16978004125E+04  0.26288518454E+03 0.  0.
         25    1    3    3    0    0  0.85234773110E+02 -0.81651180657E+02  0.83472382303E+03  0.85225773724E+03  0.12509000000E+03 0.  0.
         25    1    4    4    0    0 -0.23005474352E+02  0.76347062610E+02  0.86837860951E+03  0.88095802588E+03  0.12509000000E+03 0.  0.
         25    1    4    4    0    0 -0.62229298758E+02  0.53041180475E+01  0.80478777147E+03  0.81684238658E+03  0.12509000000E+03 0.  0.
<mgrwt>
<rscale>  2 0.46182604E+03</rscale>
<asrwt>0</asrwt>
<pdfrwt beam="1">  1       21 0.37190776E+00 0.46182604E+03</pdfrwt>
<pdfrwt beam="2">  1       21 0.31005860E-02 0.46182604E+03</pdfrwt>
<totfact> 0.62924637E+03</totfact>
</mgrwt>
</event>
<event>
 6    0  0.4750554E-002  0.4557168E+03  0.7546771E-02  0.1026031E+00
         21   -1    0    0  502  501  0.00000000000E+00  0.00000000000E+00  0.16203025314E+03  0.16203025314E+03  0.00000000000E+00 0. -1.
         21   -1    0    0  501  502 -0.00000000000E+00 -0.00000000000E+00 -0.32043064694E+03  0.32043064694E+03  0.00000000000E+00 0. -1.
      99926    2    1    2    0    0 -0.66613381478E-15  0.00000000000E+00 -0.15840039380E+03  0.48246090008E+03  0.45571683681E+03 0.  0.
         25    1    3    3    0    0  0.19117904206E+01  0.49556597970E+02 -0.16425293137E+03  0.21233474729E+03  0.12509000000E+03 0.  0.
         25    1    3    3    0    0 -0.33485926284E+02 -0.54754473622E+02 -0.38181049910E+01  0.14064652739E+03  0.12509000000E+03 0.  0.
         25    1    3    3    0    0  0.31574135864E+02  0.51978756526E+01  0.96706425587E+01  0.12947962540E+03  0.12509000000E+03 0.  0.
<mgrwt>
<rscale>  2 0.45571684E+03</rscale>
<asrwt>0</asrwt>
<pdfrwt beam="1">  1       21 0.23827978E-01 0.45571684E+03</pdfrwt>
<pdfrwt beam="2">  1       21 0.47122154E-01 0.45571684E+03</pdfrwt>
<totfact> 0.66144224E+04</totfact>
</mgrwt>
</event>
<event>
 7    0  0.4750554E-002  0.4510224E+03  0.7546771E-02  0.1027418E+00
         21   -1    0    0  502  501  0.00000000000E+00  0.00000000000E+00  0.13034575880E+04  0.13034575880E+04  0.00000000000E+00 0. -1.
         21   -1    0    0  501  502 -0.00000000000E+00 -0.00000000000E+00 -0.39015693873E+02  0.39015693873E+02  0.00000000000E+00 0. -1.
      99926    2    1    2    0    0  0.00000000000E+00  0.13322676296E-14  0.12644418941E+04  0.13424732818E+04  0.45102240400E+03 0.  0.
      99925    2    3    3    0    0  0.94451708353E+02 -0.24834116518E+01  0.63102659454E+03  0.68994761771E+03  0.26249925641E+03 0.  0.
         25    1    4    4    0    0  0.19878900073E+02  0.27175123690E+02  0.32041082235E+03  0.34560709078E+03  0.12509000000E+03 0.  0.
         25    1    4    4    0    0  0.74572808280E+02 -0.29658535342E+02  0.31061577219E+03  0.34434052693E+03  0.12509000000E+03 0.  0.
         25    1    3    3    0    0 -0.94451708353E+02  0.24834116518E+01  0.63341529954E+03  0.65252566412E+03  0.12509000000E+03 0.  0.
<mgrwt>
<rscale>  2 0.45102240E+03</rscale>
<asrwt>0</asrwt>
<pdfrwt beam="1">  1       21 0.19168491E+00 0.45102240E+03</pdfrwt>
<pdfrwt beam="2">  1       21 0.57376029E-02 0.45102240E+03</pdfrwt>
<totfact> 0.28785718E+04</totfact>
</mgrwt>
</event>
<event>
 7    0  0.4750554E-002  0.4492015E+03  0.7546771E-02  0.1027960E+00
         21   -1    0    0  502  501  0.00000000000E+00  0.00000000000E+00  0.43577948714E+03  0.43577948714E+03  0.00000000000E+00 0.  1.
         21   -1    0    0  501  502 -0.00000000000E+00 -0.00000000000E+00 -0.11575922572E+03  0.11575922572E+03  0.00000000000E+00 0.  1.
      99926    2    1    2    0    0  0.00000000000E+00  0.00000000000E+00  0.32002026142E+03  0.55153871285E+03  0.44920149605E+03 0.  0.
      99925    2    3    3    0    0  0.42371432491E+02  0.95416044208E+02  0.16965320554E+03  0.32982421315E+03  0.26287305234E+03 0.  0.
         25    1    3    3    0    0 -0.42371432491E+02 -0.95416044208E+02  0.15036705588E+03  0.22171449970E+03  0.12509000000E+03 0.  0.
         25    1    4    4    0    0  0.61578942907E+02  0.44681458974E+02  0.83707568689E+02  0.16865012345E+03  0.12509000000E+03 0.  0.
         25    1    4    4    0    0 -0.19207510416E+02  0.50734585234E+02  0.85945636852E+02  0.16117408970E+03  0.12509000000E+03 0.  0.
<mgrwt>
<rscale>  2 0.44920150E+03</rscale>
<asrwt>0</asrwt>
<pdfrwt beam="1">  1       21 0.64085218E-01 0.44920150E+03</pdfrwt>
<pdfrwt beam="2">  1       21 0.17023416E-01 0.44920150E+03</pdfrwt>
<totfact> 0.64681530E+04</totfact>
</mgrwt>
</event>
<event>
 7    0  0.4750554E-002  0.4389493E+03  0.7546771E-02  0.1031070E+00
         21   -1    0    0  502  501  0.00000000000E+00  0.00000000000E+00  0.10237073542E+03  0.10237073542E+03  0.00000000000E+00 0. -1.
         21   -1    0    0  501  502 -0.00000000000E+00 -0.00000000000E+00 -0.47053600595E+03  0.47053600595E+03  0.00000000000E+00 0. -1.
      99926    2    1    2    0    0 -0.71054273576E-14  0.35527136788E-14 -0.36816527054E+03  0.57290674137E+03  0.43894927711E+03 0.  0.
      99925    2    3    3    0    0  0.51583619291E+02 -0.22737664680E+02 -0.13167118062E+03  0.29949343913E+03  0.26302309614E+03 0.  0.
         25    1    4    4    0    0  0.49926957675E+02  0.14628414505E+02 -0.89162397898E+02  0.16218548922E+03  0.12509000000E+03 0.  0.
         25    1    3    3    0    0 -0.51583619291E+02  0.22737664680E+02 -0.23649408992E+03  0.27341330224E+03  0.12509000000E+03 0.  0.
         25    1    4    4    0    0  0.16566616159E+01 -0.37366079185E+02 -0.42508782721E+02  0.13730794991E+03  0.12509000000E+03 0.  0.
<mgrwt>
<rscale>  2 0.43894928E+03</rscale>
<asrwt>0</asrwt>
<pdfrwt beam="1">  1       21 0.15054520E-01 0.43894928E+03</pdfrwt>
<pdfrwt beam="2">  1       21 0.69196470E-01 0.43894928E+03</pdfrwt>
<totfact> 0.68688781E+04</totfact>
</mgrwt>
</event>
<event>
 7    0  0.4750554E-002  0.4473846E+03  0.7546771E-02  0.1028505E+00
         21   -1    0    0  502  501  0.00000000000E+00  0.00000000000E+00  0.98553958037E+02  0.98553958037E+02  0.00000000000E+00 0.  1.
         21   -1    0    0  501  502 -0.00000000000E+00 -0.00000000000E+00 -0.50772433041E+03  0.50772433041E+03  0.00000000000E+00 0.  1.
      99926    2    1    2    0    0  0.00000000000E+00  0.00000000000E+00 -0.40917037237E+03  0.60627828844E+03  0.44738458781E+03 0.  0.
      99925    2    3    3    0    0 -0.55716784921E+02  0.89564238806E+02 -0.25331761776E+03  0.38030549757E+03  0.26331795043E+03 0.  0.
         25    1    4    4    0    0 -0.23299021466E+02  0.21456839594E+01 -0.12369549326E+03  0.17746980451E+03  0.12509000000E+03 0.  0.
         25    1    4    4    0    0 -0.32417763456E+02  0.87418554846E+02 -0.12962212450E+03  0.20283569306E+03  0.12509000000E+03 0.  0.
         25    1    3    3    0    0  0.55716784921E+02 -0.89564238806E+02 -0.15585275461E+03  0.22597279087E+03  0.12509000000E+03 0.  0.
<mgrwt>
<rscale>  2 0.44738459E+03</rscale>
<asrwt>0</asrwt>
<pdfrwt beam="1">  1       21 0.14493229E-01 0.44738459E+03</pdfrwt>
<pdfrwt beam="2">  1       21 0.74665343E-01 0.44738459E+03</pdfrwt>
<totfact> 0.61936173E+04</totfact>
</mgrwt>
</event>
<event>
 7    0  0.4750554E-002  0.4531094E+03  0.7546771E-02  0.1026799E+00
         21   -1    0    0  502  501  0.00000000000E+00  0.00000000000E+00  0.37754349474E+03  0.37754349474E+03  0.00000000000E+00 0.  1.
         21   -1    0    0  501  502 -0.00000000000E+00 -0.00000000000E+00 -0.13595001089E+03  0.13595001089E+03  0.00000000000E+00 0.  1.
      99926    2    1    2    0    0  0.00000000000E+00  0.00000000000E+00  0.24159348385E+03  0.51349350563E+03  0.45310944472E+03 0.  0.
      99925    2    3    3    0    0 -0.14553332593E+02  0.10987379485E+03  0.17203747042E+03  0.33246975750E+03  0.26202136962E+03 0.  0.
         25    1    3    3    0    0  0.14553332593E+02 -0.10987379485E+03  0.69556013426E+02  0.18102374814E+03  0.12509000000E+03 0.  0.
         25    1    4    4    0    0  0.22053997053E+02  0.45306258493E+02  0.54464652527E+02  0.14544051127E+03  0.12509000000E+03 0.  0.
         25    1    4    4    0    0 -0.36607329646E+02  0.64567536361E+02  0.11757281790E+03  0.18702924623E+03  0.12509000000E+03 0.  0.
<mgrwt>
<rscale>  2 0.45310944E+03</rscale>
<asrwt>0</asrwt>
<pdfrwt beam="1">  1       21 0.55521102E-01 0.45310944E+03</pdfrwt>
<pdfrwt beam="2">  1       21 0.19992649E-01 0.45310944E+03</pdfrwt>
<totfact> 0.65306968E+04</totfact>
</mgrwt>
</event>
<event>
 7    0  0.4750554E-002  0.4638736E+03  0.7546771E-02  0.1023664E+00
         21   -1    0    0  502  501  0.00000000000E+00  0.00000000000E+00  0.10258995229E+04  0.10258995229E+04  0.00000000000E+00 0.  1.
         21   -1    0    0  501  502 -0.00000000000E+00 -0.00000000000E+00 -0.52436607583E+02  0.52436607583E+02  0.00000000000E+00 0.  1.
      99926    2    1    2    0    0  0.00000000000E+00  0.35527136788E-14  0.97346291534E+03  0.10783361305E+04  0.46387364962E+03 0.  0.
      99925    2    3    3    0    0 -0.11735003633E+03  0.27869238564E+02  0.59057915595E+03  0.65786590946E+03  0.26354523311E+03 0.  0.
         25    1    4    4    0    0 -0.44918811576E+02  0.80485999316E+01  0.19399526303E+03  0.23529587708E+03  0.12509000000E+03 0.  0.
         25    1    3    3    0    0  0.11735003633E+03 -0.27869238564E+02  0.38288375939E+03  0.42047022105E+03  0.12509000000E+03 0.  0.
         25    1    4    4    0    0 -0.72431224755E+02  0.19820638632E+02  0.39658389292E+03  0.42257003237E+03  0.12509000000E+03 0.  0.
<mgrwt>
<rscale>  2 0.46387365E+03</rscale>
<asrwt>0</asrwt>
<pdfrwt beam="1">  1       21 0.15086756E+00 0.46387365E+03</pdfrwt>
<pdfrwt beam="2">  1       21 0.77112665E-02 0.46387365E+03</pdfrwt>
<totfact> 0.33849312E+04</totfact>
</mgrwt>
</event>
<event>
 7    0  0.4750554E-002  0.4583595E+03  0.7546771E-02  0.1025258E+00
         21   -1    0    0  502  501  0.00000000000E+00  0.00000000000E+00  0.16753195997E+04  0.16753195997E+04  0.00000000000E+00 0.  1.
         21   -1    0    0  501  502 -0.00000000000E+00 -0.00000000000E+00 -0.31351252232E+02  0.31351252232E+02  0.00000000000E+00 0.  1.
      99926    2    1    2    0    0  0.00000000000E+00  0.00000000000E+00  0.16439683474E+04  0.17066708519E+04  0.45835954158E+03 0.  0.
      99925    2    3    3    0    0 -0.65113934919E+02 -0.91906654050E+02  0.92425259885E+03  0.96753289154E+03  0.26304062834E+03 0.  0.
         25    1    4    4    0    0  0.12834606535E+01 -0.45897276722E+02  0.35685842037E+03  0.38092472691E+03  0.12509000000E+03 0.  0.
         25    1    3    3    0    0  0.65113934919E+02  0.91906654050E+02  0.71971574860E+03  0.73913796037E+03  0.12509000000E+03 0.  0.
         25    1    4    4    0    0 -0.66397395572E+02 -0.46009377328E+02  0.56739417848E+03  0.58660816463E+03  0.12509000000E+03 0.  0.
<mgrwt>
<rscale>  2 0.45835954E+03</rscale>
<asrwt>0</asrwt>
<pdfrwt beam="1">  1       21 0.24637047E+00 0.45835954E+03</pdfrwt>
<pdfrwt beam="2">  1       21 0.46104794E-02 0.45835954E+03</pdfrwt>
<totfact> 0.18632559E+04</totfact>
</mgrwt>
</event>
<event>
 7    0  0.4750554E-002  0.4573138E+03  0.7546771E-02  0.1025563E+00
         21   -1    0    0  502  501  0.00000000000E+00  0.00000000000E+00  0.63779270603E+02  0.63779270603E+02  0.00000000000E+00 0.  1.
         21   -1    0    0  501  502 -0.00000000000E+00 -0.00000000000E+00 -0.81976443952E+03  0.81976443952E+03  0.00000000000E+00 0.  1.
      99926    2    1    2    0    0  0.00000000000E+00  0.00000000000E+00 -0.75598516892E+03  0.88354371013E+03  0.45731380045E+03 0.  0.
      99925    2    3    3    0    0  0.37730599324E+02  0.10057981114E+03 -0.55768914132E+03  0.62565086572E+03  0.26245367381E+03 0.  0.
         25    1    4    4    0    0  0.52806685517E+02  0.58005799996E+02 -0.24821620368E+03  0.28881137570E+03  0.12509000000E+03 0.  0.
         25    1    3    3    0    0 -0.37730599324E+02 -0.10057981114E+03 -0.19829602760E+03  0.25789284441E+03  0.12509000000E+03 0.  0.
         25    1    4    4    0    0 -0.15076086193E+02  0.42574011146E+02 -0.30947293764E+03  0.33683949001E+03  0.12509000000E+03 0.  0.
<mgrwt>
<rscale>  2 0.45731380E+03</rscale>
<asrwt>0</asrwt>
<pdfrwt beam="1">  1       21 0.93793050E-02 0.45731380E+03</pdfrwt>
<pdfrwt beam="2">  1       21 0.12055359E+00 0.45731380E+03</pdfrwt>
<totfact> 0.43165365E+04</totfact>
</mgrwt>
</event>
<event>
 7    0  0.4750554E-002  0.4602059E+03  0.7546771E-02  0.1024722E+00
         21   -1    0    0  502  501  0.00000000000E+00  0.00000000000E+00  0.10037273027E+03  0.10037273027E+03  0.00000000000E+00 0. -1.
         21   -1    0    0  501  502 -0.00000000000E+00 -0.00000000000E+00 -0.52750740601E+03  0.52750740601E+03  0.00000000000E+00 0. -1.
      99926    2    1    2    0    0  0.00000000000E+00  0.00000000000E+00 -0.42713467574E+03  0.62788013627E+03  0.46020586080E+03 0.  0.
      99925    2    3    3    0    0  0.93509156686E+02  0.71856757997E+02 -0.26568190523E+03  0.39203726219E+03  0.26305699786E+03 0.  0.
         25    1    3    3    0    0 -0.93509156686E+02 -0.71856757997E+02 -0.16145277051E+03  0.23584287409E+03  0.12509000000E+03 0.  0.
         25    1    4    4    0    0  0.10981211202E+02  0.17663900345E+02 -0.14150316285E+03  0.19000856184E+03  0.12509000000E+03 0.  0.
         25    1    4    4    0    0  0.82527945484E+02  0.54192857652E+02 -0.12417874238E+03  0.20202870035E+03  0.12509000000E+03 0.  0.
<mgrwt>
<rscale>  2 0.46020586E+03</rscale>
<asrwt>0</asrwt>
<pdfrwt beam="1">  1       21 0.14760696E-01 0.46020586E+03</pdfrwt>
<pdfrwt beam="2">  1       21 0.77574619E-01 0.46020586E+03</pdfrwt>
<totfact> 0.54710666E+04</totfact>
</mgrwt>
</event>
<event>
 7    0  0.4750554E-002  0.4648374E+03  0.7546771E-02  0.1023388E+00
         21   -1    0    0  502  501  0.00000000000E+00  0.00000000000E+00  0.36927131229E+03  0.36927131229E+03  0.00000000000E+00 0. -1.
         21   -1    0    0  501  502 -0.00000000000E+00 -0.00000000000E+00 -0.14628390668E+03  0.14628390668E+03  0.00000000000E+00 0. -1.
      99926    2    1    2    0    0  0.00000000000E+00  0.00000000000E+00  0.22298740561E+03  0.51555521898E+03  0.46483739173E+03 0.  0.
      99925    2    3    3    0    0  0.53398414062E+02  0.85605486562E+02  0.64628344402E+02  0.28993431941E+03  0.26401779622E+03 0.  0.
         25    1    4    4    0    0  0.17094052103E+02  0.43197473197E+01  0.90515990685E+01  0.12665033115E+03  0.12509000000E+03 0.  0.
         25    1    4    4    0    0  0.36304361959E+02  0.81285739242E+02  0.55576745334E+02  0.16328398826E+03  0.12509000000E+03 0.  0.
         25    1    3    3    0    0 -0.53398414062E+02 -0.85605486562E+02  0.15835906121E+03  0.22562089957E+03  0.12509000000E+03 0.  0.
<mgrwt>
<rscale>  2 0.46483739E+03</rscale>
<asrwt>0</asrwt>
<pdfrwt beam="1">  1       21 0.54304605E-01 0.46483739E+03</pdfrwt>
<pdfrwt beam="2">  1       21 0.21512339E-01 0.46483739E+03</pdfrwt>
<totfact> 0.59415155E+04</totfact>
</mgrwt>
</event>
<event>
 7    0  0.4750554E-002  0.4350219E+03  0.7546771E-02  0.1032285E+00
         21   -1    0    0  502  501  0.00000000000E+00  0.00000000000E+00  0.25555775262E+03  0.25555775262E+03  0.00000000000E+00 0. -1.
         21   -1    0    0  501  502 -0.00000000000E+00 -0.00000000000E+00 -0.18512844158E+03  0.18512844158E+03  0.00000000000E+00 0. -1.
      99926    2    1    2    0    0  0.00000000000E+00  0.00000000000E+00  0.70429311040E+02  0.44068619420E+03  0.43502187750E+03 0.  0.
      99925    2    3    3    0    0 -0.70050374366E+02  0.32935273703E+02  0.97919114481E+02  0.29103665496E+03  0.26291138116E+03 0.  0.
         25    1    4    4    0    0 -0.91458690769E+01  0.33672702600E+02  0.19481174589E+02  0.13131839964E+03  0.12509000000E+03 0.  0.
         25    1    3    3    0    0  0.70050374366E+02 -0.32935273703E+02 -0.27489803441E+02  0.14964953924E+03  0.12509000000E+03 0.  0.
         25    1    4    4    0    0 -0.60904505289E+02 -0.73742889711E+00  0.78437939892E+02  0.15971825531E+03  0.12509000000E+03 0.  0.
<mgrwt>
<rscale>  2 0.43502188E+03</rscale>
<asrwt>0</asrwt>
<pdfrwt beam="1">  1       21 0.37582023E-01 0.43502188E+03</pdfrwt>
<pdfrwt beam="2">  1       21 0.27224771E-01 0.43502188E+03</pdfrwt>
<totfact> 0.81902604E+04</totfact>
</mgrwt>
</event>
<event>
 7    0  0.4750554E-002  0.4551640E+03  0.7546771E-02  0.1026193E+00
         21   -1    0    0  502  501  0.00000000000E+00  0.00000000000E+00  0.35382483168E+03  0.35382483168E+03  0.00000000000E+00 0.  1.
         21   -1    0    0  501  502 -0.00000000000E+00 -0.00000000000E+00 -0.14638196420E+03  0.14638196420E+03  0.00000000000E+00 0.  1.
      99926    2    1    2    0    0  0.00000000000E+00  0.00000000000E+00  0.20744286748E+03  0.50020679588E+03  0.45516403129E+03 0.  0.
      99925    2    3    3    0    0 -0.16273971245E+02 -0.11141276289E+03  0.11539735975E+03  0.30837997433E+03  0.26287641974E+03 0.  0.
         25    1    4    4    0    0 -0.48280915002E+02 -0.52867077432E+02  0.54715601485E+02  0.15416640288E+03  0.12509000000E+03 0.  0.
         25    1    3    3    0    0  0.16273971245E+02  0.11141276289E+03  0.92045507728E+02  0.19182682155E+03  0.12509000000E+03 0.  0.
         25    1    4    4    0    0  0.32006943757E+02 -0.58545685454E+02  0.60681758268E+02  0.15421357145E+03  0.12509000000E+03 0.  0.
<mgrwt>
<rscale>  2 0.45516403E+03</rscale>
<asrwt>0</asrwt>
<pdfrwt beam="1">  1       21 0.52033064E-01 0.45516403E+03</pdfrwt>
<pdfrwt beam="2">  1       21 0.21526759E-01 0.45516403E+03</pdfrwt>
<totfact> 0.65171236E+04</totfact>
</mgrwt>
</event>
<event>
 7    0  0.4750554E-002  0.4517544E+03  0.7546771E-02  0.1027200E+00
         21   -1    0    0  502  501  0.00000000000E+00  0.00000000000E+00  0.47129855072E+02  0.47129855072E+02  0.00000000000E+00 0.  1.
         21   -1    0    0  501  502 -0.00000000000E+00 -0.00000000000E+00 -0.10825517415E+04  0.10825517415E+04  0.00000000000E+00 0.  1.
      99926    2    1    2    0    0  0.35527136788E-14  0.00000000000E+00 -0.10354218865E+04  0.11296815966E+04  0.45175438763E+03 0.  0.
      99925    2    3    3    0    0 -0.24707077207E+02  0.72654177898E+02 -0.45884198932E+03  0.53471861026E+03  0.26362653844E+03 0.  0.
         25    1    4    4    0    0  0.92764627405E+01  0.47518386915E+02 -0.16550228733E+03  0.21303184050E+03  0.12509000000E+03 0.  0.
         25    1    4    4    0    0 -0.33983539948E+02  0.25135790983E+02 -0.29333970199E+03  0.32168676976E+03  0.12509000000E+03 0.  0.
         25    1    3    3    0    0  0.24707077207E+02 -0.72654177898E+02 -0.57657989715E+03  0.59496298635E+03  0.12509000000E+03 0.  0.
<mgrwt>
<rscale>  2 0.45175439E+03</rscale>
<asrwt>0</asrwt>
<pdfrwt beam="1">  1       21 0.69308610E-02 0.45175439E+03</pdfrwt>
<pdfrwt beam="2">  1       21 0.15919879E+00 0.45175439E+03</pdfrwt>
<totfact> 0.35354088E+04</totfact>
</mgrwt>
</event>
<event>
 7    0  0.4750554E-002  0.4574558E+03  0.7546771E-02  0.1025522E+00
         21   -1    0    0  502  501  0.00000000000E+00  0.00000000000E+00  0.78977113542E+02  0.78977113542E+02  0.00000000000E+00 0. -1.
         21   -1    0    0  501  502 -0.00000000000E+00 -0.00000000000E+00 -0.66242561873E+03  0.66242561873E+03  0.00000000000E+00 0. -1.
      99926    2    1    2    0    0  0.71054273576E-14  0.00000000000E+00 -0.58344850519E+03  0.74140273227E+03  0.45745584838E+03 0.  0.
      99925    2    3    3    0    0 -0.62532099808E+02 -0.88821389318E+02 -0.42971372267E+03  0.51539079860E+03  0.26301005517E+03 0.  0.
         25    1    4    4    0    0 -0.35121517339E+02 -0.20769801645E+02 -0.14451500827E+03  0.19544053151E+03  0.12509000000E+03 0.  0.
         25    1    3    3    0    0  0.62532099808E+02  0.88821389318E+02 -0.15373478251E+03  0.22601193367E+03  0.12509000000E+03 0.  0.
         25    1    4    4    0    0 -0.27410582468E+02 -0.68051587673E+02 -0.28519871440E+03  0.31995026709E+03  0.12509000000E+03 0.  0.
<mgrwt>
<rscale>  2 0.45745585E+03</rscale>
<asrwt>0</asrwt>
<pdfrwt beam="1">  1       21 0.11614281E-01 0.45745585E+03</pdfrwt>
<pdfrwt beam="2">  1       21 0.97415532E-01 0.45745585E+03</pdfrwt>
<totfact> 0.49744683E+04</totfact>
</mgrwt>
</event>
<event>
 7    0  0.4750554E-002  0.4731469E+03  0.7546771E-02  0.1021036E+00
         21   -1    0    0  502  501  0.00000000000E+00  0.00000000000E+00  0.42680744271E+03  0.42680744271E+03  0.00000000000E+00 0. -1.
         21   -1    0    0  501  502 -0.00000000000E+00 -0.00000000000E+00 -0.13112939038E+03  0.13112939038E+03  0.00000000000E+00 0. -1.
      99926    2    1    2    0    0 -0.14210854715E-13  0.00000000000E+00  0.29567805233E+03  0.55793683309E+03  0.47314691069E+03 0.  0.
      99925    2    3    3    0    0 -0.10373167063E+03  0.75161245553E+02  0.16129257846E+03  0.33406982791E+03  0.26301688487E+03 0.  0.
         25    1    3    3    0    0  0.10373167063E+03 -0.75161245553E+02  0.13438547387E+03  0.22386700519E+03  0.12509000000E+03 0.  0.
         25    1    4    4    0    0 -0.76340966766E+02  0.74727429114E+02  0.91013837077E+02  0.18799776198E+03  0.12509000000E+03 0.  0.
         25    1    4    4    0    0 -0.27390703862E+02  0.43381643913E+00  0.70278741387E+02  0.14607206593E+03  0.12509000000E+03 0.  0.
<mgrwt>
<rscale>  2 0.47314691E+03</rscale>
<asrwt>0</asrwt>
<pdfrwt beam="1">  1       21 0.62765800E-01 0.47314691E+03</pdfrwt>
<pdfrwt beam="2">  1       21 0.19283734E-01 0.47314691E+03</pdfrwt>
<totfact> 0.53272768E+04</totfact>
</mgrwt>
</event>
<event>
 7    0  0.4750554E-002  0.4572932E+03  0.7546771E-02  0.1025569E+00
         21   -1    0    0  502  501  0.00000000000E+00  0.00000000000E+00  0.35300653609E+03  0.35300653609E+03  0.00000000000E+00 0.  1.
         21   -1    0    0  501  502 -0.00000000000E+00 -0.00000000000E+00 -0.14809714400E+03  0.14809714400E+03  0.00000000000E+00 0.  1.
      99926    2    1    2    0    0  0.00000000000E+00  0.71054273576E-14  0.20490939208E+03  0.50110368009E+03  0.45729316552E+03 0.  0.
      99925    2    3    3    0    0  0.72674061662E+02  0.33111064237E+02  0.38049272345E+02  0.27779297843E+03  0.26333121715E+03 0.  0.
         25    1    3    3    0    0 -0.72674061662E+02 -0.33111064237E+02  0.16686011974E+03  0.22331070165E+03  0.12509000000E+03 0.  0.
         25    1    4    4    0    0  0.13691710342E+02  0.47266489844E+02  0.34268710902E+02  0.13872071454E+03  0.12509000000E+03 0.  0.
         25    1    4    4    0    0  0.58982351320E+02 -0.14155425607E+02  0.37805614425E+01  0.13907226390E+03  0.12509000000E+03 0.  0.
<mgrwt>
<rscale>  2 0.45729317E+03</rscale>
<asrwt>0</asrwt>
<pdfrwt beam="1">  1       21 0.51912726E-01 0.45729317E+03</pdfrwt>
<pdfrwt beam="2">  1       21 0.21778992E-01 0.45729317E+03</pdfrwt>
<totfact> 0.64019859E+04</totfact>
</mgrwt>
</event>
<event>
 7    0  0.4750554E-002  0.4523725E+03  0.7546771E-02  0.1027017E+00
         21   -1    0    0  502  501  0.00000000000E+00  0.00000000000E+00  0.34277221682E+03  0.34277221682E+03  0.00000000000E+00 0.  1.
         21   -1    0    0  501  502 -0.00000000000E+00 -0.00000000000E+00 -0.14925429735E+03  0.14925429735E+03  0.00000000000E+00 0.  1.
      99926    2    1    2    0    0  0.00000000000E+00 -0.35527136788E-14  0.19351791947E+03  0.49202651418E+03  0.45237252956E+03 0.  0.
      99925    2    3    3    0    0 -0.10832785788E+03  0.21087156454E+02  0.13178309065E+03  0.31415495898E+03  0.26295809991E+03 0.  0.
         25    1    3    3    0    0  0.10832785788E+03 -0.21087156454E+02  0.61734828817E+02  0.17787155520E+03  0.12509000000E+03 0.  0.
         25    1    4    4    0    0 -0.70734224406E+02 -0.24871504036E+02  0.79854155367E+02  0.16627121352E+03  0.12509000000E+03 0.  0.
         25    1    4    4    0    0 -0.37593633472E+02  0.45958660490E+02  0.51928935285E+02  0.14788374546E+03  0.12509000000E+03 0.  0.
<mgrwt>
<rscale>  2 0.45237253E+03</rscale>
<asrwt>0</asrwt>
<pdfrwt beam="1">  1       21 0.50407679E-01 0.45237253E+03</pdfrwt>
<pdfrwt beam="2">  1       21 0.21949161E-01 0.45237253E+03</pdfrwt>
<totfact> 0.67225853E+04</totfact>
</mgrwt>
</event>
<event>
 7    0  0.4750554E-002  0.4643659E+03  0.7546771E-02  0.1023523E+00
         21   -1    0    0  502  501  0.00000000000E+00  0.00000000000E+00  0.46250514483E+02  0.46250514483E+02  0.00000000000E+00 0.  1.
         21   -1    0    0  501  502 -0.00000000000E+00 -0.00000000000E+00 -0.11655852812E+04  0.11655852812E+04  0.00000000000E+00 0.  1.
      99926    2    1    2    0    0  0.00000000000E+00  0.00000000000E+00 -0.11193347667E+04  0.12118357957E+04  0.46436588561E+03 0.  0.
      99925    2    3    3    0    0  0.54490115688E+02 -0.73354853241E+02 -0.48862897535E+03  0.56238417272E+03  0.26299729082E+03 0.  0.
         25    1    3    3    0    0 -0.54490115688E+02  0.73354853241E+02 -0.63070579138E+03  0.64945162297E+03  0.12509000000E+03 0.  0.
         25    1    4    4    0    0  0.40061080322E+02  0.24936208467E+01 -0.23586876310E+03  0.26998646227E+03  0.12509000000E+03 0.  0.
         25    1    4    4    0    0  0.14429035366E+02 -0.75848474088E+02 -0.25276021225E+03  0.29239771046E+03  0.12509000000E+03 0.  0.
<mgrwt>
<rscale>  2 0.46436589E+03</rscale>
<asrwt>0</asrwt>
<pdfrwt beam="1">  1       21 0.68015456E-02 0.46436589E+03</pdfrwt>
<pdfrwt beam="2">  1       21 0.17140962E+00 0.46436589E+03</pdfrwt>
<totfact> 0.29566504E+04</totfact>
</mgrwt>
</event>
<event>
 7    0  0.4750554E-002  0.4499030E+03  0.7546771E-02  0.1027751E+00
         21   -1    0    0  502  501  0.00000000000E+00  0.00000000000E+00  0.46892090893E+02  0.46892090893E+02  0.00000000000E+00 0. -1.
         21   -1    0    0  501  502 -0.00000000000E+00 -0.00000000000E+00 -0.10791409487E+04  0.10791409487E+04  0.00000000000E+00 0. -1.
      99926    2    1    2    0    0  0.00000000000E+00  0.00000000000E+00 -0.10322488578E+04  0.11260330396E+04  0.44990299156E+03 0.  0.
      99925    2    3    3    0    0  0.73768095335E+02 -0.76467446202E+02 -0.59865190204E+03  0.66241376652E+03  0.26290472806E+03 0.  0.
         25    1    3    3    0    0 -0.73768095335E+02  0.76467446202E+02 -0.43359695579E+03  0.46361927310E+03  0.12509000000E+03 0.  0.
         25    1    4    4    0    0  0.72448259687E+02 -0.41881753596E+02 -0.37097583942E+03  0.40034162056E+03  0.12509000000E+03 0.  0.
         25    1    4    4    0    0  0.13198356476E+01 -0.34585692606E+02 -0.22767606262E+03  0.26207214596E+03  0.12509000000E+03 0.  0.
<mgrwt>
<rscale>  2 0.44990299E+03</rscale>
<asrwt>0</asrwt>
<pdfrwt beam="1">  1       21 0.68958953E-02 0.44990299E+03</pdfrwt>
<pdfrwt beam="2">  1       21 0.15869721E+00 0.44990299E+03</pdfrwt>
<totfact> 0.36002109E+04</totfact>
</mgrwt>
</event>
<event>
 7    0  0.4750554E-002  0.4512072E+03  0.7546771E-02  0.1027363E+00
         21   -1    0    0  502  501  0.00000000000E+00  0.00000000000E+00  0.22542730204E+04  0.22542730204E+04  0.00000000000E+00 0. -1.
         21   -1    0    0  501  502 -0.00000000000E+00 -0.00000000000E+00 -0.22578007231E+02  0.22578007231E+02  0.00000000000E+00 0. -1.
      99926    2    1    2    0    0  0.00000000000E+00  0.14210854715E-13  0.22316950131E+04  0.22768510276E+04  0.45120723644E+03 0.  0.
      99925    2    3    3    0    0 -0.59442591107E+02 -0.91480187963E+02  0.14569764080E+04  0.14845515440E+04  0.26307981103E+03 0.  0.
         25    1    4    4    0    0  0.85207961975E+00 -0.17614730175E+02  0.58224837247E+03  0.59579499839E+03  0.12509000000E+03 0.  0.
         25    1    4    4    0    0 -0.60294670727E+02 -0.73865457788E+02  0.87472803548E+03  0.88875654559E+03  0.12509000000E+03 0.  0.
         25    1    3    3    0    0  0.59442591107E+02  0.91480187963E+02  0.77471860520E+03  0.79229948363E+03  0.12509000000E+03 0.  0.
<mgrwt>
<rscale>  2 0.45120724E+03</rscale>
<asrwt>0</asrwt>
<pdfrwt beam="1">  1       21 0.33151059E+00 0.45120724E+03</pdfrwt>
<pdfrwt beam="2">  1       21 0.33202967E-02 0.45120724E+03</pdfrwt>
<totfact> 0.99843224E+03</totfact>
</mgrwt>
</event>
<event>
 7    0  0.4750554E-002  0.4544101E+03  0.7546771E-02  0.1026415E+00
         21   -1    0    0  502  501  0.00000000000E+00  0.00000000000E+00  0.17271673809E+03  0.17271673809E+03  0.00000000000E+00 0.  1.
         21   -1    0    0  501  502 -0.00000000000E+00 -0.00000000000E+00 -0.29888321226E+03  0.29888321226E+03  0.00000000000E+00 0.  1.
      99926    2    1    2    0    0 -0.11102230246E-14  0.00000000000E+00 -0.12616647417E+03  0.47159995036E+03  0.45441009449E+03 0.  0.
      99925    2    3    3    0    0  0.10933162111E+01 -0.93393235321E+02 -0.13577992005E+02  0.27912354619E+03  0.26268250880E+03 0.  0.
         25    1    3    3    0    0 -0.10933162111E+01  0.93393235321E+02 -0.11258848216E+03  0.19247640416E+03  0.12509000000E+03 0.  0.
         25    1    4    4    0    0  0.32055813647E+02 -0.45716301059E+02  0.17933653195E+02  0.13815454892E+03  0.12509000000E+03 0.  0.
         25    1    4    4    0    0 -0.30962497435E+02 -0.47676934262E+02 -0.31511645200E+02  0.14096899727E+03  0.12509000000E+03 0.  0.
<mgrwt>
<rscale>  2 0.45441009E+03</rscale>
<asrwt>0</asrwt>
<pdfrwt beam="1">  1       21 0.25399520E-01 0.45441009E+03</pdfrwt>
<pdfrwt beam="2">  1       21 0.43953414E-01 0.45441009E+03</pdfrwt>
<totfact> 0.67632910E+04</totfact>
</mgrwt>
</event>
<event>
 7    0  0.4750554E-002  0.4567428E+03  0.7546771E-02  0.1025730E+00
         21   -1    0    0  502  501  0.00000000000E+00  0.00000000000E+00  0.87848805573E+02  0.87848805573E+02  0.00000000000E+00 0.  1.
         21   -1    0    0  501  502 -0.00000000000E+00 -0.00000000000E+00 -0.59367337801E+03  0.59367337801E+03  0.00000000000E+00 0.  1.
      99926    2    1    2    0    0  0.00000000000E+00  0.00000000000E+00 -0.50582457244E+03  0.68152218358E+03  0.45674280359E+03 0.  0.
      99925    2    3    3    0    0 -0.18699636027E+02  0.92324870294E+01 -0.14920817777E+03  0.30302822557E+03  0.26292225082E+03 0.  0.
         25    1    4    4    0    0  0.11020824690E+02 -0.13827452736E+02 -0.10757720444E+03  0.16593076882E+03  0.12509000000E+03 0.  0.
         25    1    3    3    0    0  0.18699636027E+02 -0.92324870294E+01 -0.35661639467E+03  0.37849395801E+03  0.12509000000E+03 0.  0.
         25    1    4    4    0    0 -0.29720460717E+02  0.23059939766E+02 -0.41630973326E+02  0.13709745675E+03  0.12509000000E+03 0.  0.
<mgrwt>
<rscale>  2 0.45674280E+03</rscale>
<asrwt>0</asrwt>
<pdfrwt beam="1">  1       21 0.12918942E-01 0.45674280E+03</pdfrwt>
<pdfrwt beam="2">  1       21 0.87304906E-01 0.45674280E+03</pdfrwt>
<totfact> 0.53184451E+04</totfact>
</mgrwt>
</event>
<event>
 7    0  0.4750554E-002  0.4574231E+03  0.7546771E-02  0.1025531E+00
         21   -1    0    0  502  501  0.00000000000E+00  0.00000000000E+00  0.22920412081E+03  0.22920412081E+03  0.00000000000E+00 0. -1.
         21   -1    0    0  501  502 -0.00000000000E+00 -0.00000000000E+00 -0.22822004109E+03  0.22822004109E+03  0.00000000000E+00 0. -1.
      99926    2    1    2    0    0  0.00000000000E+00  0.00000000000E+00  0.98407972185E+00  0.45742416190E+03  0.45742310335E+03 0.  0.
      99925    2    3    3    0    0 -0.95165094858E+02 -0.35113218357E+02 -0.54426079391E+02  0.28710937330E+03  0.26302140737E+03 0.  0.
         25    1    3    3    0    0  0.95165094858E+02  0.35113218357E+02  0.55410159113E+02  0.17031478860E+03  0.12509000000E+03 0.  0.
         25    1    4    4    0    0 -0.14631920055E+02 -0.57239143157E+01 -0.49319278507E+02  0.13537634805E+03  0.12509000000E+03 0.  0.
         25    1    4    4    0    0 -0.80533174803E+02 -0.29389304041E+02 -0.51068008839E+01  0.15173302525E+03  0.12509000000E+03 0.  0.
<mgrwt>
<rscale>  2 0.45742310E+03</rscale>
<asrwt>0</asrwt>
<pdfrwt beam="1">  1       21 0.33706488E-01 0.45742310E+03</pdfrwt>
<pdfrwt beam="2">  1       21 0.33561771E-01 0.45742310E+03</pdfrwt>
<totfact> 0.67062575E+04</totfact>
</mgrwt>
</event>
<event>
 7    0  0.4750554E-002  0.4485936E+03  0.7546771E-02  0.1028142E+00
         21   -1    0    0  502  501  0.00000000000E+00  0.00000000000E+00  0.11098670079E+03  0.11098670079E+03  0.00000000000E+00 0. -1.
         21   -1    0    0  501  502 -0.00000000000E+00 -0.00000000000E+00 -0.45328899972E+03  0.45328899972E+03  0.00000000000E+00 0. -1.
      99926    2    1    2    0    0 -0.35527136788E-14  0.00000000000E+00 -0.34230229893E+03  0.56427570051E+03  0.44859358258E+03 0.  0.
      99925    2    3    3    0    0  0.23302556258E+02 -0.73702428609E+02 -0.31043019266E+03  0.41381508649E+03  0.26248993159E+03 0.  0.
         25    1    4    4    0    0  0.32932841440E+02 -0.45162978660E+01 -0.13035820187E+03  0.18370013034E+03  0.12509000000E+03 0.  0.
         25    1    4    4    0    0 -0.96302851818E+01 -0.69186130743E+02 -0.18007199078E+03  0.23011495615E+03  0.12509000000E+03 0.  0.
         25    1    3    3    0    0 -0.23302556258E+02  0.73702428609E+02 -0.31872106275E+02  0.15046061401E+03  0.12509000000E+03 0.  0.
<mgrwt>
<rscale>  2 0.44859358E+03</rscale>
<asrwt>0</asrwt>
<pdfrwt beam="1">  1       21 0.16321574E-01 0.44859358E+03</pdfrwt>
<pdfrwt beam="2">  1       21 0.66660147E-01 0.44859358E+03</pdfrwt>
<totfact> 0.64120507E+04</totfact>
</mgrwt>
</event>
<event>
 7    0  0.4750554E-002  0.4556071E+03  0.7546771E-02  0.1026063E+00
         21   -1    0    0  502  501  0.00000000000E+00  0.00000000000E+00  0.39699847723E+03  0.39699847723E+03  0.00000000000E+00 0. -1.
         21   -1    0    0  501  502 -0.00000000000E+00 -0.00000000000E+00 -0.13071701916E+03  0.13071701916E+03  0.00000000000E+00 0. -1.
      99926    2    1    2    0    0  0.00000000000E+00  0.00000000000E+00  0.26628145807E+03  0.52771549639E+03  0.45560710072E+03 0.  0.
      99925    2    3    3    0    0 -0.10668717997E+03 -0.32340142142E+02  0.14134812068E+03  0.31870859207E+03  0.26299778759E+03 0.  0.
         25    1    3    3    0    0  0.10668717997E+03  0.32340142142E+02  0.12493333738E+03  0.20900690432E+03  0.12509000000E+03 0.  0.
         25    1    4    4    0    0 -0.46356314594E+02 -0.55967023062E+02  0.67230063965E+02  0.15952618962E+03  0.12509000000E+03 0.  0.
         25    1    4    4    0    0 -0.60330865379E+02  0.23626880919E+02  0.74118056720E+02  0.15918240245E+03  0.12509000000E+03 0.  0.
<mgrwt>
<rscale>  2 0.45560710E+03</rscale>
<asrwt>0</asrwt>
<pdfrwt beam="1">  1       21 0.58382128E-01 0.45560710E+03</pdfrwt>
<pdfrwt beam="2">  1       21 0.19223091E-01 0.45560710E+03</pdfrwt>
<totfact> 0.63057454E+04</totfact>
</mgrwt>
</event>
<event>
 7    0  0.4750554E-002  0.4647064E+03  0.7546771E-02  0.1023425E+00
         21   -1    0    0  502  501  0.00000000000E+00  0.00000000000E+00  0.75973310641E+02  0.75973310641E+02  0.00000000000E+00 0.  1.
         21   -1    0    0  501  502 -0.00000000000E+00 -0.00000000000E+00 -0.71061806075E+03  0.71061806075E+03  0.00000000000E+00 0.  1.
      99926    2    1    2    0    0  0.00000000000E+00  0.00000000000E+00 -0.63464475011E+03  0.78659137139E+03  0.46470638763E+03 0.  0.
      99925    2    3    3    0    0  0.85751627864E+02 -0.86876358253E+02 -0.39407626043E+03  0.48923375903E+03  0.26296906402E+03 0.  0.
         25    1    4    4    0    0  0.19794332466E+02 -0.76203850323E+02 -0.19000294058E+03  0.24072280310E+03  0.12509000000E+03 0.  0.
         25    1    4    4    0    0  0.65957295398E+02 -0.10672507930E+02 -0.20407331985E+03  0.24851095593E+03  0.12509000000E+03 0.  0.
         25    1    3    3    0    0 -0.85751627864E+02  0.86876358253E+02 -0.24056848967E+03  0.29735761236E+03  0.12509000000E+03 0.  0.
<mgrwt>
<rscale>  2 0.46470639E+03</rscale>
<asrwt>0</asrwt>
<pdfrwt beam="1">  1       21 0.11172546E-01 0.46470639E+03</pdfrwt>
<pdfrwt beam="2">  1       21 0.10450266E+00 0.46470639E+03</pdfrwt>
<totfact> 0.44900663E+04</totfact>
</mgrwt>
</event>
<event>
 7    0  0.4750554E-002  0.4547267E+03  0.7546771E-02  0.1026322E+00
         21   -1    0    0  502  501  0.00000000000E+00  0.00000000000E+00  0.68635265948E+03  0.68635265948E+03  0.00000000000E+00 0.  1.
         21   -1    0    0  501  502 -0.00000000000E+00 -0.00000000000E+00 -0.75317107795E+02  0.75317107795E+02  0.00000000000E+00 0.  1.
      99926    2    1    2    0    0  0.00000000000E+00  0.14210854715E-13  0.61103555169E+03  0.76166976728E+03  0.45472671898E+03 0.  0.
      99925    2    3    3    0    0 -0.30546024700E+02 -0.10726452439E+03  0.41359449738E+03  0.50269251761E+03  0.26306010945E+03 0.  0.
         25    1    3    3    0    0  0.30546024700E+02  0.10726452439E+03  0.19744105431E+03  0.25897724967E+03  0.12509000000E+03 0.  0.
         25    1    4    4    0    0  0.21183370121E+02 -0.64712928981E+02  0.18224216808E+03  0.23129248642E+03  0.12509000000E+03 0.  0.
         25    1    4    4    0    0 -0.51729394821E+02 -0.42551595408E+02  0.23135232929E+03  0.27140003119E+03  0.12509000000E+03 0.  0.
<mgrwt>
<rscale>  2 0.45472672E+03</rscale>
<asrwt>0</asrwt>
<pdfrwt beam="1">  1       21 0.10093421E+00 0.45472672E+03</pdfrwt>
<pdfrwt beam="2">  1       21 0.11076046E-01 0.45472672E+03</pdfrwt>
<totfact> 0.49781043E+04</totfact>
</mgrwt>
</event>
<event>
 7    0  0.4750554E-002  0.4422166E+03  0.7546771E-02  0.1030069E+00
         21   -1    0    0  502  501  0.00000000000E+00  0.00000000000E+00  0.67350388703E+02  0.67350388703E+02  0.00000000000E+00 0.  1.
         21   -1    0    0  501  502 -0.00000000000E+00 -0.00000000000E+00 -0.72588860450E+03  0.72588860450E+03  0.00000000000E+00 0.  1.
      99926    2    1    2    0    0  0.17763568394E-14  0.00000000000E+00 -0.65853821580E+03  0.79323899320E+03  0.44221659701E+03 0.  0.
      99925    2    3    3    0    0  0.99609799941E+01  0.89992061624E+02 -0.49462525257E+03  0.56804405567E+03  0.26423874890E+03 0.  0.
         25    1    4    4    0    0 -0.22428318121E+02  0.58982178857E+02 -0.31367027140E+03  0.34353816984E+03  0.12509000000E+03 0.  0.
         25    1    3    3    0    0 -0.99609799941E+01 -0.89992061624E+02 -0.16391296322E+03  0.22519493753E+03  0.12509000000E+03 0.  0.
         25    1    4    4    0    0  0.32389298115E+02  0.31009882766E+02 -0.18095498118E+03  0.22450588583E+03  0.12509000000E+03 0.  0.
<mgrwt>
<rscale>  2 0.44221660E+03</rscale>
<asrwt>0</asrwt>
<pdfrwt beam="1">  1       21 0.99044679E-02 0.44221660E+03</pdfrwt>
<pdfrwt beam="2">  1       21 0.10674833E+00 0.44221660E+03</pdfrwt>
<totfact> 0.53237204E+04</totfact>
</mgrwt>
</event>
<event>
 7    0  0.4750554E-002  0.4598654E+03  0.7546771E-02  0.1024820E+00
         21   -1    0    0  502  501  0.00000000000E+00  0.00000000000E+00  0.28589635700E+03  0.28589635700E+03  0.00000000000E+00 0. -1.
         21   -1    0    0  501  502 -0.00000000000E+00 -0.00000000000E+00 -0.18492382887E+03  0.18492382887E+03  0.00000000000E+00 0. -1.
      99926    2    1    2    0    0 -0.15543122345E-14  0.00000000000E+00  0.10097252814E+03  0.47082018587E+03  0.45986541073E+03 0.  0.
      99925    2    3    3    0    0 -0.12428823526E+01 -0.97131045652E+02  0.13128184400E+03  0.30956837188E+03  0.26298606336E+03 0.  0.
         25    1    3    3    0    0  0.12428823526E+01  0.97131045652E+02 -0.30309315865E+02  0.16125181399E+03  0.12509000000E+03 0.  0.
         25    1    4    4    0    0  0.29912996448E+02 -0.20152348437E+02  0.62827808272E+02  0.14455360977E+03  0.12509000000E+03 0.  0.
         25    1    4    4    0    0 -0.31155878800E+02 -0.76978697215E+02  0.68454035731E+02  0.16501476212E+03  0.12509000000E+03 0.  0.
<mgrwt>
<rscale>  2 0.45986541E+03</rscale>
<asrwt>0</asrwt>
<pdfrwt beam="1">  1       21 0.42043582E-01 0.45986541E+03</pdfrwt>
<pdfrwt beam="2">  1       21 0.27194681E-01 0.45986541E+03</pdfrwt>
<totfact> 0.64836436E+04</totfact>
</mgrwt>
</event>
<event>
 7    0  0.4750554E-002  0.4574275E+03  0.7546771E-02  0.1025530E+00
         21   -1    0    0  502  501  0.00000000000E+00  0.00000000000E+00  0.64482587926E+03  0.64482587926E+03  0.00000000000E+00 0.  1.
         21   -1    0    0  501  502 -0.00000000000E+00 -0.00000000000E+00 -0.81122634506E+02  0.81122634506E+02  0.00000000000E+00 0.  1.
      99926    2    1    2    0    0  0.00000000000E+00 -0.14210854715E-13  0.56370324475E+03  0.72594851377E+03  0.45742747676E+03 0.  0.
      99925    2    3    3    0    0 -0.75488666212E+02 -0.78185105198E+02  0.29793954640E+03  0.41275639882E+03  0.26417498378E+03 0.  0.
         25    1    4    4    0    0 -0.18721444811E+02 -0.21692583091E+02  0.88066935431E+02  0.15564174849E+03  0.12509000000E+03 0.  0.
         25    1    3    3    0    0  0.75488666212E+02  0.78185105198E+02  0.26576369835E+03  0.31319211494E+03  0.12509000000E+03 0.  0.
         25    1    4    4    0    0 -0.56767221401E+02 -0.56492522106E+02  0.20987261097E+03  0.25711465033E+03  0.12509000000E+03 0.  0.
<mgrwt>
<rscale>  2 0.45742748E+03</rscale>
<asrwt>0</asrwt>
<pdfrwt beam="1">  1       21 0.94827333E-01 0.45742748E+03</pdfrwt>
<pdfrwt beam="2">  1       21 0.11929800E-01 0.45742748E+03</pdfrwt>
<totfact> 0.50544840E+04</totfact>
</mgrwt>
</event>
<event>
 7    0  0.4750554E-002  0.4497843E+03  0.7546771E-02  0.1027786E+00
         21   -1    0    0  502  501  0.00000000000E+00  0.00000000000E+00  0.69040313850E+02  0.69040313850E+02  0.00000000000E+00 0.  1.
         21   -1    0    0  501  502 -0.00000000000E+00 -0.00000000000E+00 -0.73256451647E+03  0.73256451647E+03  0.00000000000E+00 0.  1.
      99926    2    1    2    0    0  0.00000000000E+00 -0.13322676296E-14 -0.66352420262E+03  0.80160483032E+03  0.44978432223E+03 0.  0.
      99925    2    3    3    0    0  0.59003409537E+02  0.15136078883E+01 -0.25792843227E+03  0.37307346581E+03  0.26300768310E+03 0.  0.
         25    1    4    4    0    0  0.36689391435E+02  0.37515613906E+02 -0.10895698404E+03  0.17399041698E+03  0.12509000000E+03 0.  0.
         25    1    3    3    0    0 -0.59003409537E+02 -0.15136078883E+01 -0.40559577035E+03  0.42853136451E+03  0.12509000000E+03 0.  0.
         25    1    4    4    0    0  0.22314018103E+02 -0.36002006018E+02 -0.14897144823E+03  0.19908304883E+03  0.12509000000E+03 0.  0.
<mgrwt>
<rscale>  2 0.44978432E+03</rscale>
<asrwt>0</asrwt>
<pdfrwt beam="1">  1       21 0.10152987E-01 0.44978432E+03</pdfrwt>
<pdfrwt beam="2">  1       21 0.10773007E+00 0.44978432E+03</pdfrwt>
<totfact> 0.49690158E+04</totfact>
</mgrwt>
</event>
<event>
 7    0  0.4750554E-002  0.4581855E+03  0.7546771E-02  0.1025309E+00
         21   -1    0    0  502  501  0.00000000000E+00  0.00000000000E+00  0.83624697833E+02  0.83624697833E+02  0.00000000000E+00 0.  1.
         21   -1    0    0  501  502 -0.00000000000E+00 -0.00000000000E+00 -0.62760740686E+03  0.62760740686E+03  0.00000000000E+00 0.  1.
      99926    2    1    2    0    0  0.00000000000E+00  0.00000000000E+00 -0.54398270902E+03  0.71123210469E+03  0.45818546357E+03 0.  0.
      99925    2    3    3    0    0 -0.11210181463E+03  0.19638351799E+02 -0.37704408017E+03  0.47360109744E+03  0.26302714574E+03 0.  0.
         25    1    3    3    0    0  0.11210181463E+03 -0.19638351799E+02 -0.16693862885E+03  0.23763100725E+03  0.12509000000E+03 0.  0.
         25    1    4    4    0    0 -0.25899756167E+02  0.38556778391E+02 -0.17039967263E+03  0.21642776869E+03  0.12509000000E+03 0.  0.
         25    1    4    4    0    0 -0.86202058465E+02 -0.18918426592E+02 -0.20664440754E+03  0.25717332874E+03  0.12509000000E+03 0.  0.
<mgrwt>
<rscale>  2 0.45818546E+03</rscale>
<asrwt>0</asrwt>
<pdfrwt beam="1">  1       21 0.12297750E-01 0.45818546E+03</pdfrwt>
<pdfrwt beam="2">  1       21 0.92295206E-01 0.45818546E+03</pdfrwt>
<totfact> 0.51006996E+04</totfact>
</mgrwt>
</event>
<event>
 7    0  0.4750554E-002  0.4545330E+03  0.7546771E-02  0.1026379E+00
         21   -1    0    0  502  501  0.00000000000E+00  0.00000000000E+00  0.84067658494E+02  0.84067658494E+02  0.00000000000E+00 0. -1.
         21   -1    0    0  501  502 -0.00000000000E+00 -0.00000000000E+00 -0.61438687254E+03  0.61438687254E+03  0.00000000000E+00 0. -1.
      99926    2    1    2    0    0  0.14210854715E-13  0.00000000000E+00 -0.53031921405E+03  0.69845453104E+03  0.45453301655E+03 0.  0.
      99925    2    3    3    0    0  0.88243411907E+02  0.33001756452E+02 -0.23904179336E+03  0.36774913408E+03  0.26310156018E+03 0.  0.
         25    1    4    4    0    0  0.54307220423E+01  0.60537352442E+01 -0.87933454146E+02  0.15312067434E+03  0.12509000000E+03 0.  0.
         25    1    3    3    0    0 -0.88243411907E+02 -0.33001756452E+02 -0.29127742069E+03  0.33070539695E+03  0.12509000000E+03 0.  0.
         25    1    4    4    0    0  0.82812689865E+02  0.26948021208E+02 -0.15110833922E+03  0.21462845974E+03  0.12509000000E+03 0.  0.
<mgrwt>
<rscale>  2 0.45453302E+03</rscale>
<asrwt>0</asrwt>
<pdfrwt beam="1">  1       21 0.12362891E-01 0.45453302E+03</pdfrwt>
<pdfrwt beam="2">  1       21 0.90351011E-01 0.45453302E+03</pdfrwt>
<totfact> 0.53182138E+04</totfact>
</mgrwt>
</event>
<event>
 7    0  0.4750554E-002  0.4667376E+03  0.7546771E-02  0.1022845E+00
         21   -1    0    0  502  501  0.00000000000E+00  0.00000000000E+00  0.27397573179E+03  0.27397573179E+03  0.00000000000E+00 0.  1.
         21   -1    0    0  501  502 -0.00000000000E+00 -0.00000000000E+00 -0.19878038350E+03  0.19878038350E+03  0.00000000000E+00 0.  1.
      99926    2    1    2    0    0  0.00000000000E+00  0.35527136788E-14  0.75195348294E+02  0.47275611529E+03  0.46673761809E+03 0.  0.
      99925    2    3    3    0    0 -0.10902410035E+03  0.25232471565E+02 -0.67297491600E+01  0.28598844739E+03  0.26309916465E+03 0.  0.
         25    1    4    4    0    0 -0.41103072586E+02  0.21810192320E+02 -0.40850086127E+02  0.13957573106E+03  0.12509000000E+03 0.  0.
         25    1    4    4    0    0 -0.67921027765E+02  0.34222792456E+01  0.34120336967E+02  0.14641271633E+03  0.12509000000E+03 0.  0.
         25    1    3    3    0    0  0.10902410035E+03 -0.25232471565E+02  0.81925097454E+02  0.18676766790E+03  0.12509000000E+03 0.  0.
<mgrwt>
<rscale>  2 0.46673762E+03</rscale>
<asrwt>0</asrwt>
<pdfrwt beam="1">  1       21 0.40290549E-01 0.46673762E+03</pdfrwt>
<pdfrwt beam="2">  1       21 0.29232409E-01 0.46673762E+03</pdfrwt>
<totfact> 0.61314352E+04</totfact>
</mgrwt>
</event>
<event>
 7    0  0.4750554E-002  0.4510610E+03  0.7546771E-02  0.1027406E+00
         21   -1    0    0  502  501  0.00000000000E+00  0.00000000000E+00  0.19976165068E+03  0.19976165068E+03  0.00000000000E+00 0. -1.
         21   -1    0    0  501  502 -0.00000000000E+00 -0.00000000000E+00 -0.25462348936E+03  0.25462348936E+03  0.00000000000E+00 0. -1.
      99926    2    1    2    0    0 -0.71054273576E-14  0.00000000000E+00 -0.54861838687E+02  0.45438514004E+03  0.45106100934E+03 0.  0.
      99925    2    3    3    0    0 -0.40860386771E+02 -0.69747699965E+02 -0.10788950872E+03  0.29629100749E+03  0.26384446587E+03 0.  0.
         25    1    3    3    0    0  0.40860386771E+02  0.69747699965E+02  0.53027670028E+02  0.15809413255E+03  0.12509000000E+03 0.  0.
         25    1    4    4    0    0  0.21316089375E+02 -0.40273938647E+02 -0.54953367146E+02  0.14402689492E+03  0.12509000000E+03 0.  0.
         25    1    4    4    0    0 -0.62176476147E+02 -0.29473761318E+02 -0.52936141569E+02  0.15226411257E+03  0.12509000000E+03 0.  0.
<mgrwt>
<rscale>  2 0.45106101E+03</rscale>
<asrwt>0</asrwt>
<pdfrwt beam="1">  1       21 0.29376713E-01 0.45106101E+03</pdfrwt>
<pdfrwt beam="2">  1       21 0.37444631E-01 0.45106101E+03</pdfrwt>
<totfact> 0.70789385E+04</totfact>
</mgrwt>
</event>
<event>
 7    0  0.4750554E-002  0.4665651E+03  0.7546771E-02  0.1022894E+00
         21   -1    0    0  502  501  0.00000000000E+00  0.00000000000E+00  0.15231426153E+04  0.15231426153E+04  0.00000000000E+00 0. -1.
         21   -1    0    0  501  502 -0.00000000000E+00 -0.00000000000E+00 -0.35729250542E+02  0.35729250542E+02  0.00000000000E+00 0. -1.
      99926    2    1    2    0    0  0.14210854715E-13 -0.71054273576E-14  0.14874133647E+04  0.15588718658E+04  0.46656508276E+03 0.  0.
      99925    2    3    3    0    0  0.10865964855E+03  0.54525145252E+02  0.10060576900E+04  0.10468848499E+04  0.26274684171E+03 0.  0.
         25    1    3    3    0    0 -0.10865964855E+03 -0.54525145252E+02  0.48135567480E+03  0.51198701590E+03  0.12509000000E+03 0.  0.
         25    1    4    4    0    0  0.61813802054E+02  0.14187971621E+01  0.38788960257E+03  0.41222422417E+03  0.12509000000E+03 0.  0.
         25    1    4    4    0    0  0.46845846494E+02  0.53106348090E+02  0.61816808739E+03  0.63466062577E+03  0.12509000000E+03 0.  0.
<mgrwt>
<rscale>  2 0.46656508E+03</rscale>
<asrwt>0</asrwt>
<pdfrwt beam="1">  1       21 0.22399152E+00 0.46656508E+03</pdfrwt>
<pdfrwt beam="2">  1       21 0.52543026E-02 0.46656508E+03</pdfrwt>
<totfact> 0.20471207E+04</totfact>
</mgrwt>
</event>
<event>
 7    0  0.4750554E-002  0.4555503E+03  0.7546771E-02  0.1026080E+00
         21   -1    0    0  502  501  0.00000000000E+00  0.00000000000E+00  0.51566535630E+02  0.51566535630E+02  0.00000000000E+00 0.  1.
         21   -1    0    0  501  502 -0.00000000000E+00 -0.00000000000E+00 -0.10061083947E+04  0.10061083947E+04  0.00000000000E+00 0.  1.
      99926    2    1    2    0    0  0.17763568394E-14  0.00000000000E+00 -0.95454185903E+03  0.10576749303E+04  0.45555032381E+03 0.  0.
      99925    2    3    3    0    0  0.10216631726E+02 -0.67960074383E+02 -0.81110402563E+03  0.85532653908E+03  0.26262291749E+03 0.  0.
         25    1    4    4    0    0 -0.34782360712E+02 -0.35373418442E+02 -0.40784238560E+03  0.42946945286E+03  0.12509000000E+03 0.  0.
         25    1    3    3    0    0 -0.10216631726E+02  0.67960074383E+02 -0.14343783340E+03  0.20234839121E+03  0.12509000000E+03 0.  0.
         25    1    4    4    0    0  0.44998992438E+02 -0.32586655941E+02 -0.40326164002E+03  0.42585708622E+03  0.12509000000E+03 0.  0.
<mgrwt>
<rscale>  2 0.45555032E+03</rscale>
<asrwt>0</asrwt>
<pdfrwt beam="1">  1       21 0.75833145E-02 0.45555032E+03</pdfrwt>
<pdfrwt beam="2">  1       21 0.14795711E+00 0.45555032E+03</pdfrwt>
<totfact> 0.36838548E+04</totfact>
</mgrwt>
</event>
<event>
 7    0  0.4750554E-002  0.4546896E+03  0.7546771E-02  0.1026333E+00
         21   -1    0    0  502  501  0.00000000000E+00  0.00000000000E+00  0.31069954948E+02  0.31069954948E+02  0.00000000000E+00 0.  1.
         21   -1    0    0  501  502 -0.00000000000E+00 -0.00000000000E+00 -0.16635251389E+04  0.16635251389E+04  0.00000000000E+00 0.  1.
      99926    2    1    2    0    0  0.35527136788E-14  0.00000000000E+00 -0.16324551839E+04  0.16945950938E+04  0.45468956935E+03 0.  0.
      99925    2    3    3    0    0  0.25743699561E+02  0.35499805217E+02 -0.14152077974E+04  0.14401016572E+04  0.26297661298E+03 0.  0.
         25    1    4    4    0    0 -0.26373884522E+02  0.91000085469E+01 -0.64278598704E+03  0.65543857468E+03  0.12509000000E+03 0.  0.
         25    1    4    4    0    0  0.52117584083E+02  0.26399796670E+02 -0.77242181035E+03  0.78466308250E+03  0.12509000000E+03 0.  0.
         25    1    3    3    0    0 -0.25743699561E+02 -0.35499805217E+02 -0.21724738652E+03  0.25449343663E+03  0.12509000000E+03 0.  0.
<mgrwt>
<rscale>  2 0.45468957E+03</rscale>
<asrwt>0</asrwt>
<pdfrwt beam="1">  1       21 0.45691105E-02 0.45468957E+03</pdfrwt>
<pdfrwt beam="2">  1       21 0.24463608E+00 0.45468957E+03</pdfrwt>
<totfact> 0.19421046E+04</totfact>
</mgrwt>
</event>
<event>
 7    0  0.4750554E-002  0.4544230E+03  0.7546771E-02  0.1026411E+00
         21   -1    0    0  502  501  0.00000000000E+00  0.00000000000E+00  0.16136396152E+03  0.16136396152E+03  0.00000000000E+00 0.  1.
         21   -1    0    0  501  502 -0.00000000000E+00 -0.00000000000E+00 -0.31992934490E+03  0.31992934490E+03  0.00000000000E+00 0.  1.
      99926    2    1    2    0    0  0.00000000000E+00  0.00000000000E+00 -0.15856538338E+03  0.48129330642E+03  0.45442300338E+03 0.  0.
      99925    2    3    3    0    0 -0.10122132956E+03  0.49311402047E+02 -0.94386846880E+02  0.30117177918E+03  0.26290338868E+03 0.  0.
         25    1    4    4    0    0 -0.71437430480E+02  0.61645385326E+02 -0.47131472368E+02  0.16362256505E+03  0.12509000000E+03 0.  0.
         25    1    4    4    0    0 -0.29783899079E+02 -0.12333983279E+02 -0.47255374511E+02  0.13754921413E+03  0.12509000000E+03 0.  0.
         25    1    3    3    0    0  0.10122132956E+03 -0.49311402047E+02 -0.64178536496E+02  0.18012152724E+03  0.12509000000E+03 0.  0.
<mgrwt>
<rscale>  2 0.45442300E+03</rscale>
<asrwt>0</asrwt>
<pdfrwt beam="1">  1       21 0.23729995E-01 0.45442300E+03</pdfrwt>
<pdfrwt beam="2">  1       21 0.47048432E-01 0.45442300E+03</pdfrwt>
<totfact> 0.66912016E+04</totfact>
</mgrwt>
</event>
<event>
 7    0  0.4750554E-002  0.4584954E+03  0.7546771E-02  0.1025218E+00
         21   -1    0    0  502  501  0.00000000000E+00  0.00000000000E+00  0.19967215483E+02  0.19967215483E+02  0.00000000000E+00 0. -1.
         21   -1    0    0  501  502 -0.00000000000E+00 -0.00000000000E+00 -0.26320403594E+04  0.26320403594E+04  0.00000000000E+00 0. -1.
      99926    2    1    2    0    0  0.71054273576E-14  0.14210854715E-13 -0.26120731440E+04  0.26520075749E+04  0.45849543953E+03 0.  0.
      99925    2    3    3    0    0 -0.48653428250E+02 -0.97585733477E+02 -0.18724608518E+04  0.18940075867E+04  0.26318238009E+03 0.  0.
         25    1    3    3    0    0  0.48653428250E+02  0.97585733477E+02 -0.73961229212E+03  0.75799998827E+03  0.12509000000E+03 0.  0.
         25    1    4    4    0    0 -0.58580565543E+02 -0.72855835301E+02 -0.95756680161E+03  0.97021716282E+03  0.12509000000E+03 0.  0.
         25    1    4    4    0    0  0.99271372933E+01 -0.24729898176E+02 -0.91489405024E+03  0.92379042384E+03  0.12509000000E+03 0.  0.
<mgrwt>
<rscale>  2 0.45849544E+03</rscale>
<asrwt>0</asrwt>
<pdfrwt beam="1">  1       21 0.29363559E-02 0.45849544E+03</pdfrwt>
<pdfrwt beam="2">  1       21 0.38706467E+00 0.45849544E+03</pdfrwt>
<totfact> 0.55460056E+03</totfact>
</mgrwt>
</event>
<event>
 7    0  0.4750554E-002  0.4591906E+03  0.7546771E-02  0.1025016E+00
         21   -1    0    0  502  501  0.00000000000E+00  0.00000000000E+00  0.43576243815E+03  0.43576243815E+03  0.00000000000E+00 0.  1.
         21   -1    0    0  501  502 -0.00000000000E+00 -0.00000000000E+00 -0.12096960223E+03  0.12096960223E+03  0.00000000000E+00 0.  1.
      99926    2    1    2    0    0  0.00000000000E+00 -0.14210854715E-13  0.31479283592E+03  0.55673204038E+03  0.45919063061E+03 0.  0.
      99925    2    3    3    0    0 -0.21387390956E+02 -0.91157057516E+02  0.11193666941E+03  0.30067508965E+03  0.26288526385E+03 0.  0.
         25    1    4    4    0    0  0.11783953873E+02 -0.97896292052E+01  0.45366631425E+02  0.13394154604E+03  0.12509000000E+03 0.  0.
         25    1    4    4    0    0 -0.33171344829E+02 -0.81367428310E+02  0.66570037990E+02  0.16673354361E+03  0.12509000000E+03 0.  0.
         25    1    3    3    0    0  0.21387390956E+02  0.91157057516E+02  0.20285616651E+03  0.25605695073E+03  0.12509000000E+03 0.  0.
<mgrwt>
<rscale>  2 0.45919063E+03</rscale>
<asrwt>0</asrwt>
<pdfrwt beam="1">  1       21 0.64082711E-01 0.45919063E+03</pdfrwt>
<pdfrwt beam="2">  1       21 0.17789647E-01 0.45919063E+03</pdfrwt>
<totfact> 0.59429090E+04</totfact>
</mgrwt>
</event>
<event>
 7    0  0.4750554E-002  0.4514427E+03  0.7546771E-02  0.1027293E+00
         21   -1    0    0  502  501  0.00000000000E+00  0.00000000000E+00  0.28855118819E+03  0.28855118819E+03  0.00000000000E+00 0.  1.
         21   -1    0    0  501  502 -0.00000000000E+00 -0.00000000000E+00 -0.17657220127E+03  0.17657220127E+03  0.00000000000E+00 0.  1.
      99926    2    1    2    0    0  0.00000000000E+00  0.00000000000E+00  0.11197898692E+03  0.46512338946E+03  0.45144265850E+03 0.  0.
      99925    2    3    3    0    0 -0.25942949558E+02  0.16501020385E+02 -0.37922539001E+02  0.26747902228E+03  0.26298590854E+03 0.  0.
         25    1    3    3    0    0  0.25942949558E+02 -0.16501020385E+02  0.14990152592E+03  0.19764436718E+03  0.12509000000E+03 0.  0.
         25    1    4    4    0    0 -0.43384559132E+02  0.28681852837E+02 -0.37601459849E+02  0.14059248392E+03  0.12509000000E+03 0.  0.
         25    1    4    4    0    0  0.17441609574E+02 -0.12180832453E+02 -0.32107915247E+00  0.12688653835E+03  0.12509000000E+03 0.  0.
<mgrwt>
<rscale>  2 0.45144266E+03</rscale>
<asrwt>0</asrwt>
<pdfrwt beam="1">  1       21 0.42433998E-01 0.45144266E+03</pdfrwt>
<pdfrwt beam="2">  1       21 0.25966500E-01 0.45144266E+03</pdfrwt>
<totfact> 0.69747716E+04</totfact>
</mgrwt>
</event>
<event>
 7    0  0.4750554E-002  0.4579242E+03  0.7546771E-02  0.1025385E+00
         21   -1    0    0  502  501  0.00000000000E+00  0.00000000000E+00  0.38413165447E+03  0.38413165447E+03  0.00000000000E+00 0.  1.
         21   -1    0    0  501  502 -0.00000000000E+00 -0.00000000000E+00 -0.13647314335E+03  0.13647314335E+03  0.00000000000E+00 0.  1.
      99926    2    1    2    0    0  0.00000000000E+00 -0.35527136788E-14  0.24765851112E+03  0.52060479781E+03  0.45792424851E+03 0.  0.
      99925    2    3    3    0    0  0.10957405350E+03 -0.30065151902E+02  0.12962955291E+03  0.31447685300E+03  0.26302373187E+03 0.  0.
         25    1    4    4    0    0  0.84066708180E+02  0.32169618517E+01  0.43422074757E+02  0.15687748387E+03  0.12509000000E+03 0.  0.
         25    1    4    4    0    0  0.25507345316E+02 -0.33282113754E+02  0.86207478152E+02  0.15759936913E+03  0.12509000000E+03 0.  0.
         25    1    3    3    0    0 -0.10957405350E+03  0.30065151902E+02  0.11802895821E+03  0.20612794482E+03  0.12509000000E+03 0.  0.
<mgrwt>
<rscale>  2 0.45792425E+03</rscale>
<asrwt>0</asrwt>
<pdfrwt beam="1">  1       21 0.56489949E-01 0.45792425E+03</pdfrwt>
<pdfrwt beam="2">  1       21 0.20069580E-01 0.45792425E+03</pdfrwt>
<totfact> 0.62386035E+04</totfact>
</mgrwt>
</event>
<event>
 7    0  0.4750554E-002  0.4524042E+03  0.7546771E-02  0.1027007E+00
         21   -1    0    0  502  501  0.00000000000E+00  0.00000000000E+00  0.85217996643E+03  0.85217996643E+03  0.00000000000E+00 0.  1.
         21   -1    0    0  501  502 -0.00000000000E+00 -0.00000000000E+00 -0.60042946990E+02  0.60042946990E+02  0.00000000000E+00 0.  1.
      99926    2    1    2    0    0 -0.17763568394E-14 -0.71054273576E-14  0.79213701944E+03  0.91222291342E+03  0.45240422876E+03 0.  0.
      99925    2    3    3    0    0  0.12445949980E+02  0.56664209055E+02  0.30959619281E+03  0.41036746438E+03  0.26303216337E+03 0.  0.
         25    1    4    4    0    0  0.24327695482E+02  0.17420613043E+02  0.20599121140E+03  0.24284810438E+03  0.12509000000E+03 0.  0.
         25    1    4    4    0    0 -0.11881745502E+02  0.39243596012E+02  0.10360498140E+03  0.16751936000E+03  0.12509000000E+03 0.  0.
         25    1    3    3    0    0 -0.12445949980E+02 -0.56664209055E+02  0.48254082664E+03  0.50185544904E+03  0.12509000000E+03 0.  0.
<mgrwt>
<rscale>  2 0.45240423E+03</rscale>
<asrwt>0</asrwt>
<pdfrwt beam="1">  1       21 0.12532058E+00 0.45240423E+03</pdfrwt>
<pdfrwt beam="2">  1       21 0.88298456E-02 0.45240423E+03</pdfrwt>
<totfact> 0.43588122E+04</totfact>
</mgrwt>
</event>
<event>
 7    0  0.4750554E-002  0.4446808E+03  0.7546771E-02  0.1029320E+00
         21   -1    0    0  502  501  0.00000000000E+00  0.00000000000E+00  0.12601984938E+04  0.12601984938E+04  0.00000000000E+00 0.  1.
         21   -1    0    0  501  502 -0.00000000000E+00 -0.00000000000E+00 -0.39228146172E+02  0.39228146172E+02  0.00000000000E+00 0.  1.
      99926    2    1    2    0    0  0.00000000000E+00  0.00000000000E+00  0.12209703477E+04  0.12994266400E+04  0.44468078763E+03 0.  0.
      99925    2    3    3    0    0 -0.69382130748E+02  0.11591077232E+02  0.55845703530E+03  0.62154786744E+03  0.26362711944E+03 0.  0.
         25    1    4    4    0    0 -0.71358486073E+02  0.93951400688E+01  0.34746464592E+03  0.37624392415E+03  0.12509000000E+03 0.  0.
         25    1    3    3    0    0  0.69382130748E+02 -0.11591077232E+02  0.66251331237E+03  0.67787877257E+03  0.12509000000E+03 0.  0.
         25    1    4    4    0    0  0.19763553243E+01  0.21959371634E+01  0.21099238938E+03  0.24530394329E+03  0.12509000000E+03 0.  0.
<mgrwt>
<rscale>  2 0.44468079E+03</rscale>
<asrwt>0</asrwt>
<pdfrwt beam="1">  1       21 0.18532328E+00 0.44468079E+03</pdfrwt>
<pdfrwt beam="2">  1       21 0.57688458E-02 0.44468079E+03</pdfrwt>
<totfact> 0.31591630E+04</totfact>
</mgrwt>
</event>
<event>
 7    0  0.4750554E-002  0.4620189E+03  0.7546771E-02  0.1024197E+00
         21   -1    0    0  502  501  0.00000000000E+00  0.00000000000E+00  0.45306431210E+03  0.45306431210E+03  0.00000000000E+00 0. -1.
         21   -1    0    0  501  502 -0.00000000000E+00 -0.00000000000E+00 -0.11778760610E+03  0.11778760610E+03  0.00000000000E+00 0. -1.
      99926    2    1    2    0    0 -0.44408920985E-15  0.00000000000E+00  0.33527670601E+03  0.57085191820E+03  0.46201887724E+03 0.  0.
      99925    2    3    3    0    0  0.33781496844E+01  0.20509346259E+02  0.35522077725E+03  0.44248790745E+03  0.26302414807E+03 0.  0.
         25    1    3    3    0    0 -0.33781496844E+01 -0.20509346259E+02 -0.19944071241E+02  0.12836401075E+03  0.12509000000E+03 0.  0.
         25    1    4    4    0    0  0.35495673322E+02 -0.38513942923E+01  0.20607732678E+03  0.24370094127E+03  0.12509000000E+03 0.  0.
         25    1    4    4    0    0 -0.32117523637E+02  0.24360740552E+02  0.14914345047E+03  0.19878696618E+03  0.12509000000E+03 0.  0.
<mgrwt>
<rscale>  2 0.46201888E+03</rscale>
<asrwt>0</asrwt>
<pdfrwt beam="1">  1       21 0.66627104E-01 0.46201888E+03</pdfrwt>
<pdfrwt beam="2">  1       21 0.17321707E-01 0.46201888E+03</pdfrwt>
<totfact> 0.57264079E+04</totfact>
</mgrwt>
</event>
<event>
 7    0  0.4750554E-002  0.4485550E+03  0.7546771E-02  0.1028154E+00
         21   -1    0    0  502  501  0.00000000000E+00  0.00000000000E+00  0.39809971536E+03  0.39809971536E+03  0.00000000000E+00 0. -1.
         21   -1    0    0  501  502 -0.00000000000E+00 -0.00000000000E+00 -0.12635127205E+03  0.12635127205E+03  0.00000000000E+00 0. -1.
      99926    2    1    2    0    0  0.00000000000E+00  0.17763568394E-14  0.27174844331E+03  0.52445098741E+03  0.44855503760E+03 0.  0.
      99925    2    3    3    0    0  0.10661016624E+03  0.57178330091E+01  0.15873784226E+03  0.32490819699E+03  0.26261990166E+03 0.  0.
         25    1    3    3    0    0 -0.10661016624E+03 -0.57178330091E+01  0.11301060105E+03  0.19954279042E+03  0.12509000000E+03 0.  0.
         25    1    4    4    0    0  0.80795938727E+02  0.27099750914E+02  0.10743696266E+03  0.18561408691E+03  0.12509000000E+03 0.  0.
         25    1    4    4    0    0  0.25814227511E+02 -0.21381917905E+02  0.51300879598E+02  0.13929411008E+03  0.12509000000E+03 0.  0.
<mgrwt>
<rscale>  2 0.44855504E+03</rscale>
<asrwt>0</asrwt>
<pdfrwt beam="1">  1       21 0.58544076E-01 0.44855504E+03</pdfrwt>
<pdfrwt beam="2">  1       21 0.18581069E-01 0.44855504E+03</pdfrwt>
<totfact> 0.66937676E+04</totfact>
</mgrwt>
</event>
<event>
 7    0  0.4750554E-002  0.4760556E+03  0.7546771E-02  0.1020225E+00
         21   -1    0    0  502  501  0.00000000000E+00  0.00000000000E+00  0.20915250948E+02  0.20915250948E+02  0.00000000000E+00 0. -1.
         21   -1    0    0  501  502 -0.00000000000E+00 -0.00000000000E+00 -0.27088955925E+04  0.27088955925E+04  0.00000000000E+00 0. -1.
      99926    2    1    2    0    0  0.00000000000E+00  0.00000000000E+00 -0.26879803415E+04  0.27298108434E+04  0.47605558964E+03 0.  0.
      99925    2    3    3    0    0  0.27738140429E+02 -0.91524529593E+02 -0.21827501266E+04  0.22006121830E+04  0.26296334559E+03 0.  0.
         25    1    4    4    0    0  0.24571453973E+02 -0.48221543889E+01 -0.10042337667E+04  0.10123042901E+04  0.12509000000E+03 0.  0.
         25    1    4    4    0    0  0.31666864561E+01 -0.86702375204E+02 -0.11785163599E+04  0.11883078929E+04  0.12509000000E+03 0.  0.
         25    1    3    3    0    0 -0.27738140429E+02  0.91524529593E+02 -0.50523021496E+03  0.52919866039E+03  0.12509000000E+03 0.  0.
<mgrwt>
<rscale>  2 0.47605559E+03</rscale>
<asrwt>0</asrwt>
<pdfrwt beam="1">  1       21 0.30757716E-02 0.47605559E+03</pdfrwt>
<pdfrwt beam="2">  1       21 0.39836708E+00 0.47605559E+03</pdfrwt>
<totfact> 0.43054735E+03</totfact>
</mgrwt>
</event>
<event>
 7    0  0.4750554E-002  0.4559963E+03  0.7546771E-02  0.1025949E+00
         21   -1    0    0  502  501  0.00000000000E+00  0.00000000000E+00  0.15409978152E+03  0.15409978152E+03  0.00000000000E+00 0. -1.
         21   -1    0    0  501  502 -0.00000000000E+00 -0.00000000000E+00 -0.33733445301E+03  0.33733445301E+03  0.00000000000E+00 0. -1.
      99926    2    1    2    0    0  0.00000000000E+00  0.00000000000E+00 -0.18323467150E+03  0.49143423453E+03  0.45599633993E+03 0.  0.
      99925    2    3    3    0    0  0.37717653663E+02 -0.68714545723E+02 -0.25807016212E+02  0.27562115583E+03  0.26297663254E+03 0.  0.
         25    1    4    4    0    0  0.15444699298E+02 -0.22596067290E+01  0.13936153193E+02  0.12682810818E+03  0.12509000000E+03 0.  0.
         25    1    3    3    0    0 -0.37717653663E+02  0.68714545723E+02 -0.15742765528E+03  0.21581307870E+03  0.12509000000E+03 0.  0.
         25    1    4    4    0    0  0.22272954365E+02 -0.66454938994E+02 -0.39743169405E+02  0.14879304764E+03  0.12509000000E+03 0.  0.
<mgrwt>
<rscale>  2 0.45599634E+03</rscale>
<asrwt>0</asrwt>
<pdfrwt beam="1">  1       21 0.22661732E-01 0.45599634E+03</pdfrwt>
<pdfrwt beam="2">  1       21 0.49608008E-01 0.45599634E+03</pdfrwt>
<totfact> 0.65358227E+04</totfact>
</mgrwt>
</event>
<event>
 7    0  0.4750554E-002  0.4535479E+03  0.7546771E-02  0.1026669E+00
         21   -1    0    0  502  501  0.00000000000E+00  0.00000000000E+00  0.10211577219E+03  0.10211577219E+03  0.00000000000E+00 0.  1.
         21   -1    0    0  501  502 -0.00000000000E+00 -0.00000000000E+00 -0.50360903354E+03  0.50360903354E+03  0.00000000000E+00 0.  1.
      99926    2    1    2    0    0 -0.22204460493E-15  0.14210854715E-13 -0.40149326135E+03  0.60572480574E+03  0.45354790417E+03 0.  0.
      99925    2    3    3    0    0 -0.72186483323E+00  0.10967523787E+03 -0.28212838774E+03  0.40096968360E+03  0.26296593145E+03 0.  0.
         25    1    4    4    0    0  0.76549894553E+01  0.40610770869E+02 -0.82893369416E+02  0.15564913224E+03  0.12509000000E+03 0.  0.
         25    1    3    3    0    0  0.72186483323E+00 -0.10967523787E+03 -0.11936487361E+03  0.20475512214E+03  0.12509000000E+03 0.  0.
         25    1    4    4    0    0 -0.83768542885E+01  0.69064467006E+02 -0.19923501832E+03  0.24532055136E+03  0.12509000000E+03 0.  0.
<mgrwt>
<rscale>  2 0.45354790E+03</rscale>
<asrwt>0</asrwt>
<pdfrwt beam="1">  1       21 0.15017026E-01 0.45354790E+03</pdfrwt>
<pdfrwt beam="2">  1       21 0.74060150E-01 0.45354790E+03</pdfrwt>
<totfact> 0.59001187E+04</totfact>
</mgrwt>
</event>
<event>
 7    0  0.4750554E-002  0.4397720E+03  0.7546771E-02  0.1030817E+00
         21   -1    0    0  502  501  0.00000000000E+00  0.00000000000E+00  0.55721619358E+02  0.55721619358E+02  0.00000000000E+00 0.  1.
         21   -1    0    0  501  502 -0.00000000000E+00 -0.00000000000E+00 -0.86770363058E+03  0.86770363058E+03  0.00000000000E+00 0.  1.
      99926    2    1    2    0    0  0.00000000000E+00  0.00000000000E+00 -0.81198201122E+03  0.92342524993E+03  0.43977199283E+03 0.  0.
      99925    2    3    3    0    0 -0.26341940739E+01  0.79644936467E+02 -0.39769216066E+03  0.48338679337E+03  0.26297049733E+03 0.  0.
         25    1    3    3    0    0  0.26341940739E+01 -0.79644936467E+02 -0.41428985056E+03  0.44003845657E+03  0.12509000000E+03 0.  0.
         25    1    4    4    0    0  0.16057244122E+02  0.56823605412E+02 -0.14812219962E+03  0.20266832841E+03  0.12509000000E+03 0.  0.
         25    1    4    4    0    0 -0.18691438196E+02  0.22821331055E+02 -0.24956996104E+03  0.28071846496E+03  0.12509000000E+03 0.  0.
<mgrwt>
<rscale>  2 0.43977199E+03</rscale>
<asrwt>0</asrwt>
<pdfrwt beam="1">  1       21 0.81943561E-02 0.43977199E+03</pdfrwt>
<pdfrwt beam="2">  1       21 0.12760347E+00 0.43977199E+03</pdfrwt>
<totfact> 0.47665396E+04</totfact>
</mgrwt>
</event>
<event>
 7    0  0.4750554E-002  0.4606885E+03  0.7546771E-02  0.1024582E+00
         21   -1    0    0  502  501  0.00000000000E+00  0.00000000000E+00  0.12084816674E+03  0.12084816674E+03  0.00000000000E+00 0. -1.
         21   -1    0    0  501  502 -0.00000000000E+00 -0.00000000000E+00 -0.43905069950E+03  0.43905069950E+03  0.00000000000E+00 0. -1.
      99926    2    1    2    0    0  0.00000000000E+00  0.17763568394E-14 -0.31820253276E+03  0.55989886624E+03  0.46068849406E+03 0.  0.
      99925    2    3    3    0    0  0.50379843496E+02 -0.13856141105E+02 -0.70002080160E+02  0.27708957706E+03  0.26296049363E+03 0.  0.
         25    1    3    3    0    0 -0.50379843496E+02  0.13856141105E+02 -0.24820045260E+03  0.28280928918E+03  0.12509000000E+03 0.  0.
         25    1    4    4    0    0  0.23638449411E+02  0.27506302062E+02 -0.12397345905E+02  0.13083032993E+03  0.12509000000E+03 0.  0.
         25    1    4    4    0    0  0.26741394085E+02 -0.41362443167E+02 -0.57604734255E+02  0.14625924713E+03  0.12509000000E+03 0.  0.
<mgrwt>
<rscale>  2 0.46068849E+03</rscale>
<asrwt>0</asrwt>
<pdfrwt beam="1">  1       21 0.17771789E-01 0.46068849E+03</pdfrwt>
<pdfrwt beam="2">  1       21 0.64566280E-01 0.46068849E+03</pdfrwt>
<totfact> 0.58538291E+04</totfact>
</mgrwt>
</event>
<event>
 7    0  0.4750554E-002  0.4526448E+03  0.7546771E-02  0.1026936E+00
         21   -1    0    0  502  501  0.00000000000E+00  0.00000000000E+00  0.97065402444E+02  0.97065402444E+02  0.00000000000E+00 0.  1.
         21   -1    0    0  501  502 -0.00000000000E+00 -0.00000000000E+00 -0.52770437250E+03  0.52770437250E+03  0.00000000000E+00 0.  1.
      99926    2    1    2    0    0  0.00000000000E+00 -0.71054273576E-14 -0.43063897006E+03  0.62476977495E+03  0.45264483776E+03 0.  0.
      99925    2    3    3    0    0 -0.20158356854E+02  0.58896003752E+02 -0.14473924034E+03  0.30655402712E+03  0.26296544496E+03 0.  0.
         25    1    3    3    0    0  0.20158356854E+02 -0.58896003752E+02 -0.28589972972E+03  0.31821574782E+03  0.12509000000E+03 0.  0.
         25    1    4    4    0    0 -0.22541497638E+02 -0.90076284577E+01 -0.77280455371E+02  0.14902695517E+03  0.12509000000E+03 0.  0.
         25    1    4    4    0    0  0.23831407833E+01  0.67903632210E+02 -0.67458784969E+02  0.15752707195E+03  0.12509000000E+03 0.  0.
<mgrwt>
<rscale>  2 0.45264484E+03</rscale>
<asrwt>0</asrwt>
<pdfrwt beam="1">  1       21 0.14274324E-01 0.45264484E+03</pdfrwt>
<pdfrwt beam="2">  1       21 0.77603586E-01 0.45264484E+03</pdfrwt>
<totfact> 0.58254635E+04</totfact>
</mgrwt>
</event>
<event>
 7    0  0.4750554E-002  0.4509186E+03  0.7546771E-02  0.1027448E+00
         21   -1    0    0  502  501  0.00000000000E+00  0.00000000000E+00  0.59967248724E+03  0.59967248724E+03  0.00000000000E+00 0.  1.
         21   -1    0    0  501  502 -0.00000000000E+00 -0.00000000000E+00 -0.84766107282E+02  0.84766107282E+02  0.00000000000E+00 0.  1.
      99926    2    1    2    0    0  0.14210854715E-13  0.00000000000E+00  0.51490637996E+03  0.68443859452E+03  0.45091862852E+03 0.  0.
      99925    2    3    3    0    0 -0.78478102400E+02  0.73237661143E+02  0.35682559754E+03  0.45605381080E+03  0.26294106511E+03 0.  0.
         25    1    4    4    0    0 -0.46565756139E+02  0.44788624140E+02  0.24648823049E+03  0.28386325293E+03  0.12509000000E+03 0.  0.
         25    1    4    4    0    0 -0.31912346261E+02  0.28449037003E+02  0.11033736706E+03  0.17219055787E+03  0.12509000000E+03 0.  0.
         25    1    3    3    0    0  0.78478102400E+02 -0.73237661143E+02  0.15808078241E+03  0.22838478372E+03  0.12509000000E+03 0.  0.
<mgrwt>
<rscale>  2 0.45091863E+03</rscale>
<asrwt>0</asrwt>
<pdfrwt beam="1">  1       21 0.88187128E-01 0.45091863E+03</pdfrwt>
<pdfrwt beam="2">  1       21 0.12465604E-01 0.45091863E+03</pdfrwt>
<totfact> 0.55518855E+04</totfact>
</mgrwt>
</event>
<event>
 7    0  0.4750554E-002  0.4543097E+03  0.7546771E-02  0.1026445E+00
         21   -1    0    0  502  501  0.00000000000E+00  0.00000000000E+00  0.67337506687E+02  0.67337506687E+02  0.00000000000E+00 0.  1.
         21   -1    0    0  501  502 -0.00000000000E+00 -0.00000000000E+00 -0.76627915954E+03  0.76627915954E+03  0.00000000000E+00 0.  1.
      99926    2    1    2    0    0  0.00000000000E+00 -0.14210854715E-13 -0.69894165285E+03  0.83361666623E+03  0.45430970947E+03 0.  0.
      99925    2    3    3    0    0 -0.10300261712E+02  0.11106170024E+03 -0.41262590690E+03  0.50185619370E+03  0.26298042409E+03 0.  0.
         25    1    3    3    0    0  0.10300261712E+02 -0.11106170024E+03 -0.28631574595E+03  0.33176047253E+03  0.12509000000E+03 0.  0.
         25    1    4    4    0    0  0.19930326603E+02  0.86821038118E+02 -0.24486276936E+03  0.28903355254E+03  0.12509000000E+03 0.  0.
         25    1    4    4    0    0 -0.30230588315E+02  0.24240662123E+02 -0.16776313755E+03  0.21282264116E+03  0.12509000000E+03 0.  0.
<mgrwt>
<rscale>  2 0.45430971E+03</rscale>
<asrwt>0</asrwt>
<pdfrwt beam="1">  1       21 0.99025744E-02 0.45430971E+03</pdfrwt>
<pdfrwt beam="2">  1       21 0.11268811E+00 0.45430971E+03</pdfrwt>
<totfact> 0.46432353E+04</totfact>
</mgrwt>
</event>
<event>
 7    0  0.4750554E-002  0.4638458E+03  0.7546771E-02  0.1023672E+00
         21   -1    0    0  502  501  0.00000000000E+00  0.00000000000E+00  0.78186225908E+03  0.78186225908E+03  0.00000000000E+00 0. -1.
         21   -1    0    0  501  502 -0.00000000000E+00 -0.00000000000E+00 -0.68795021425E+02  0.68795021425E+02  0.00000000000E+00 0. -1.
      99926    2    1    2    0    0  0.00000000000E+00  0.00000000000E+00  0.71306723765E+03  0.85065728050E+03  0.46384579707E+03 0.  0.
      99925    2    3    3    0    0  0.21021317567E+02 -0.51032435555E+02  0.24706283965E+03  0.36500945303E+03  0.26295560232E+03 0.  0.
         25    1    4    4    0    0  0.29757762878E+02 -0.24071792518E+02  0.17303644251E+03  0.21691955694E+03  0.12509000000E+03 0.  0.
         25    1    3    3    0    0 -0.21021317567E+02  0.51032435555E+02  0.46600439801E+03  0.48564782748E+03  0.12509000000E+03 0.  0.
         25    1    4    4    0    0 -0.87364453105E+01 -0.26960643037E+02  0.74026397133E+02  0.14808989608E+03  0.12509000000E+03 0.  0.
<mgrwt>
<rscale>  2 0.46384580E+03</rscale>
<asrwt>0</asrwt>
<pdfrwt beam="1">  1       21 0.11497974E+00 0.46384580E+03</pdfrwt>
<pdfrwt beam="2">  1       21 0.10116915E-01 0.46384580E+03</pdfrwt>
<totfact> 0.42390926E+04</totfact>
</mgrwt>
</event>
<event>
 7    0  0.4750554E-002  0.4535502E+03  0.7546771E-02  0.1026669E+00
         21   -1    0    0  502  501  0.00000000000E+00  0.00000000000E+00  0.24639233166E+02  0.24639233166E+02  0.00000000000E+00 0.  1.
         21   -1    0    0  501  502 -0.00000000000E+00 -0.00000000000E+00 -0.20871975197E+04  0.20871975197E+04  0.00000000000E+00 0.  1.
      99926    2    1    2    0    0  0.00000000000E+00  0.00000000000E+00 -0.20625582865E+04  0.21118367529E+04  0.45355020163E+03 0.  0.
      99925    2    3    3    0    0 -0.66427076262E+02  0.82010524533E+02 -0.11303713999E+04  0.11653917295E+04  0.26317313467E+03 0.  0.
         25    1    4    4    0    0 -0.36968464699E+02  0.56735980129E+01 -0.61914852257E+03  0.63276477320E+03  0.12509000000E+03 0.  0.
         25    1    3    3    0    0  0.66427076262E+02 -0.82010524533E+02 -0.93218688663E+03  0.94644502339E+03  0.12509000000E+03 0.  0.
         25    1    4    4    0    0 -0.29458611564E+02  0.76336926520E+02 -0.51122287731E+03  0.53262695626E+03  0.12509000000E+03 0.  0.
<mgrwt>
<rscale>  2 0.45355020E+03</rscale>
<asrwt>0</asrwt>
<pdfrwt beam="1">  1       21 0.36234156E-02 0.45355020E+03</pdfrwt>
<pdfrwt beam="2">  1       21 0.30694090E+00 0.45355020E+03</pdfrwt>
<totfact> 0.12104077E+04</totfact>
</mgrwt>
</event>
<event>
 7    0  0.4750554E-002  0.4613710E+03  0.7546771E-02  0.1024384E+00
         21   -1    0    0  502  501  0.00000000000E+00  0.00000000000E+00  0.66676660637E+02  0.66676660637E+02  0.00000000000E+00 0.  1.
         21   -1    0    0  501  502 -0.00000000000E+00 -0.00000000000E+00 -0.79811750496E+03  0.79811750496E+03  0.00000000000E+00 0.  1.
      99926    2    1    2    0    0  0.00000000000E+00  0.00000000000E+00 -0.73144084432E+03  0.86479416559E+03  0.46137104385E+03 0.  0.
      99925    2    3    3    0    0  0.10804345856E+02  0.90670613600E+02 -0.60094280212E+03  0.66227221326E+03  0.26293409626E+03 0.  0.
         25    1    4    4    0    0  0.45796199491E+01  0.73479694061E+02 -0.24776201359E+03  0.28714763074E+03  0.12509000000E+03 0.  0.
         25    1    3    3    0    0 -0.10804345856E+02 -0.90670613600E+02 -0.13049804220E+03  0.20252195234E+03  0.12509000000E+03 0.  0.
         25    1    4    4    0    0  0.62247259072E+01  0.17190919538E+02 -0.35318078852E+03  0.37512458252E+03  0.12509000000E+03 0.  0.
<mgrwt>
<rscale>  2 0.46137104E+03</rscale>
<asrwt>0</asrwt>
<pdfrwt beam="1">  1       21 0.98053913E-02 0.46137104E+03</pdfrwt>
<pdfrwt beam="2">  1       21 0.11737022E+00 0.46137104E+03</pdfrwt>
<totfact> 0.42614903E+04</totfact>
</mgrwt>
</event>
<event>
 7    0  0.4750554E-002  0.4541836E+03  0.7546771E-02  0.1026482E+00
         21   -1    0    0  502  501  0.00000000000E+00  0.00000000000E+00  0.40900114441E+03  0.40900114441E+03  0.00000000000E+00 0. -1.
         21   -1    0    0  501  502 -0.00000000000E+00 -0.00000000000E+00 -0.12608936403E+03  0.12608936403E+03  0.00000000000E+00 0. -1.
      99926    2    1    2    0    0  0.00000000000E+00  0.00000000000E+00  0.28291178038E+03  0.53509050844E+03  0.45418363768E+03 0.  0.
      99925    2    3    3    0    0 -0.59505194448E+02 -0.82295523796E+02  0.23479488648E+03  0.36693532719E+03  0.26305792939E+03 0.  0.
         25    1    3    3    0    0  0.59505194448E+02  0.82295523796E+02  0.48116893901E+02  0.16815518125E+03  0.12509000000E+03 0.  0.
         25    1    4    4    0    0 -0.20505011243E+02 -0.76223726193E+02  0.98103235300E+02  0.17748877372E+03  0.12509000000E+03 0.  0.
         25    1    4    4    0    0 -0.39000183205E+02 -0.60717976031E+01  0.13669165118E+03  0.18944655346E+03  0.12509000000E+03 0.  0.
<mgrwt>
<rscale>  2 0.45418364E+03</rscale>
<asrwt>0</asrwt>
<pdfrwt beam="1">  1       21 0.60147227E-01 0.45418364E+03</pdfrwt>
<pdfrwt beam="2">  1       21 0.18542554E-01 0.45418364E+03</pdfrwt>
<totfact> 0.63270452E+04</totfact>
</mgrwt>
</event>
<event>
 7    0  0.4750554E-002  0.4540546E+03  0.7546771E-02  0.1026520E+00
         21   -1    0    0  502  501  0.00000000000E+00  0.00000000000E+00  0.64456994530E+02  0.64456994530E+02  0.00000000000E+00 0.  1.
         21   -1    0    0  501  502 -0.00000000000E+00 -0.00000000000E+00 -0.79962442782E+03  0.79962442782E+03  0.00000000000E+00 0.  1.
      99926    2    1    2    0    0  0.00000000000E+00 -0.14210854715E-13 -0.73516743329E+03  0.86408142235E+03  0.45405456663E+03 0.  0.
      99925    2    3    3    0    0  0.66690331300E+02 -0.83818011597E+02 -0.39891192738E+03  0.48966409808E+03  0.26299647106E+03 0.  0.
         25    1    4    4    0    0  0.23810762649E+02 -0.35549916799E+02 -0.26111899429E+03  0.29267966496E+03  0.12509000000E+03 0.  0.
         25    1    4    4    0    0  0.42879568651E+02 -0.48268094797E+02 -0.13779293309E+03  0.19698443312E+03  0.12509000000E+03 0.  0.
         25    1    3    3    0    0 -0.66690331300E+02  0.83818011597E+02 -0.33625550591E+03  0.37441732427E+03  0.12509000000E+03 0.  0.
<mgrwt>
<rscale>  2 0.45405457E+03</rscale>
<asrwt>0</asrwt>
<pdfrwt beam="1">  1       21 0.94789701E-02 0.45405457E+03</pdfrwt>
<pdfrwt beam="2">  1       21 0.11759182E+00 0.45405457E+03</pdfrwt>
<totfact> 0.45149676E+04</totfact>
</mgrwt>
</event>
<event>
 7    0  0.4750554E-002  0.4469814E+03  0.7546771E-02  0.1028626E+00
         21   -1    0    0  502  501  0.00000000000E+00  0.00000000000E+00  0.23875081879E+03  0.23875081879E+03  0.00000000000E+00 0. -1.
         21   -1    0    0  501  502 -0.00000000000E+00 -0.00000000000E+00 -0.20920596070E+03  0.20920596070E+03  0.00000000000E+00 0. -1.
      99926    2    1    2    0    0 -0.22204460493E-15  0.00000000000E+00  0.29544858095E+02  0.44795677949E+03  0.44698140638E+03 0.  0.
      99925    2    3    3    0    0 -0.12236883421E+01  0.71415787665E+02  0.96536483938E+02  0.28909489553E+03  0.26297310462E+03 0.  0.
         25    1    4    4    0    0 -0.38671545149E+01  0.39362654971E+02  0.59362558592E+01  0.13132829369E+03  0.12509000000E+03 0.  0.
         25    1    3    3    0    0  0.12236883421E+01 -0.71415787665E+02 -0.66991625843E+02  0.15886188396E+03  0.12509000000E+03 0.  0.
         25    1    4    4    0    0  0.26434661728E+01  0.32053132694E+02  0.90600228079E+02  0.15776660184E+03  0.12509000000E+03 0.  0.
<mgrwt>
<rscale>  2 0.44698141E+03</rscale>
<asrwt>0</asrwt>
<pdfrwt beam="1">  1       21 0.35110415E-01 0.44698141E+03</pdfrwt>
<pdfrwt beam="2">  1       21 0.30765582E-01 0.44698141E+03</pdfrwt>
<totfact> 0.73666375E+04</totfact>
</mgrwt>
</event>
<event>
 7    0  0.4750554E-002  0.4503046E+03  0.7546771E-02  0.1027631E+00
         21   -1    0    0  502  501  0.00000000000E+00  0.00000000000E+00  0.32167167930E+03  0.32167167930E+03  0.00000000000E+00 0. -1.
         21   -1    0    0  501  502 -0.00000000000E+00 -0.00000000000E+00 -0.15759411310E+03  0.15759411310E+03  0.00000000000E+00 0. -1.
      99926    2    1    2    0    0  0.00000000000E+00  0.00000000000E+00  0.16407756620E+03  0.47926579240E+03  0.45030462138E+03 0.  0.
      99925    2    3    3    0    0  0.77369847585E+02 -0.56068210235E+02  0.48610160950E+02  0.28404804913E+03  0.26304107845E+03 0.  0.
         25    1    3    3    0    0 -0.77369847585E+02  0.56068210235E+02  0.11546740525E+03  0.19521774327E+03  0.12509000000E+03 0.  0.
         25    1    4    4    0    0  0.45605582890E+02 -0.46642024215E+02  0.61708463575E+02  0.15398308410E+03  0.12509000000E+03 0.  0.
         25    1    4    4    0    0  0.31764264695E+02 -0.94261860193E+01 -0.13098302624E+02  0.13006496502E+03  0.12509000000E+03 0.  0.
<mgrwt>
<rscale>  2 0.45030462E+03</rscale>
<asrwt>0</asrwt>
<pdfrwt beam="1">  1       21 0.47304659E-01 0.45030462E+03</pdfrwt>
<pdfrwt beam="2">  1       21 0.23175605E-01 0.45030462E+03</pdfrwt>
<totfact> 0.69300716E+04</totfact>
</mgrwt>
</event>
<event>
 7    0  0.4750554E-002  0.4550963E+03  0.7546771E-02  0.1026213E+00
         21   -1    0    0  502  501  0.00000000000E+00  0.00000000000E+00  0.38134697972E+03  0.38134697972E+03  0.00000000000E+00 0.  1.
         21   -1    0    0  501  502 -0.00000000000E+00 -0.00000000000E+00 -0.13577704473E+03  0.13577704473E+03  0.00000000000E+00 0.  1.
      99926    2    1    2    0    0  0.00000000000E+00  0.00000000000E+00  0.24556993499E+03  0.51712402446E+03  0.45509632354E+03 0.  0.
      99925    2    3    3    0    0  0.64274744993E+02 -0.73410321110E+02  0.88242362650E+02  0.29369665101E+03  0.26258463427E+03 0.  0.
         25    1    4    4    0    0  0.50725611527E+02 -0.71864917765E+02  0.62823466203E+02  0.16532377347E+03  0.12509000000E+03 0.  0.
         25    1    4    4    0    0  0.13549133465E+02 -0.15454033456E+01  0.25418896447E+02  0.12837287753E+03  0.12509000000E+03 0.  0.
         25    1    3    3    0    0 -0.64274744993E+02  0.73410321110E+02  0.15732757234E+03  0.22342737345E+03  0.12509000000E+03 0.  0.
<mgrwt>
<rscale>  2 0.45509632E+03</rscale>
<asrwt>0</asrwt>
<pdfrwt beam="1">  1       21 0.56080438E-01 0.45509632E+03</pdfrwt>
<pdfrwt beam="2">  1       21 0.19967213E-01 0.45509632E+03</pdfrwt>
<totfact> 0.64034685E+04</totfact>
</mgrwt>
</event>
<event>
 7    0  0.4750554E-002  0.4638953E+03  0.7546771E-02  0.1023658E+00
         21   -1    0    0  502  501  0.00000000000E+00  0.00000000000E+00  0.82850182683E+02  0.82850182683E+02  0.00000000000E+00 0.  1.
         21   -1    0    0  501  502 -0.00000000000E+00 -0.00000000000E+00 -0.64936132581E+03  0.64936132581E+03  0.00000000000E+00 0.  1.
      99926    2    1    2    0    0  0.00000000000E+00  0.35527136788E-14 -0.56651114313E+03  0.73221150850E+03  0.46389526607E+03 0.  0.
      99925    2    3    3    0    0 -0.11946696947E+03  0.16774544456E+02 -0.32871354252E+03  0.43767976302E+03  0.26259710545E+03 0.  0.
         25    1    3    3    0    0  0.11946696947E+03 -0.16774544456E+02 -0.23779760061E+03  0.29453174548E+03  0.12509000000E+03 0.  0.
         25    1    4    4    0    0 -0.80970656252E+02  0.24828739374E+02 -0.12837503514E+03  0.19824321229E+03  0.12509000000E+03 0.  0.
         25    1    4    4    0    0 -0.38496313216E+02 -0.80541949173E+01 -0.20033850737E+03  0.23943655073E+03  0.12509000000E+03 0.  0.
<mgrwt>
<rscale>  2 0.46389527E+03</rscale>
<asrwt>0</asrwt>
<pdfrwt beam="1">  1       21 0.12183850E-01 0.46389527E+03</pdfrwt>
<pdfrwt beam="2">  1       21 0.95494313E-01 0.46389527E+03</pdfrwt>
<totfact> 0.47759496E+04</totfact>
</mgrwt>
</event>
<event>
 7    0  0.4750554E-002  0.4516874E+03  0.7546771E-02  0.1027220E+00
         21   -1    0    0  502  501  0.00000000000E+00  0.00000000000E+00  0.13509018499E+03  0.13509018499E+03  0.00000000000E+00 0. -1.
         21   -1    0    0  501  502 -0.00000000000E+00 -0.00000000000E+00 -0.37756544437E+03  0.37756544437E+03  0.00000000000E+00 0. -1.
      99926    2    1    2    0    0 -0.71054273576E-14 -0.14210854715E-13 -0.24247525938E+03  0.51265562935E+03  0.45168743938E+03 0.  0.
      99925    2    3    3    0    0  0.59990785592E+02  0.76685497096E+02 -0.21086131075E+03  0.35101866060E+03  0.26319583563E+03 0.  0.
         25    1    4    4    0    0  0.16450792847E+02  0.27644485386E+02 -0.14796812401E+03  0.19641008116E+03  0.12509000000E+03 0.  0.
         25    1    4    4    0    0  0.43539992745E+02  0.49041011710E+02 -0.62893186742E+02  0.15460857944E+03  0.12509000000E+03 0.  0.
         25    1    3    3    0    0 -0.59990785592E+02 -0.76685497096E+02 -0.31613948629E+02  0.16163696876E+03  0.12509000000E+03 0.  0.
<mgrwt>
<rscale>  2 0.45168744E+03</rscale>
<asrwt>0</asrwt>
<pdfrwt beam="1">  1       21 0.19866204E-01 0.45168744E+03</pdfrwt>
<pdfrwt beam="2">  1       21 0.55524330E-01 0.45168744E+03</pdfrwt>
<totfact> 0.66111170E+04</totfact>
</mgrwt>
</event>
<event>
 7    0  0.4750554E-002  0.4608504E+03  0.7546771E-02  0.1024535E+00
         21   -1    0    0  502  501  0.00000000000E+00  0.00000000000E+00  0.75736926402E+02  0.75736926402E+02  0.00000000000E+00 0.  1.
         21   -1    0    0  501  502 -0.00000000000E+00 -0.00000000000E+00 -0.70105533564E+03  0.70105533564E+03  0.00000000000E+00 0.  1.
      99926    2    1    2    0    0  0.00000000000E+00  0.00000000000E+00 -0.62531840924E+03  0.77679226205E+03  0.46085041547E+03 0.  0.
      99925    2    3    3    0    0 -0.10249898013E+03  0.47243610962E+02 -0.45238969433E+03  0.53535935574E+03  0.26308782667E+03 0.  0.
         25    1    4    4    0    0 -0.59408159498E+02  0.63395320812E+02 -0.22269323060E+03  0.26979265959E+03  0.12509000000E+03 0.  0.
         25    1    3    3    0    0  0.10249898013E+03 -0.47243610962E+02 -0.17292871492E+03  0.24143290631E+03  0.12509000000E+03 0.  0.
         25    1    4    4    0    0 -0.43090820634E+02 -0.16151709850E+02 -0.22969646372E+03  0.26556669614E+03  0.12509000000E+03 0.  0.
<mgrwt>
<rscale>  2 0.46085042E+03</rscale>
<asrwt>0</asrwt>
<pdfrwt beam="1">  1       21 0.11137784E-01 0.46085042E+03</pdfrwt>
<pdfrwt beam="2">  1       21 0.10309637E+00 0.46085042E+03</pdfrwt>
<totfact> 0.46724903E+04</totfact>
</mgrwt>
</event>
<event>
 7    0  0.4750554E-002  0.4492953E+03  0.7546771E-02  0.1027932E+00
         21   -1    0    0  502  501  0.00000000000E+00  0.00000000000E+00  0.91345579651E+02  0.91345579651E+02  0.00000000000E+00 0. -1.
         21   -1    0    0  501  502 -0.00000000000E+00 -0.00000000000E+00 -0.55247967863E+03  0.55247967863E+03  0.00000000000E+00 0. -1.
      99926    2    1    2    0    0  0.14210854715E-13  0.00000000000E+00 -0.46113409898E+03  0.64382525828E+03  0.44929534380E+03 0.  0.
      99925    2    3    3    0    0  0.86382943821E+02 -0.64212596444E+02 -0.28969318682E+03  0.40586567140E+03  0.26309604750E+03 0.  0.
         25    1    3    3    0    0 -0.86382943821E+02  0.64212596444E+02 -0.17144091216E+03  0.23795958688E+03  0.12509000000E+03 0.  0.
         25    1    4    4    0    0  0.41815244322E+02 -0.71849452444E+02 -0.17101121703E+03  0.22760316984E+03  0.12509000000E+03 0.  0.
         25    1    4    4    0    0  0.44567699499E+02  0.76368559994E+01 -0.11868196979E+03  0.17826250156E+03  0.12509000000E+03 0.  0.
<mgrwt>
<rscale>  2 0.44929534E+03</rscale>
<asrwt>0</asrwt>
<pdfrwt beam="1">  1       21 0.13433173E-01 0.44929534E+03</pdfrwt>
<pdfrwt beam="2">  1       21 0.81247014E-01 0.44929534E+03</pdfrwt>
<totfact> 0.58654457E+04</totfact>
</mgrwt>
</event>
<event>
 7    0  0.4750554E-002  0.4691591E+03  0.7546771E-02  0.1022158E+00
         21   -1    0    0  502  501  0.00000000000E+00  0.00000000000E+00  0.18626510372E+03  0.18626510372E+03  0.00000000000E+00 0. -1.
         21   -1    0    0  501  502 -0.00000000000E+00 -0.00000000000E+00 -0.29542610720E+03  0.29542610720E+03  0.00000000000E+00 0. -1.
      99926    2    1    2    0    0  0.14210854715E-13  0.00000000000E+00 -0.10916100348E+03  0.48169121092E+03  0.46915913930E+03 0.  0.
      99925    2    3    3    0    0 -0.12058249305E+03 -0.20713895859E+02 -0.37088958285E+02  0.29245302526E+03  0.26302847383E+03 0.  0.
         25    1    3    3    0    0  0.12058249305E+03  0.20713895859E+02 -0.72072045195E+02  0.18923818565E+03  0.12509000000E+03 0.  0.
         25    1    4    4    0    0 -0.19246617608E+02 -0.61177065602E+01 -0.32179961949E+02  0.13073223273E+03  0.12509000000E+03 0.  0.
         25    1    4    4    0    0 -0.10133587544E+03 -0.14596189299E+02 -0.49089963357E+01  0.16172079253E+03  0.12509000000E+03 0.  0.
<mgrwt>
<rscale>  2 0.46915914E+03</rscale>
<asrwt>0</asrwt>
<pdfrwt beam="1">  1       21 0.27391927E-01 0.46915914E+03</pdfrwt>
<pdfrwt beam="2">  1       21 0.43445015E-01 0.46915914E+03</pdfrwt>
<totfact> 0.59594134E+04</totfact>
</mgrwt>
</event>
<event>
 6    0  0.4750554E-002  0.4520085E+03  0.7546771E-02  0.1027125E+00
         21   -1    0    0  502  501  0.00000000000E+00  0.00000000000E+00  0.17243889181E+03  0.17243889181E+03  0.00000000000E+00 0.  1.
         21   -1    0    0  501  502 -0.00000000000E+00 -0.00000000000E+00 -0.29620881415E+03  0.29620881415E+03  0.00000000000E+00 0.  1.
      99926    2    1    2    0    0  0.00000000000E+00  0.71054273576E-14 -0.12376992234E+03  0.46864770596E+03  0.45200849398E+03 0.  0.
         25    1    3    3    0    0  0.79493835928E+02 -0.62391310454E+02 -0.80254263810E+02  0.17972256545E+03  0.12509000000E+03 0.  0.
         25    1    3    3    0    0 -0.70679556746E+01  0.12073515291E+02 -0.50717821973E+02  0.13570383685E+03  0.12509000000E+03 0.  0.
         25    1    3    3    0    0 -0.72425880254E+02  0.50317795164E+02  0.72021634452E+01  0.15322130367E+03  0.12509000000E+03 0.  0.
<mgrwt>
<rscale>  2 0.45200849E+03</rscale>
<asrwt>0</asrwt>
<pdfrwt beam="1">  1       21 0.25358661E-01 0.45200849E+03</pdfrwt>
<pdfrwt beam="2">  1       21 0.43560119E-01 0.45200849E+03</pdfrwt>
<totfact> 0.69163324E+04</totfact>
</mgrwt>
</event>
<event>
 7    0  0.4750554E-002  0.4495208E+03  0.7546771E-02  0.1027865E+00
         21   -1    0    0  502  501  0.00000000000E+00  0.00000000000E+00  0.14805265428E+04  0.14805265428E+04  0.00000000000E+00 0. -1.
         21   -1    0    0  501  502 -0.00000000000E+00 -0.00000000000E+00 -0.34121122085E+02  0.34121122085E+02  0.00000000000E+00 0. -1.
      99926    2    1    2    0    0  0.00000000000E+00  0.00000000000E+00  0.14464054207E+04  0.15146476649E+04  0.44952075333E+03 0.  0.
      99925    2    3    3    0    0 -0.91019454042E+01  0.79439963393E+02  0.11593215413E+04  0.11914477034E+04  0.26292135819E+03 0.  0.
         25    1    4    4    0    0  0.10759300378E+02  0.26575820957E+02  0.71451690553E+03  0.72595037929E+03  0.12509000000E+03 0.  0.
         25    1    4    4    0    0 -0.19861245783E+02  0.52864142436E+02  0.44480463573E+03  0.46549732406E+03  0.12509000000E+03 0.  0.
         25    1    3    3    0    0  0.91019454042E+01 -0.79439963393E+02  0.28708387946E+03  0.32319996154E+03  0.12509000000E+03 0.  0.
<mgrwt>
<rscale>  2 0.44952075E+03</rscale>
<asrwt>0</asrwt>
<pdfrwt beam="1">  1       21 0.21772445E+00 0.44952075E+03</pdfrwt>
<pdfrwt beam="2">  1       21 0.50178130E-02 0.44952075E+03</pdfrwt>
<totfact> 0.24446355E+04</totfact>
</mgrwt>
</event>
<event>
 7    0  0.4750554E-002  0.4554367E+03  0.7546771E-02  0.1026113E+00
         21   -1    0    0  502  501  0.00000000000E+00  0.00000000000E+00  0.12236250137E+03  0.12236250137E+03  0.00000000000E+00 0. -1.
         21   -1    0    0  501  502 -0.00000000000E+00 -0.00000000000E+00 -0.42378710948E+03  0.42378710948E+03  0.00000000000E+00 0. -1.
      99926    2    1    2    0    0  0.00000000000E+00  0.00000000000E+00 -0.30142460811E+03  0.54614961085E+03  0.45543671685E+03 0.  0.
      99925    2    3    3    0    0 -0.43255501772E+02  0.64703686609E+02 -0.90348114914E+02  0.28874254106E+03  0.26296742699E+03 0.  0.
         25    1    4    4    0    0 -0.14147842839E+02  0.17975176382E+02 -0.83044701405E+02  0.15187889568E+03  0.12509000000E+03 0.  0.
         25    1    4    4    0    0 -0.29107658933E+02  0.46728510227E+02 -0.73034135086E+01  0.13686364538E+03  0.12509000000E+03 0.  0.
         25    1    3    3    0    0  0.43255501772E+02 -0.64703686609E+02 -0.21107649320E+03  0.25740706978E+03  0.12509000000E+03 0.  0.
<mgrwt>
<rscale>  2 0.45543672E+03</rscale>
<asrwt>0</asrwt>
<pdfrwt beam="1">  1       21 0.17994486E-01 0.45543672E+03</pdfrwt>
<pdfrwt beam="2">  1       21 0.62321633E-01 0.45543672E+03</pdfrwt>
<totfact> 0.61907463E+04</totfact>
</mgrwt>
</event>
<event>
 7    0  0.4750554E-002  0.4651209E+03  0.7546771E-02  0.1023306E+00
         21   -1    0    0  502  501  0.00000000000E+00  0.00000000000E+00  0.85316945063E+02  0.85316945063E+02  0.00000000000E+00 0.  1.
         21   -1    0    0  501  502 -0.00000000000E+00 -0.00000000000E+00 -0.63392291382E+03  0.63392291382E+03  0.00000000000E+00 0.  1.
      99926    2    1    2    0    0  0.00000000000E+00  0.00000000000E+00 -0.54860596876E+03  0.71923985888E+03  0.46512091509E+03 0.  0.
      99925    2    3    3    0    0  0.87481537416E+02  0.26485005006E+02 -0.46799425762E+03  0.54459670571E+03  0.26308263306E+03 0.  0.
         25    1    3    3    0    0 -0.87481537416E+02 -0.26485005006E+02 -0.80611711132E+02  0.17464315317E+03  0.12509000000E+03 0.  0.
         25    1    4    4    0    0  0.96732932355E+01  0.12417711430E+01 -0.25743739918E+03  0.28638546959E+03  0.12509000000E+03 0.  0.
         25    1    4    4    0    0  0.77808244181E+02  0.25243233863E+02 -0.21055685845E+03  0.25821123612E+03  0.12509000000E+03 0.  0.
<mgrwt>
<rscale>  2 0.46512092E+03</rscale>
<asrwt>0</asrwt>
<pdfrwt beam="1">  1       21 0.12546610E-01 0.46512092E+03</pdfrwt>
<pdfrwt beam="2">  1       21 0.93223955E-01 0.46512092E+03</pdfrwt>
<totfact> 0.47938841E+04</totfact>
</mgrwt>
</event>
<event>
 7    0  0.4750554E-002  0.4596197E+03  0.7546771E-02  0.1024892E+00
         21   -1    0    0  502  501  0.00000000000E+00  0.00000000000E+00  0.19015965465E+03  0.19015965465E+03  0.00000000000E+00 0. -1.
         21   -1    0    0  501  502 -0.00000000000E+00 -0.00000000000E+00 -0.27772745363E+03  0.27772745363E+03  0.00000000000E+00 0. -1.
      99926    2    1    2    0    0  0.00000000000E+00  0.00000000000E+00 -0.87567798981E+02  0.46788710829E+03  0.45961965437E+03 0.  0.
      99925    2    3    3    0    0  0.31796470348E+02 -0.64728088139E+02  0.39508303807E+02  0.27554214495E+03  0.26298636211E+03 0.  0.
         25    1    4    4    0    0 -0.44210911715E+01 -0.65162671613E+02  0.34232303765E+02  0.14520701960E+03  0.12509000000E+03 0.  0.
         25    1    3    3    0    0 -0.31796470348E+02  0.64728088139E+02 -0.12707610279E+03  0.19234496334E+03  0.12509000000E+03 0.  0.
         25    1    4    4    0    0  0.36217561519E+02  0.43458347444E+00  0.52760000419E+01  0.13033512536E+03  0.12509000000E+03 0.  0.
<mgrwt>
<rscale>  2 0.45961965E+03</rscale>
<asrwt>0</asrwt>
<pdfrwt beam="1">  1       21 0.27964655E-01 0.45961965E+03</pdfrwt>
<pdfrwt beam="2">  1       21 0.40842272E-01 0.45961965E+03</pdfrwt>
<totfact> 0.65170093E+04</totfact>
</mgrwt>
</event>
<event>
 7    0  0.4750554E-002  0.4490024E+03  0.7546771E-02  0.1028020E+00
         21   -1    0    0  502  501  0.00000000000E+00  0.00000000000E+00  0.65887953579E+02  0.65887953579E+02  0.00000000000E+00 0.  1.
         21   -1    0    0  501  502 -0.00000000000E+00 -0.00000000000E+00 -0.76494697185E+03  0.76494697185E+03  0.00000000000E+00 0.  1.
      99926    2    1    2    0    0  0.00000000000E+00  0.00000000000E+00 -0.69905901828E+03  0.83083492543E+03  0.44900240788E+03 0.  0.
      99925    2    3    3    0    0 -0.72085615506E+02  0.78443125584E+02 -0.47085486528E+03  0.54963339012E+03  0.26276015579E+03 0.  0.
         25    1    4    4    0    0 -0.19656034414E+02  0.43564746369E+02 -0.15968638853E+03  0.20840224950E+03  0.12509000000E+03 0.  0.
         25    1    3    3    0    0  0.72085615506E+02 -0.78443125584E+02 -0.22820415300E+03  0.28120153531E+03  0.12509000000E+03 0.  0.
         25    1    4    4    0    0 -0.52429581093E+02  0.34878379214E+02 -0.31116847675E+03  0.34123114062E+03  0.12509000000E+03 0.  0.
<mgrwt>
<rscale>  2 0.44900241E+03</rscale>
<asrwt>0</asrwt>
<pdfrwt beam="1">  1       21 0.96894042E-02 0.44900241E+03</pdfrwt>
<pdfrwt beam="2">  1       21 0.11249221E+00 0.44900241E+03</pdfrwt>
<totfact> 0.48554038E+04</totfact>
</mgrwt>
</event>
<event>
 7    0  0.4750554E-002  0.4597247E+03  0.7546771E-02  0.1024861E+00
         21   -1    0    0  502  501  0.00000000000E+00  0.00000000000E+00  0.49427553550E+03  0.49427553550E+03  0.00000000000E+00 0. -1.
         21   -1    0    0  501  502 -0.00000000000E+00 -0.00000000000E+00 -0.10689723841E+03  0.10689723841E+03  0.00000000000E+00 0. -1.
      99926    2    1    2    0    0  0.00000000000E+00  0.00000000000E+00  0.38737829708E+03  0.60117277391E+03  0.45972465568E+03 0.  0.
      99925    2    3    3    0    0 -0.28170976142E+02 -0.11344502538E+03  0.22809392934E+03  0.36733010118E+03  0.26313719796E+03 0.  0.
         25    1    4    4    0    0  0.12082861352E+02 -0.88458175042E+02  0.11127110821E+03  0.18973563685E+03  0.12509000000E+03 0.  0.
         25    1    4    4    0    0 -0.40253837494E+02 -0.24986850340E+02  0.11682282113E+03  0.17759446433E+03  0.12509000000E+03 0.  0.
         25    1    3    3    0    0  0.28170976142E+02  0.11344502538E+03  0.15928436775E+03  0.23384267273E+03  0.12509000000E+03 0.  0.
<mgrwt>
<rscale>  2 0.45972466E+03</rscale>
<asrwt>0</asrwt>
<pdfrwt beam="1">  1       21 0.72687578E-01 0.45972466E+03</pdfrwt>
<pdfrwt beam="2">  1       21 0.15720182E-01 0.45972466E+03</pdfrwt>
<totfact> 0.56468445E+04</totfact>
</mgrwt>
</event>
<event>
 7    0  0.4750554E-002  0.4556256E+03  0.7546771E-02  0.1026058E+00
         21   -1    0    0  502  501  0.00000000000E+00  0.00000000000E+00  0.21716524747E+03  0.21716524747E+03  0.00000000000E+00 0. -1.
         21   -1    0    0  501  502 -0.00000000000E+00 -0.00000000000E+00 -0.23898239531E+03  0.23898239531E+03  0.00000000000E+00 0. -1.
      99926    2    1    2    0    0  0.00000000000E+00  0.71054273576E-14 -0.21817147836E+02  0.45614764278E+03  0.45562559638E+03 0.  0.
      99925    2    3    3    0    0 -0.99164510476E+02  0.35876434918E+02 -0.56508227274E+02  0.28890022782E+03  0.26296281707E+03 0.  0.
         25    1    4    4    0    0 -0.90767065613E+02  0.14019285910E+02 -0.19765501244E+02  0.15643971272E+03  0.12509000000E+03 0.  0.
         25    1    3    3    0    0  0.99164510476E+02 -0.35876434918E+02  0.34691079438E+02  0.16724741497E+03  0.12509000000E+03 0.  0.
         25    1    4    4    0    0 -0.83974448628E+01  0.21857149008E+02 -0.36742726030E+02  0.13246051509E+03  0.12509000000E+03 0.  0.
<mgrwt>
<rscale>  2 0.45562560E+03</rscale>
<asrwt>0</asrwt>
<pdfrwt beam="1">  1       21 0.31936066E-01 0.45562560E+03</pdfrwt>
<pdfrwt beam="2">  1       21 0.35144470E-01 0.45562560E+03</pdfrwt>
<totfact> 0.68121159E+04</totfact>
</mgrwt>
</event>
<event>
 7    0  0.4750554E-002  0.4564342E+03  0.7546771E-02  0.1025820E+00
         21   -1    0    0  502  501  0.00000000000E+00  0.00000000000E+00  0.41039293913E+03  0.41039293913E+03  0.00000000000E+00 0. -1.
         21   -1    0    0  501  502 -0.00000000000E+00 -0.00000000000E+00 -0.12691018625E+03  0.12691018625E+03  0.00000000000E+00 0. -1.
      99926    2    1    2    0    0  0.00000000000E+00  0.71054273576E-14  0.28348275288E+03  0.53730312538E+03  0.45643419828E+03 0.  0.
      99925    2    3    3    0    0 -0.98578715198E+02 -0.57478672132E+02  0.16686605703E+03  0.33171002556E+03  0.26299372470E+03 0.  0.
         25    1    3    3    0    0  0.98578715198E+02  0.57478672132E+02  0.11661669586E+03  0.20559309982E+03  0.12509000000E+03 0.  0.
         25    1    4    4    0    0 -0.76413462608E+02 -0.46379705270E+01  0.64479193810E+02  0.16020487687E+03  0.12509000000E+03 0.  0.
         25    1    4    4    0    0 -0.22165252591E+02 -0.52840701605E+02  0.10238686322E+03  0.17150514869E+03  0.12509000000E+03 0.  0.
<mgrwt>
<rscale>  2 0.45643420E+03</rscale>
<asrwt>0</asrwt>
<pdfrwt beam="1">  1       21 0.60351902E-01 0.45643420E+03</pdfrwt>
<pdfrwt beam="2">  1       21 0.18663263E-01 0.45643420E+03</pdfrwt>
<totfact> 0.62006571E+04</totfact>
</mgrwt>
</event>
<event>
 7    0  0.4750554E-002  0.4480830E+03  0.7546771E-02  0.1028295E+00
         21   -1    0    0  502  501  0.00000000000E+00  0.00000000000E+00  0.36366066802E+03  0.36366066802E+03  0.00000000000E+00 0.  1.
         21   -1    0    0  501  502 -0.00000000000E+00 -0.00000000000E+00 -0.13802589216E+03  0.13802589216E+03  0.00000000000E+00 0.  1.
      99926    2    1    2    0    0  0.00000000000E+00 -0.71054273576E-14  0.22563477585E+03  0.50168656018E+03  0.44808297512E+03 0.  0.
      99925    2    3    3    0    0 -0.24600768703E+02  0.52591344401E+02  0.24291770766E+03  0.36270003148E+03  0.26300428289E+03 0.  0.
         25    1    4    4    0    0 -0.43190963193E+02 -0.95677775310E-01  0.11921508711E+03  0.17811573078E+03  0.12509000000E+03 0.  0.
         25    1    4    4    0    0  0.18590194490E+02  0.52687022176E+02  0.12370262055E+03  0.18458430071E+03  0.12509000000E+03 0.  0.
         25    1    3    3    0    0  0.24600768703E+02 -0.52591344401E+02 -0.17282931806E+02  0.13898652869E+03  0.12509000000E+03 0.  0.
<mgrwt>
<rscale>  2 0.44808298E+03</rscale>
<asrwt>0</asrwt>
<pdfrwt beam="1">  1       21 0.53479510E-01 0.44808298E+03</pdfrwt>
<pdfrwt beam="2">  1       21 0.20297925E-01 0.44808298E+03</pdfrwt>
<totfact> 0.68855672E+04</totfact>
</mgrwt>
</event>
<event>
 7    0  0.4750554E-002  0.4557749E+03  0.7546771E-02  0.1026014E+00
         21   -1    0    0  502  501  0.00000000000E+00  0.00000000000E+00  0.26176573402E+03  0.26176573402E+03  0.00000000000E+00 0.  1.
         21   -1    0    0  501  502 -0.00000000000E+00 -0.00000000000E+00 -0.19839379180E+03  0.19839379180E+03  0.00000000000E+00 0.  1.
      99926    2    1    2    0    0  0.14210854715E-13  0.00000000000E+00  0.63371942225E+02  0.46015952582E+03  0.45577492926E+03 0.  0.
      99925    2    3    3    0    0  0.10672255249E+03 -0.26115982132E+02  0.70212183068E+02  0.29352806203E+03  0.26297761276E+03 0.  0.
         25    1    3    3    0    0 -0.10672255249E+03  0.26115982132E+02 -0.68402408427E+01  0.16663146380E+03  0.12509000000E+03 0.  0.
         25    1    4    4    0    0  0.78520640783E+02 -0.13009745291E+02  0.33072791640E+01  0.14830101381E+03  0.12509000000E+03 0.  0.
         25    1    4    4    0    0  0.28201911704E+02 -0.13106236841E+02  0.66904903904E+02  0.14522704822E+03  0.12509000000E+03 0.  0.
<mgrwt>
<rscale>  2 0.45577493E+03</rscale>
<asrwt>0</asrwt>
<pdfrwt beam="1">  1       21 0.38494961E-01 0.45577493E+03</pdfrwt>
<pdfrwt beam="2">  1       21 0.29175557E-01 0.45577493E+03</pdfrwt>
<totfact> 0.67749298E+04</totfact>
</mgrwt>
</event>
<event>
 7    0  0.4750554E-002  0.4534924E+03  0.7546771E-02  0.1026686E+00
         21   -1    0    0  502  501  0.00000000000E+00  0.00000000000E+00  0.97487945436E+02  0.97487945436E+02  0.00000000000E+00 0.  1.
         21   -1    0    0  501  502 -0.00000000000E+00 -0.00000000000E+00 -0.52738663421E+03  0.52738663421E+03  0.00000000000E+00 0.  1.
      99926    2    1    2    0    0  0.00000000000E+00  0.00000000000E+00 -0.42989868877E+03  0.62487457964E+03  0.45349240090E+03 0.  0.
      99925    2    3    3    0    0 -0.30784720529E+02  0.16039108220E+02 -0.12525147689E+03  0.29372146729E+03  0.26339972642E+03 0.  0.
         25    1    4    4    0    0 -0.10345561401E+02  0.32386934751E+02 -0.99357264320E+02  0.16332580401E+03  0.12509000000E+03 0.  0.
         25    1    4    4    0    0 -0.20439159128E+02 -0.16347826531E+02 -0.25894212569E+02  0.13039566328E+03  0.12509000000E+03 0.  0.
         25    1    3    3    0    0  0.30784720529E+02 -0.16039108220E+02 -0.30464721188E+03  0.33115311235E+03  0.12509000000E+03 0.  0.
<mgrwt>
<rscale>  2 0.45349240E+03</rscale>
<asrwt>0</asrwt>
<pdfrwt beam="1">  1       21 0.14336463E-01 0.45349240E+03</pdfrwt>
<pdfrwt beam="2">  1       21 0.77556858E-01 0.45349240E+03</pdfrwt>
<totfact> 0.57858322E+04</totfact>
</mgrwt>
</event>
<event>
 7    0  0.4750554E-002  0.4567814E+03  0.7546771E-02  0.1025719E+00
         21   -1    0    0  502  501  0.00000000000E+00  0.00000000000E+00  0.44245081700E+03  0.44245081700E+03  0.00000000000E+00 0. -1.
         21   -1    0    0  501  502 -0.00000000000E+00 -0.00000000000E+00 -0.11789403731E+03  0.11789403731E+03  0.00000000000E+00 0. -1.
      99926    2    1    2    0    0  0.00000000000E+00  0.00000000000E+00  0.32455677969E+03  0.56034485431E+03  0.45678140560E+03 0.  0.
      99925    2    3    3    0    0  0.71849394305E+02  0.71661196646E+02  0.13801577494E+03  0.31388447794E+03  0.26301606185E+03 0.  0.
         25    1    4    4    0    0  0.60862684450E+02  0.22880185637E+02  0.37730798635E+02  0.14594139412E+03  0.12509000000E+03 0.  0.
         25    1    3    3    0    0 -0.71849394305E+02 -0.71661196646E+02  0.18654100476E+03  0.24646037637E+03  0.12509000000E+03 0.  0.
         25    1    4    4    0    0  0.10986709854E+02  0.48781011008E+02  0.10028497630E+03  0.16794308381E+03  0.12509000000E+03 0.  0.
<mgrwt>
<rscale>  2 0.45678141E+03</rscale>
<asrwt>0</asrwt>
<pdfrwt beam="1">  1       21 0.65066296E-01 0.45678141E+03</pdfrwt>
<pdfrwt beam="2">  1       21 0.17337359E-01 0.45678141E+03</pdfrwt>
<totfact> 0.60333407E+04</totfact>
</mgrwt>
</event>
<event>
 7    0  0.4750554E-002  0.4423243E+03  0.7546771E-02  0.1030036E+00
         21   -1    0    0  502  501  0.00000000000E+00  0.00000000000E+00  0.35352106432E+02  0.35352106432E+02  0.00000000000E+00 0. -1.
         21   -1    0    0  501  502 -0.00000000000E+00 -0.00000000000E+00 -0.13835862533E+04  0.13835862533E+04  0.00000000000E+00 0. -1.
      99926    2    1    2    0    0 -0.53290705182E-14  0.00000000000E+00 -0.13482341469E+04  0.14189383597E+04  0.44232426334E+03 0.  0.
      99925    2    3    3    0    0 -0.15569607387E+02  0.34080625865E+02 -0.11587776432E+04  0.11888401706E+04  0.26300460693E+03 0.  0.
         25    1    4    4    0    0 -0.46867261633E+02  0.17845532981E+02 -0.63945917187E+03  0.65350634569E+03  0.12509000000E+03 0.  0.
         25    1    3    3    0    0  0.15569607387E+02 -0.34080625865E+02 -0.18945650370E+03  0.23009818910E+03  0.12509000000E+03 0.  0.
         25    1    4    4    0    0  0.31297654247E+02  0.16235092884E+02 -0.51931847130E+03  0.53533382495E+03  0.12509000000E+03 0.  0.
<mgrwt>
<rscale>  2 0.44232426E+03</rscale>
<asrwt>0</asrwt>
<pdfrwt beam="1">  1       21 0.51988414E-02 0.44232426E+03</pdfrwt>
<pdfrwt beam="2">  1       21 0.20346848E+00 0.44232426E+03</pdfrwt>
<totfact> 0.28541169E+04</totfact>
</mgrwt>
</event>
<event>
 7    0  0.4750554E-002  0.4430846E+03  0.7546771E-02  0.1029805E+00
         21   -1    0    0  502  501  0.00000000000E+00  0.00000000000E+00  0.27013665759E+03  0.27013665759E+03  0.00000000000E+00 0. -1.
         21   -1    0    0  501  502 -0.00000000000E+00 -0.00000000000E+00 -0.18168948748E+03  0.18168948748E+03  0.00000000000E+00 0. -1.
      99926    2    1    2    0    0 -0.14210854715E-13  0.00000000000E+00  0.88447170114E+02  0.45182614507E+03  0.44308460080E+03 0.  0.
      99925    2    3    3    0    0  0.87681037742E+02 -0.32275334881E+02  0.97763323104E+02  0.29541655320E+03  0.26264731284E+03 0.  0.
         25    1    4    4    0    0  0.47802501083E+02  0.29328935178E+01  0.11531243142E+02  0.13444016752E+03  0.12509000000E+03 0.  0.
         25    1    3    3    0    0 -0.87681037742E+02  0.32275334881E+02 -0.93161529893E+01  0.15640959187E+03  0.12509000000E+03 0.  0.
         25    1    4    4    0    0  0.39878536660E+02 -0.35208228398E+02  0.86232079962E+02  0.16097638568E+03  0.12509000000E+03 0.  0.
<mgrwt>
<rscale>  2 0.44308460E+03</rscale>
<asrwt>0</asrwt>
<pdfrwt beam="1">  1       21 0.39725979E-01 0.44308460E+03</pdfrwt>
<pdfrwt beam="2">  1       21 0.26719042E-01 0.44308460E+03</pdfrwt>
<totfact> 0.75719366E+04</totfact>
</mgrwt>
</event>
<event>
 7    0  0.4750554E-002  0.4521156E+03  0.7546771E-02  0.1027093E+00
         21   -1    0    0  502  501  0.00000000000E+00  0.00000000000E+00  0.37141811055E+03  0.37141811055E+03  0.00000000000E+00 0. -1.
         21   -1    0    0  501  502 -0.00000000000E+00 -0.00000000000E+00 -0.13758652626E+03  0.13758652626E+03  0.00000000000E+00 0. -1.
      99926    2    1    2    0    0  0.00000000000E+00  0.00000000000E+00  0.23383158429E+03  0.50900463681E+03  0.45211559416E+03 0.  0.
      99925    2    3    3    0    0 -0.40788248994E+02 -0.75017234976E+02  0.22626454333E+03  0.35736020068E+03  0.26309580511E+03 0.  0.
         25    1    4    4    0    0  0.91628300836E+01 -0.52437317533E+02  0.14347817301E+03  0.19765405120E+03  0.12509000000E+03 0.  0.
         25    1    3    3    0    0  0.40788248994E+02  0.75017234976E+02  0.75670409631E+01  0.15164443613E+03  0.12509000000E+03 0.  0.
         25    1    4    4    0    0 -0.49951079078E+02 -0.22579917443E+02  0.82786370315E+02  0.15970614948E+03  0.12509000000E+03 0.  0.
<mgrwt>
<rscale>  2 0.45211559E+03</rscale>
<asrwt>0</asrwt>
<pdfrwt beam="1">  1       21 0.54620310E-01 0.45211559E+03</pdfrwt>
<pdfrwt beam="2">  1       21 0.20233313E-01 0.45211559E+03</pdfrwt>
<totfact> 0.66143756E+04</totfact>
</mgrwt>
</event>
<event>
 7    0  0.4750554E-002  0.4589198E+03  0.7546771E-02  0.1025095E+00
         21   -1    0    0  502  501  0.00000000000E+00  0.00000000000E+00  0.49382995151E+02  0.49382995151E+02  0.00000000000E+00 0. -1.
         21   -1    0    0  501  502 -0.00000000000E+00 -0.00000000000E+00 -0.10661936415E+04  0.10661936415E+04  0.00000000000E+00 0. -1.
      99926    2    1    2    0    0  0.00000000000E+00  0.71054273576E-14 -0.10168106464E+04  0.11155766367E+04  0.45891975520E+03 0.  0.
      99925    2    3    3    0    0 -0.10038968240E+03  0.54431272800E+02 -0.69655755495E+03  0.75329166258E+03  0.26308753251E+03 0.  0.
         25    1    3    3    0    0  0.10038968240E+03 -0.54431272800E+02 -0.32025309141E+03  0.36228497409E+03  0.12509000000E+03 0.  0.
         25    1    4    4    0    0 -0.33811547516E+02  0.72459679127E+01 -0.41145331500E+03  0.43143604777E+03  0.12509000000E+03 0.  0.
         25    1    4    4    0    0 -0.66578134881E+02  0.47185304888E+02 -0.28510423996E+03  0.32185561481E+03  0.12509000000E+03 0.  0.
<mgrwt>
<rscale>  2 0.45891976E+03</rscale>
<asrwt>0</asrwt>
<pdfrwt beam="1">  1       21 0.72622055E-02 0.45891976E+03</pdfrwt>
<pdfrwt beam="2">  1       21 0.15679318E+00 0.45891976E+03</pdfrwt>
<totfact> 0.33904593E+04</totfact>
</mgrwt>
</event>
<event>
 7    0  0.4750554E-002  0.4513219E+03  0.7546771E-02  0.1027329E+00
         21   -1    0    0  502  501  0.00000000000E+00  0.00000000000E+00  0.23461264046E+04  0.23461264046E+04  0.00000000000E+00 0.  1.
         21   -1    0    0  501  502 -0.00000000000E+00 -0.00000000000E+00 -0.21705078095E+02  0.21705078095E+02  0.00000000000E+00 0.  1.
      99926    2    1    2    0    0 -0.71054273576E-14  0.00000000000E+00  0.23244213265E+04  0.23678314827E+04  0.45132186666E+03 0.  0.
      99925    2    3    3    0    0  0.44527405030E+02  0.13932876248E+02  0.94637853175E+03  0.98333653250E+03  0.26294789589E+03 0.  0.
         25    1    4    4    0    0  0.45888272273E+02  0.35238802373E+02  0.55718086151E+03  0.57397345519E+03  0.12509000000E+03 0.  0.
         25    1    3    3    0    0 -0.44527405030E+02 -0.13932876248E+02  0.13780427947E+04  0.13844949502E+04  0.12509000000E+03 0.  0.
         25    1    4    4    0    0 -0.13608672431E+01 -0.21305926124E+02  0.38919767023E+03  0.40936307731E+03  0.12509000000E+03 0.  0.
<mgrwt>
<rscale>  2 0.45132187E+03</rscale>
<asrwt>0</asrwt>
<pdfrwt beam="1">  1       21 0.34501841E+00 0.45132187E+03</pdfrwt>
<pdfrwt beam="2">  1       21 0.31919249E-02 0.45132187E+03</pdfrwt>
<totfact> 0.88300728E+03</totfact>
</mgrwt>
</event>
<event>
 7    0  0.4750554E-002  0.4568693E+03  0.7546771E-02  0.1025693E+00
         21   -1    0    0  502  501  0.00000000000E+00  0.00000000000E+00  0.15869714509E+03  0.15869714509E+03  0.00000000000E+00 0.  1.
         21   -1    0    0  501  502 -0.00000000000E+00 -0.00000000000E+00 -0.32881750739E+03  0.32881750739E+03  0.00000000000E+00 0.  1.
      99926    2    1    2    0    0 -0.71054273576E-14  0.00000000000E+00 -0.17012036229E+03  0.48751465248E+03  0.45686934534E+03 0.  0.
      99925    2    3    3    0    0  0.61631149476E+02  0.87731381059E+02 -0.15120238440E+03  0.32168162864E+03  0.26291008986E+03 0.  0.
         25    1    3    3    0    0 -0.61631149476E+02 -0.87731381059E+02 -0.18917977898E+02  0.16583302384E+03  0.12509000000E+03 0.  0.
         25    1    4    4    0    0  0.27366260653E+02  0.38501340806E+02 -0.11961023450E+03  0.17940284770E+03  0.12509000000E+03 0.  0.
         25    1    4    4    0    0  0.34264888823E+02  0.49230040253E+02 -0.31592149892E+02  0.14227878093E+03  0.12509000000E+03 0.  0.
<mgrwt>
<rscale>  2 0.45686935E+03</rscale>
<asrwt>0</asrwt>
<pdfrwt beam="1">  1       21 0.23337816E-01 0.45686935E+03</pdfrwt>
<pdfrwt beam="2">  1       21 0.48355515E-01 0.45686935E+03</pdfrwt>
<totfact> 0.65184320E+04</totfact>
</mgrwt>
</event>
<event>
 7    0  0.4750554E-002  0.4544703E+03  0.7546771E-02  0.1026397E+00
         21   -1    0    0  502  501  0.00000000000E+00  0.00000000000E+00  0.99836951920E+02  0.99836951920E+02  0.00000000000E+00 0.  1.
         21   -1    0    0  501  502 -0.00000000000E+00 -0.00000000000E+00 -0.51720141767E+03  0.51720141767E+03  0.00000000000E+00 0.  1.
      99926    2    1    2    0    0  0.00000000000E+00  0.00000000000E+00 -0.41736446575E+03  0.61703836959E+03  0.45447029856E+03 0.  0.
      99925    2    3    3    0    0 -0.61630324243E+02 -0.90643983422E+02 -0.29883248256E+03  0.41280329000E+03  0.26285181187E+03 0.  0.
         25    1    3    3    0    0  0.61630324243E+02  0.90643983422E+02 -0.11853198320E+03  0.20423507960E+03  0.12509000000E+03 0.  0.
         25    1    4    4    0    0 -0.28732754842E+02 -0.82613765805E+02 -0.18892443515E+03  0.24287971467E+03  0.12509000000E+03 0.  0.
         25    1    4    4    0    0 -0.32897569401E+02 -0.80302176166E+01 -0.10990804741E+03  0.16992357533E+03  0.12509000000E+03 0.  0.
<mgrwt>
<rscale>  2 0.45447030E+03</rscale>
<asrwt>0</asrwt>
<pdfrwt beam="1">  1       21 0.14681905E-01 0.45447030E+03</pdfrwt>
<pdfrwt beam="2">  1       21 0.76059030E-01 0.45447030E+03</pdfrwt>
<totfact> 0.57883338E+04</totfact>
</mgrwt>
</event>
<event>
 7    0  0.4750554E-002  0.4506403E+03  0.7546771E-02  0.1027531E+00
         21   -1    0    0  502  501  0.00000000000E+00  0.00000000000E+00  0.44880736916E+03  0.44880736916E+03  0.00000000000E+00 0.  1.
         21   -1    0    0  501  502 -0.00000000000E+00 -0.00000000000E+00 -0.11312020191E+03  0.11312020191E+03  0.00000000000E+00 0.  1.
      99926    2    1    2    0    0 -0.71054273576E-14  0.00000000000E+00  0.33568716724E+03  0.56192757107E+03  0.45064034537E+03 0.  0.
      99925    2    3    3    0    0 -0.32405550345E+02 -0.19713509660E+02  0.84612540136E+02  0.27886447098E+03  0.26299689935E+03 0.  0.
         25    1    4    4    0    0 -0.46817557864E+01  0.21842250742E+02  0.65062104933E+02  0.14275709563E+03  0.12509000000E+03 0.  0.
         25    1    3    3    0    0  0.32405550345E+02  0.19713509660E+02  0.25107462711E+03  0.28306310009E+03  0.12509000000E+03 0.  0.
         25    1    4    4    0    0 -0.27723794559E+02 -0.41555760402E+02  0.19550435203E+02  0.13610737535E+03  0.12509000000E+03 0.  0.
<mgrwt>
<rscale>  2 0.45064035E+03</rscale>
<asrwt>0</asrwt>
<pdfrwt beam="1">  1       21 0.66001083E-01 0.45064035E+03</pdfrwt>
<pdfrwt beam="2">  1       21 0.16635324E-01 0.45064035E+03</pdfrwt>
<totfact> 0.63237677E+04</totfact>
</mgrwt>
</event>
<event>
 7    0  0.4750554E-002  0.4396814E+03  0.7546771E-02  0.1030845E+00
         21   -1    0    0  502  501  0.00000000000E+00  0.00000000000E+00  0.75234871694E+03  0.75234871694E+03  0.00000000000E+00 0. -1.
         21   -1    0    0  501  502 -0.00000000000E+00 -0.00000000000E+00 -0.64238729698E+02  0.64238729698E+02  0.00000000000E+00 0. -1.
      99926    2    1    2    0    0  0.00000000000E+00  0.00000000000E+00  0.68810998724E+03  0.81658744663E+03  0.43968136584E+03 0.  0.
      99925    2    3    3    0    0  0.40816049325E+02 -0.57425830643E+02  0.31242240594E+03  0.41440298305E+03  0.26297984090E+03 0.  0.
         25    1    4    4    0    0 -0.10300633476E+02 -0.18223974385E+02  0.18676100970E+03  0.22575517522E+03  0.12509000000E+03 0.  0.
         25    1    4    4    0    0  0.51116682802E+02 -0.39201856259E+02  0.12566139623E+03  0.18864780783E+03  0.12509000000E+03 0.  0.
         25    1    3    3    0    0 -0.40816049325E+02  0.57425830643E+02  0.37568758130E+03  0.40218446359E+03  0.12509000000E+03 0.  0.
<mgrwt>
<rscale>  2 0.43968137E+03</rscale>
<asrwt>0</asrwt>
<pdfrwt beam="1">  1       21 0.11063951E+00 0.43968137E+03</pdfrwt>
<pdfrwt beam="2">  1       21 0.94468725E-02 0.43968137E+03</pdfrwt>
<totfact> 0.53070362E+04</totfact>
</mgrwt>
</event>
<event>
 7    0  0.4750554E-002  0.4582625E+03  0.7546771E-02  0.1025286E+00
         21   -1    0    0  502  501  0.00000000000E+00  0.00000000000E+00  0.41366464245E+03  0.41366464245E+03  0.00000000000E+00 0. -1.
         21   -1    0    0  501  502 -0.00000000000E+00 -0.00000000000E+00 -0.12691711620E+03  0.12691711620E+03  0.00000000000E+00 0. -1.
      99926    2    1    2    0    0  0.14210854715E-13  0.00000000000E+00  0.28674752625E+03  0.54058175865E+03  0.45826247280E+03 0.  0.
      99925    2    3    3    0    0 -0.86910700887E+02 -0.51675047996E+02  0.11208458912E+03  0.30314033383E+03  0.26288272359E+03 0.  0.
         25    1    4    4    0    0 -0.41306934036E+02 -0.63674464004E+02  0.74951851909E+02  0.16439582832E+03  0.12509000000E+03 0.  0.
         25    1    3    3    0    0  0.86910700887E+02  0.51675047996E+02  0.17466293714E+03  0.23744142482E+03  0.12509000000E+03 0.  0.
         25    1    4    4    0    0 -0.45603766851E+02  0.11999416008E+02  0.37132737208E+02  0.13874450551E+03  0.12509000000E+03 0.  0.
<mgrwt>
<rscale>  2 0.45826247E+03</rscale>
<asrwt>0</asrwt>
<pdfrwt beam="1">  1       21 0.60833035E-01 0.45826247E+03</pdfrwt>
<pdfrwt beam="2">  1       21 0.18664282E-01 0.45826247E+03</pdfrwt>
<totfact> 0.60905397E+04</totfact>
</mgrwt>
</event>
<event>
 7    0  0.4750554E-002  0.4562276E+03  0.7546771E-02  0.1025881E+00
         21   -1    0    0  502  501  0.00000000000E+00  0.00000000000E+00  0.77646987085E+02  0.77646987085E+02  0.00000000000E+00 0. -1.
         21   -1    0    0  501  502 -0.00000000000E+00 -0.00000000000E+00 -0.67016005053E+03  0.67016005053E+03  0.00000000000E+00 0. -1.
      99926    2    1    2    0    0  0.00000000000E+00  0.00000000000E+00 -0.59251306345E+03  0.74780703762E+03  0.45622761332E+03 0.  0.
      99925    2    3    3    0    0 -0.78473698380E+02  0.68456650476E+02 -0.44972412439E+03  0.53128770003E+03  0.26300265742E+03 0.  0.
         25    1    3    3    0    0  0.78473698380E+02 -0.68456650476E+02 -0.14278893905E+03  0.21651933758E+03  0.12509000000E+03 0.  0.
         25    1    4    4    0    0 -0.10694937176E+02  0.56322145054E+02 -0.25585826539E+03  0.29051252257E+03  0.12509000000E+03 0.  0.
         25    1    4    4    0    0 -0.67778761204E+02  0.12134505421E+02 -0.19386585900E+03  0.24077517746E+03  0.12509000000E+03 0.  0.
<mgrwt>
<rscale>  2 0.45622761E+03</rscale>
<asrwt>0</asrwt>
<pdfrwt beam="1">  1       21 0.11418675E-01 0.45622761E+03</pdfrwt>
<pdfrwt beam="2">  1       21 0.98552945E-01 0.45622761E+03</pdfrwt>
<totfact> 0.49899781E+04</totfact>
</mgrwt>
</event>
<event>
 7    0  0.4750554E-002  0.4120242E+03  0.7546771E-02  0.1039694E+00
         21   -1    0    0  502  501  0.00000000000E+00  0.00000000000E+00  0.12567434249E+03  0.12567434249E+03  0.00000000000E+00 0.  1.
         21   -1    0    0  501  502 -0.00000000000E+00 -0.00000000000E+00 -0.33770603578E+03  0.33770603578E+03  0.00000000000E+00 0.  1.
      99926    2    1    2    0    0  0.00000000000E+00  0.71054273576E-14 -0.21203169329E+03  0.46338037826E+03  0.41202419347E+03 0.  0.
      99925    2    3    3    0    0 -0.51688204514E+02  0.30984261777E+02 -0.16739641051E+03  0.31753281561E+03  0.26300919332E+03 0.  0.
         25    1    4    4    0    0 -0.52762391042E+02  0.35998423300E+02 -0.11613851233E+03  0.18225097678E+03  0.12509000000E+03 0.  0.
         25    1    4    4    0    0  0.10741865280E+01 -0.50141615223E+01 -0.51257898180E+02  0.13528183883E+03  0.12509000000E+03 0.  0.
         25    1    3    3    0    0  0.51688204514E+02 -0.30984261777E+02 -0.44635282773E+02  0.14584756265E+03  0.12509000000E+03 0.  0.
<mgrwt>
<rscale>  2 0.41202419E+03</rscale>
<asrwt>0</asrwt>
<pdfrwt beam="1">  1       21 0.18481521E-01 0.41202419E+03</pdfrwt>
<pdfrwt beam="2">  1       21 0.49662652E-01 0.41202419E+03</pdfrwt>
<totfact> 0.97042767E+04</totfact>
</mgrwt>
</event>
<event>
 7    0  0.4750554E-002  0.4030371E+03  0.7546771E-02  0.1042733E+00
         21   -1    0    0  502  501  0.00000000000E+00  0.00000000000E+00  0.86700095025E+02  0.86700095025E+02  0.00000000000E+00 0. -1.
         21   -1    0    0  501  502 -0.00000000000E+00 -0.00000000000E+00 -0.46839314380E+03  0.46839314380E+03  0.00000000000E+00 0. -1.
      99926    2    1    2    0    0  0.00000000000E+00  0.17763568394E-14 -0.38169304878E+03  0.55509323883E+03  0.40303712026E+03 0.  0.
      99925    2    3    3    0    0  0.45254874800E+02  0.38887956491E+01 -0.28579562973E+03  0.39105985959E+03  0.26303145322E+03 0.  0.
         25    1    4    4    0    0  0.96012763756E+00  0.21847831292E+02 -0.97974249913E+02  0.16038924940E+03  0.12509000000E+03 0.  0.
         25    1    4    4    0    0  0.44294747162E+02 -0.17959035643E+02 -0.18782137982E+03  0.23067061019E+03  0.12509000000E+03 0.  0.
         25    1    3    3    0    0 -0.45254874800E+02 -0.38887956491E+01 -0.95897419045E+02  0.16403337924E+03  0.12509000000E+03 0.  0.
<mgrwt>
<rscale>  2 0.40303712E+03</rscale>
<asrwt>0</asrwt>
<pdfrwt beam="1">  1       21 0.12750014E-01 0.40303712E+03</pdfrwt>
<pdfrwt beam="2">  1       21 0.68881343E-01 0.40303712E+03</pdfrwt>
<totfact> 0.94942300E+04</totfact>
</mgrwt>
</event>
<event>
 7    0  0.4750554E-002  0.4542671E+03  0.7546771E-02  0.1026457E+00
         21   -1    0    0  502  501  0.00000000000E+00  0.00000000000E+00  0.27590650114E+03  0.27590650114E+03  0.00000000000E+00 0.  1.
         21   -1    0    0  501  502 -0.00000000000E+00 -0.00000000000E+00 -0.18698239743E+03  0.18698239743E+03  0.00000000000E+00 0.  1.
      99926    2    1    2    0    0  0.35527136788E-14  0.00000000000E+00  0.88924103716E+02  0.46288889857E+03  0.45426714189E+03 0.  0.
      99925    2    3    3    0    0  0.83510400502E+01 -0.10534016206E+03  0.16944964847E+02  0.28401801178E+03  0.26308327497E+03 0.  0.
         25    1    4    4    0    0  0.42273067889E+02 -0.49929608441E+02  0.22531263566E+02  0.14295154426E+03  0.12509000000E+03 0.  0.
         25    1    3    3    0    0 -0.83510400502E+01  0.10534016206E+03  0.71979138868E+02  0.17887088680E+03  0.12509000000E+03 0.  0.
         25    1    4    4    0    0 -0.33922027839E+02 -0.55410553615E+02 -0.55862987184E+01  0.14106646752E+03  0.12509000000E+03 0.  0.
<mgrwt>
<rscale>  2 0.45426714E+03</rscale>
<asrwt>0</asrwt>
<pdfrwt beam="1">  1       21 0.40574486E-01 0.45426714E+03</pdfrwt>
<pdfrwt beam="2">  1       21 0.27497411E-01 0.45426714E+03</pdfrwt>
<totfact> 0.68364607E+04</totfact>
</mgrwt>
</event>
<event>
 7    0  0.4750554E-002  0.4520636E+03  0.7546771E-02  0.1027108E+00
         21   -1    0    0  502  501  0.00000000000E+00  0.00000000000E+00  0.42687562525E+02  0.42687562525E+02  0.00000000000E+00 0. -1.
         21   -1    0    0  501  502 -0.00000000000E+00 -0.00000000000E+00 -0.11968447481E+04  0.11968447481E+04  0.00000000000E+00 0. -1.
      99926    2    1    2    0    0  0.14210854715E-13  0.71054273576E-14 -0.11541571856E+04  0.12395323106E+04  0.45206364604E+03 0.  0.
      99925    2    3    3    0    0 -0.86356641529E+02 -0.42238793685E+02 -0.87729779806E+03  0.92087855844E+03  0.26291501988E+03 0.  0.
         25    1    4    4    0    0 -0.76845113841E+02  0.86875643157E+00 -0.48764346277E+03  0.50926376383E+03  0.12509000000E+03 0.  0.
         25    1    3    3    0    0  0.86356641529E+02  0.42238793685E+02 -0.27685938752E+03  0.31865375219E+03  0.12509000000E+03 0.  0.
         25    1    4    4    0    0 -0.95115276877E+01 -0.43107550117E+02 -0.38965433529E+03  0.41161479461E+03  0.12509000000E+03 0.  0.
<mgrwt>
<rscale>  2 0.45206365E+03</rscale>
<asrwt>0</asrwt>
<pdfrwt beam="1">  1       21 0.62775819E-02 0.45206365E+03</pdfrwt>
<pdfrwt beam="2">  1       21 0.17600660E+00 0.45206365E+03</pdfrwt>
<totfact> 0.31639714E+04</totfact>
</mgrwt>
</event>
<event>
 7    0  0.4750554E-002  0.4137105E+03  0.7546771E-02  0.1039133E+00
         21   -1    0    0  502  501  0.00000000000E+00  0.00000000000E+00  0.14520542581E+03  0.14520542581E+03  0.00000000000E+00 0.  1.
         21   -1    0    0  501  502 -0.00000000000E+00 -0.00000000000E+00 -0.29467977282E+03  0.29467977282E+03  0.00000000000E+00 0.  1.
      99926    2    1    2    0    0  0.17763568394E-14  0.00000000000E+00 -0.14947434701E+03  0.43988519864E+03  0.41371053596E+03 0.  0.
      99925    2    3    3    0    0  0.11944772952E+02  0.26852637841E+02 -0.33267229949E+02  0.26663582947E+03  0.26291484403E+03 0.  0.
         25    1    3    3    0    0 -0.11944772952E+02 -0.26852637841E+02 -0.11620711706E+03  0.17324936916E+03  0.12509000000E+03 0.  0.
         25    1    4    4    0    0  0.42868871096E+02  0.26135494417E+02 -0.59917984709E+01  0.13492299258E+03  0.12509000000E+03 0.  0.
         25    1    4    4    0    0 -0.30924098144E+02  0.71714342441E+00 -0.27275431478E+02  0.13171283690E+03  0.12509000000E+03 0.  0.
<mgrwt>
<rscale>  2 0.41371054E+03</rscale>
<asrwt>0</asrwt>
<pdfrwt beam="1">  1       21 0.21353739E-01 0.41371054E+03</pdfrwt>
<pdfrwt beam="2">  1       21 0.43335260E-01 0.41371054E+03</pdfrwt>
<totfact> 0.98172254E+04</totfact>
</mgrwt>
</event>
<event>
 7    0  0.4750554E-002  0.4569956E+03  0.7546771E-02  0.1025656E+00
         21   -1    0    0  502  501  0.00000000000E+00  0.00000000000E+00  0.66852568763E+02  0.66852568763E+02  0.00000000000E+00 0. -1.
         21   -1    0    0  501  502 -0.00000000000E+00 -0.00000000000E+00 -0.78099074724E+03  0.78099074724E+03  0.00000000000E+00 0. -1.
      99926    2    1    2    0    0  0.00000000000E+00  0.35527136788E-14 -0.71413817848E+03  0.84784331600E+03  0.45699556949E+03 0.  0.
      99925    2    3    3    0    0  0.89306485779E+02 -0.19366897514E+02 -0.57811046787E+03  0.64168373879E+03  0.26305053213E+03 0.  0.
         25    1    4    4    0    0  0.11937939042E+02 -0.18658169194E+02 -0.32491570168E+03  0.34886725694E+03  0.12509000000E+03 0.  0.
         25    1    3    3    0    0 -0.89306485779E+02  0.19366897514E+02 -0.13602771061E+03  0.20615957721E+03  0.12509000000E+03 0.  0.
         25    1    4    4    0    0  0.77368546737E+02 -0.70872831926E+00 -0.25319476619E+03  0.29281648185E+03  0.12509000000E+03 0.  0.
<mgrwt>
<rscale>  2 0.45699557E+03</rscale>
<asrwt>0</asrwt>
<pdfrwt beam="1">  1       21 0.98312600E-02 0.45699557E+03</pdfrwt>
<pdfrwt beam="2">  1       21 0.11485158E+00 0.45699557E+03</pdfrwt>
<totfact> 0.44830070E+04</totfact>
</mgrwt>
</event>
<event>
 7    0  0.4750554E-002  0.4486800E+03  0.7546771E-02  0.1028116E+00
         21   -1    0    0  502  501  0.00000000000E+00  0.00000000000E+00  0.45048586714E+03  0.45048586714E+03  0.00000000000E+00 0. -1.
         21   -1    0    0  501  502 -0.00000000000E+00 -0.00000000000E+00 -0.11172034537E+03  0.11172034537E+03  0.00000000000E+00 0. -1.
      99926    2    1    2    0    0  0.00000000000E+00  0.00000000000E+00  0.33876552177E+03  0.56220621250E+03  0.44868000472E+03 0.  0.
      99925    2    3    3    0    0 -0.84769348590E+02  0.65334436436E+02  0.22203654099E+03  0.36039542464E+03  0.26292623589E+03 0.  0.
         25    1    3    3    0    0  0.84769348590E+02 -0.65334436436E+02  0.11672898078E+03  0.20181078787E+03  0.12509000000E+03 0.  0.
         25    1    4    4    0    0 -0.34940646363E+02  0.35015944834E+02  0.59287237960E+02  0.14700153008E+03  0.12509000000E+03 0.  0.
         25    1    4    4    0    0 -0.49828702226E+02  0.30318491602E+02  0.16274930303E+03  0.21339389456E+03  0.12509000000E+03 0.  0.
<mgrwt>
<rscale>  2 0.44868000E+03</rscale>
<asrwt>0</asrwt>
<pdfrwt beam="1">  1       21 0.66247921E-01 0.44868000E+03</pdfrwt>
<pdfrwt beam="2">  1       21 0.16429463E-01 0.44868000E+03</pdfrwt>
<totfact> 0.64217382E+04</totfact>
</mgrwt>
</event>
<event>
 7    0  0.4750554E-002  0.4727156E+03  0.7546771E-02  0.1021157E+00
         21   -1    0    0  502  501  0.00000000000E+00  0.00000000000E+00  0.16846409988E+04  0.16846409988E+04  0.00000000000E+00 0.  1.
         21   -1    0    0  501  502 -0.00000000000E+00 -0.00000000000E+00 -0.33161376447E+02  0.33161376447E+02  0.00000000000E+00 0.  1.
      99926    2    1    2    0    0  0.00000000000E+00 -0.14210854715E-13  0.16514796223E+04  0.17178023752E+04  0.47271561996E+03 0.  0.
      99925    2    3    3    0    0  0.36768173333E+02  0.12367907192E+03  0.10264103170E+04  0.10674120647E+04  0.26306266499E+03 0.  0.
         25    1    3    3    0    0 -0.36768173333E+02 -0.12367907192E+03  0.62506930533E+03  0.65039031048E+03  0.12509000000E+03 0.  0.
         25    1    4    4    0    0  0.97966824923E+01  0.99516525957E+02  0.63611126611E+03  0.65596079524E+03  0.12509000000E+03 0.  0.
         25    1    4    4    0    0  0.26971490840E+02  0.24162545963E+02  0.39029905088E+03  0.41145126949E+03  0.12509000000E+03 0.  0.
<mgrwt>
<rscale>  2 0.47271562E+03</rscale>
<asrwt>0</asrwt>
<pdfrwt beam="1">  1       21 0.24774127E+00 0.47271562E+03</pdfrwt>
<pdfrwt beam="2">  1       21 0.48766741E-02 0.47271562E+03</pdfrwt>
<totfact> 0.16504373E+04</totfact>
</mgrwt>
</event>
<event>
 7    0  0.4750554E-002  0.4146637E+03  0.7546771E-02  0.1038817E+00
         21   -1    0    0  502  501  0.00000000000E+00  0.00000000000E+00  0.12036801401E+03  0.12036801401E+03  0.00000000000E+00 0. -1.
         21   -1    0    0  501  502 -0.00000000000E+00 -0.00000000000E+00 -0.35712551243E+03  0.35712551243E+03  0.00000000000E+00 0. -1.
      99926    2    1    2    0    0  0.00000000000E+00  0.00000000000E+00 -0.23675749842E+03  0.47749352644E+03  0.41466366459E+03 0.  0.
      99925    2    3    3    0    0 -0.14766098685E+02  0.46078740604E+02 -0.98776100704E+02  0.28506779474E+03  0.26299361498E+03 0.  0.
         25    1    4    4    0    0 -0.16940912935E+02  0.25562535447E+02 -0.91674549572E+02  0.15808911692E+03  0.12509000000E+03 0.  0.
         25    1    3    3    0    0  0.14766098685E+02 -0.46078740604E+02 -0.13798139772E+03  0.19242573171E+03  0.12509000000E+03 0.  0.
         25    1    4    4    0    0  0.21748142504E+01  0.20516205157E+02 -0.71015511323E+01  0.12697867781E+03  0.12509000000E+03 0.  0.
<mgrwt>
<rscale>  2 0.41466366E+03</rscale>
<asrwt>0</asrwt>
<pdfrwt beam="1">  1       21 0.17701178E-01 0.41466366E+03</pdfrwt>
<pdfrwt beam="2">  1       21 0.52518458E-01 0.41466366E+03</pdfrwt>
<totfact> 0.93380279E+04</totfact>
</mgrwt>
</event>
<event>
 7    0  0.4750554E-002  0.4509591E+03  0.7546771E-02  0.1027436E+00
         21   -1    0    0  502  501  0.00000000000E+00  0.00000000000E+00  0.30269619715E+03  0.30269619715E+03  0.00000000000E+00 0.  1.
         21   -1    0    0  501  502 -0.00000000000E+00 -0.00000000000E+00 -0.16796055831E+03  0.16796055831E+03  0.00000000000E+00 0.  1.
      99926    2    1    2    0    0 -0.17763568394E-14 -0.71054273576E-14  0.13473563884E+03  0.47065675546E+03  0.45095907695E+03 0.  0.
      99925    2    3    3    0    0 -0.92967502813E+01 -0.58007026520E+02  0.18136105667E+03  0.32480517892E+03  0.26297400382E+03 0.  0.
         25    1    4    4    0    0  0.18167256346E+02 -0.61365990677E+02  0.10757550395E+03  0.17696279599E+03  0.12509000000E+03 0.  0.
         25    1    4    4    0    0 -0.27464006627E+02  0.33589641569E+01  0.73785552720E+02  0.14784238293E+03  0.12509000000E+03 0.  0.
         25    1    3    3    0    0  0.92967502813E+01  0.58007026520E+02 -0.46625417823E+02  0.14585157654E+03  0.12509000000E+03 0.  0.
<mgrwt>
<rscale>  2 0.45095908E+03</rscale>
<asrwt>0</asrwt>
<pdfrwt beam="1">  1       21 0.44514147E-01 0.45095908E+03</pdfrwt>
<pdfrwt beam="2">  1       21 0.24700082E-01 0.45095908E+03</pdfrwt>
<totfact> 0.69591609E+04</totfact>
</mgrwt>
</event>
<event>
 7    0  0.4750554E-002  0.4548021E+03  0.7546771E-02  0.1026300E+00
         21   -1    0    0  502  501  0.00000000000E+00  0.00000000000E+00  0.11880849113E+04  0.11880849113E+04  0.00000000000E+00 0.  1.
         21   -1    0    0  501  502 -0.00000000000E+00 -0.00000000000E+00 -0.43524870225E+02  0.43524870225E+02  0.00000000000E+00 0.  1.
      99926    2    1    2    0    0  0.71054273576E-14  0.00000000000E+00  0.11445600411E+04  0.12316097815E+04  0.45480211777E+03 0.  0.
      99925    2    3    3    0    0 -0.50007640759E+02 -0.48028655059E+02  0.96216204326E+03  0.99982528346E+03  0.26284460066E+03 0.  0.
         25    1    3    3    0    0  0.50007640759E+02  0.48028655059E+02  0.18239799782E+03  0.23178449808E+03  0.12509000000E+03 0.  0.
         25    1    4    4    0    0 -0.12100517291E+02  0.15180399383E+02  0.43772758781E+03  0.45566414855E+03  0.12509000000E+03 0.  0.
         25    1    4    4    0    0 -0.37907123469E+02 -0.63209054443E+02  0.52443445545E+03  0.54416113490E+03  0.12509000000E+03 0.  0.
<mgrwt>
<rscale>  2 0.45480212E+03</rscale>
<asrwt>0</asrwt>
<pdfrwt beam="1">  1       21 0.17471835E+00 0.45480212E+03</pdfrwt>
<pdfrwt beam="2">  1       21 0.64007170E-02 0.45480212E+03</pdfrwt>
<totfact> 0.31215430E+04</totfact>
</mgrwt>
</event>
<event>
 7    0  0.4750554E-002  0.4558209E+03  0.7546771E-02  0.1026000E+00
         21   -1    0    0  502  501  0.00000000000E+00  0.00000000000E+00  0.25660883555E+03  0.25660883555E+03  0.00000000000E+00 0.  1.
         21   -1    0    0  501  502 -0.00000000000E+00 -0.00000000000E+00 -0.20242160079E+03  0.20242160079E+03  0.00000000000E+00 0.  1.
      99926    2    1    2    0    0  0.00000000000E+00 -0.14210854715E-13  0.54187234758E+02  0.45903043635E+03  0.45582089145E+03 0.  0.
      99925    2    3    3    0    0 -0.71307094296E+02 -0.87192695548E+02  0.50988720547E+02  0.29067068330E+03  0.26306335482E+03 0.  0.
         25    1    3    3    0    0  0.71307094296E+02  0.87192695548E+02  0.31985142103E+01  0.16835975305E+03  0.12509000000E+03 0.  0.
         25    1    4    4    0    0 -0.45104695949E+02 -0.29906966234E+01  0.27679610850E+02  0.13585671430E+03  0.12509000000E+03 0.  0.
         25    1    4    4    0    0 -0.26202398347E+02 -0.84201998924E+02  0.23309109698E+02  0.15481396900E+03  0.12509000000E+03 0.  0.
<mgrwt>
<rscale>  2 0.45582089E+03</rscale>
<asrwt>0</asrwt>
<pdfrwt beam="1">  1       21 0.37736594E-01 0.45582089E+03</pdfrwt>
<pdfrwt beam="2">  1       21 0.29767882E-01 0.45582089E+03</pdfrwt>
<totfact> 0.67806239E+04</totfact>
</mgrwt>
</event>
<event>
 7    0  0.4750554E-002  0.3899035E+03  0.7546771E-02  0.1047333E+00
         21   -1    0    0  502  501  0.00000000000E+00  0.00000000000E+00  0.46751146604E+02  0.46751146604E+02  0.00000000000E+00 0.  1.
         21   -1    0    0  501  502 -0.00000000000E+00 -0.00000000000E+00 -0.81294646561E+03  0.81294646561E+03  0.00000000000E+00 0.  1.
      99926    2    1    2    0    0 -0.44408920985E-15  0.48849813084E-14 -0.76619531900E+03  0.85969761221E+03  0.38990347213E+03 0.  0.
      99925    2    3    3    0    0  0.21810764096E+01  0.33983093484E+01 -0.55569342086E+03  0.61479995436E+03  0.26299714882E+03 0.  0.
         25    1    4    4    0    0 -0.13040608995E+02  0.38557674172E+02 -0.30031356330E+03  0.32786048271E+03  0.12509000000E+03 0.  0.
         25    1    4    4    0    0  0.15221685404E+02 -0.35159364823E+02 -0.25537985757E+03  0.28693947165E+03  0.12509000000E+03 0.  0.
         25    1    3    3    0    0 -0.21810764096E+01 -0.33983093484E+01 -0.21050189814E+03  0.24489765785E+03  0.12509000000E+03 0.  0.
<mgrwt>
<rscale>  2 0.38990347E+03</rscale>
<asrwt>0</asrwt>
<pdfrwt beam="1">  1       21 0.68751685E-02 0.38990347E+03</pdfrwt>
<pdfrwt beam="2">  1       21 0.11955095E+00 0.38990347E+03</pdfrwt>
<totfact> 0.77695348E+04</totfact>
</mgrwt>
</event>
<event>
 7    0  0.4750554E-002  0.4280652E+03  0.7546771E-02  0.1034473E+00
         21   -1    0    0  502  501  0.00000000000E+00  0.00000000000E+00  0.15130520997E+03  0.15130520997E+03  0.00000000000E+00 0. -1.
         21   -1    0    0  501  502 -0.00000000000E+00 -0.00000000000E+00 -0.30276517718E+03  0.30276517718E+03  0.00000000000E+00 0. -1.
      99926    2    1    2    0    0  0.71054273576E-14 -0.88817841970E-15 -0.15145996722E+03  0.45407038715E+03  0.42806517590E+03 0.  0.
      99925    2    3    3    0    0  0.35607487868E+02 -0.47739132476E+01 -0.15577644548E+02  0.26591567115E+03  0.26301672516E+03 0.  0.
         25    1    4    4    0    0  0.54855683156E+02  0.24252341991E+01  0.85297936951E+01  0.13687692726E+03  0.12509000000E+03 0.  0.
         25    1    4    4    0    0 -0.19248195287E+02 -0.71991474467E+01 -0.24107438243E+02  0.12903874389E+03  0.12509000000E+03 0.  0.
         25    1    3    3    0    0 -0.35607487868E+02  0.47739132476E+01 -0.13588232267E+03  0.18815471600E+03  0.12509000000E+03 0.  0.
<mgrwt>
<rscale>  2 0.42806518E+03</rscale>
<asrwt>0</asrwt>
<pdfrwt beam="1">  1       21 0.22250766E-01 0.42806518E+03</pdfrwt>
<pdfrwt beam="2">  1       21 0.44524291E-01 0.42806518E+03</pdfrwt>
<totfact> 0.85502350E+04</totfact>
</mgrwt>
</event>
<event>
 7    0  0.4750554E-002  0.4669521E+03  0.7546771E-02  0.1022784E+00
         21   -1    0    0  502  501  0.00000000000E+00  0.00000000000E+00  0.10662789619E+03  0.10662789619E+03  0.00000000000E+00 0. -1.
         21   -1    0    0  501  502 -0.00000000000E+00 -0.00000000000E+00 -0.51122705191E+03  0.51122705191E+03  0.00000000000E+00 0. -1.
      99926    2    1    2    0    0  0.00000000000E+00 -0.35527136788E-14 -0.40459915573E+03  0.61785494810E+03  0.46695209613E+03 0.  0.
      99925    2    3    3    0    0 -0.75181709628E+02 -0.22722764844E+02 -0.37881100463E+03  0.46791779346E+03  0.26321221609E+03 0.  0.
         25    1    4    4    0    0 -0.25150587927E+02 -0.35586711518E+02 -0.13544010569E+03  0.18944787262E+03  0.12509000000E+03 0.  0.
         25    1    3    3    0    0  0.75181709628E+02  0.22722764844E+02 -0.25788151097E+02  0.14993715464E+03  0.12509000000E+03 0.  0.
         25    1    4    4    0    0 -0.50031121701E+02  0.12863946674E+02 -0.24337089894E+03  0.27846992084E+03  0.12509000000E+03 0.  0.
<mgrwt>
<rscale>  2 0.46695210E+03</rscale>
<asrwt>0</asrwt>
<pdfrwt beam="1">  1       21 0.15680573E-01 0.46695210E+03</pdfrwt>
<pdfrwt beam="2">  1       21 0.75180450E-01 0.46695210E+03</pdfrwt>
<totfact> 0.52462240E+04</totfact>
</mgrwt>
</event>
<event>
 7    0  0.4750554E-002  0.4665873E+03  0.7546771E-02  0.1022888E+00
         21   -1    0    0  502  501  0.00000000000E+00  0.00000000000E+00  0.36797902672E+03  0.36797902672E+03  0.00000000000E+00 0. -1.
         21   -1    0    0  501  502 -0.00000000000E+00 -0.00000000000E+00 -0.14790495854E+03  0.14790495854E+03  0.00000000000E+00 0. -1.
      99926    2    1    2    0    0  0.14210854715E-13  0.00000000000E+00  0.22007406819E+03  0.51588398526E+03  0.46658728097E+03 0.  0.
      99925    2    3    3    0    0 -0.11844397787E+03 -0.30975633399E+02  0.11751720216E+03  0.31301978283E+03  0.26302590344E+03 0.  0.
         25    1    4    4    0    0 -0.57575025435E+02 -0.78467600181E+00  0.98711228133E+02  0.16943114805E+03  0.12509000000E+03 0.  0.
         25    1    3    3    0    0  0.11844397787E+03  0.30975633399E+02  0.10255686603E+03  0.20286420243E+03  0.12509000000E+03 0.  0.
         25    1    4    4    0    0 -0.60868952438E+02 -0.30190957397E+02  0.18805974027E+02  0.14358863478E+03  0.12509000000E+03 0.  0.
<mgrwt>
<rscale>  2 0.46658728E+03</rscale>
<asrwt>0</asrwt>
<pdfrwt beam="1">  1       21 0.54114563E-01 0.46658728E+03</pdfrwt>
<pdfrwt beam="2">  1       21 0.21750729E-01 0.46658728E+03</pdfrwt>
<totfact> 0.58592094E+04</totfact>
</mgrwt>
</event>
<event>
 7    0  0.4750554E-002  0.4623386E+03  0.7546771E-02  0.1024105E+00
         21   -1    0    0  502  501  0.00000000000E+00  0.00000000000E+00  0.66130486271E+03  0.66130486271E+03  0.00000000000E+00 0.  1.
         21   -1    0    0  501  502 -0.00000000000E+00 -0.00000000000E+00 -0.80808771827E+02  0.80808771827E+02  0.00000000000E+00 0.  1.
      99926    2    1    2    0    0  0.00000000000E+00 -0.71054273576E-14  0.58049609088E+03  0.74211363454E+03  0.46233855024E+03 0.  0.
      99925    2    3    3    0    0  0.10160491584E+03 -0.63942719687E+02  0.35509080452E+03  0.45774190327E+03  0.26272788247E+03 0.  0.
         25    1    4    4    0    0  0.14333393538E+02 -0.75214822758E+01  0.16102983958E+03  0.20454861574E+03  0.12509000000E+03 0.  0.
         25    1    4    4    0    0  0.87271522303E+02 -0.56421237411E+02  0.19406096494E+03  0.25319328753E+03  0.12509000000E+03 0.  0.
         25    1    3    3    0    0 -0.10160491584E+03  0.63942719687E+02  0.22540528636E+03  0.28437173127E+03  0.12509000000E+03 0.  0.
<mgrwt>
<rscale>  2 0.46233855E+03</rscale>
<asrwt>0</asrwt>
<pdfrwt beam="1">  1       21 0.97250712E-01 0.46233855E+03</pdfrwt>
<pdfrwt beam="2">  1       21 0.11883643E-01 0.46233855E+03</pdfrwt>
<totfact> 0.47854350E+04</totfact>
</mgrwt>
</event>
<event>
 7    0  0.4750554E-002  0.4637857E+03  0.7546771E-02  0.1023689E+00
         21   -1    0    0  502  501  0.00000000000E+00  0.00000000000E+00  0.78369749221E+02  0.78369749221E+02  0.00000000000E+00 0. -1.
         21   -1    0    0  501  502 -0.00000000000E+00 -0.00000000000E+00 -0.68616131532E+03  0.68616131532E+03  0.00000000000E+00 0. -1.
      99926    2    1    2    0    0  0.14210854715E-13  0.71054273576E-14 -0.60779156610E+03  0.76453106454E+03  0.46378568415E+03 0.  0.
      99925    2    3    3    0    0 -0.11124465717E+03  0.46587802300E+02 -0.39963278489E+03  0.49337910831E+03  0.26300339292E+03 0.  0.
         25    1    3    3    0    0  0.11124465717E+03 -0.46587802300E+02 -0.20815878121E+03  0.27115195623E+03  0.12509000000E+03 0.  0.
         25    1    4    4    0    0 -0.16402873668E+02  0.14439180613E+02 -0.14743463213E+03  0.19458166166E+03  0.12509000000E+03 0.  0.
         25    1    4    4    0    0 -0.94841783499E+02  0.32148621687E+02 -0.25219815275E+03  0.29879744665E+03  0.12509000000E+03 0.  0.
<mgrwt>
<rscale>  2 0.46378568E+03</rscale>
<asrwt>0</asrwt>
<pdfrwt beam="1">  1       21 0.11524963E-01 0.46378568E+03</pdfrwt>
<pdfrwt beam="2">  1       21 0.10090608E+00 0.46378568E+03</pdfrwt>
<totfact> 0.46254232E+04</totfact>
</mgrwt>
</event>
<event>
 7    0  0.4750554E-002  0.4439802E+03  0.7546771E-02  0.1029533E+00
         21   -1    0    0  502  501  0.00000000000E+00  0.00000000000E+00  0.19319427367E+03  0.19319427367E+03  0.00000000000E+00 0.  1.
         21   -1    0    0  501  502 -0.00000000000E+00 -0.00000000000E+00 -0.25507802365E+03  0.25507802365E+03  0.00000000000E+00 0.  1.
      99926    2    1    2    0    0  0.14210854715E-13  0.00000000000E+00 -0.61883749983E+02  0.44827229731E+03  0.44398024058E+03 0.  0.
      99925    2    3    3    0    0 -0.80078744147E+02  0.21819506284E+02  0.21143677535E+02  0.27672126135E+03  0.26313286619E+03 0.  0.
         25    1    3    3    0    0  0.80078744147E+02 -0.21819506284E+02 -0.83027427517E+02  0.17155103596E+03  0.12509000000E+03 0.  0.
         25    1    4    4    0    0 -0.54117818648E+02  0.28308788898E+02  0.45604225152E+02  0.14648337542E+03  0.12509000000E+03 0.  0.
         25    1    4    4    0    0 -0.25960925499E+02 -0.64892826138E+01 -0.24460547617E+02  0.13023788593E+03  0.12509000000E+03 0.  0.
<mgrwt>
<rscale>  2 0.44398024E+03</rscale>
<asrwt>0</asrwt>
<pdfrwt beam="1">  1       21 0.28410923E-01 0.44398024E+03</pdfrwt>
<pdfrwt beam="2">  1       21 0.37511474E-01 0.44398024E+03</pdfrwt>
<totfact> 0.75460422E+04</totfact>
</mgrwt>
</event>
<event>
 7    0  0.4750554E-002  0.4602800E+03  0.7546771E-02  0.1024700E+00
         21   -1    0    0  502  501  0.00000000000E+00  0.00000000000E+00  0.49438860742E+03  0.49438860742E+03  0.00000000000E+00 0.  1.
         21   -1    0    0  501  502 -0.00000000000E+00 -0.00000000000E+00 -0.10713113296E+03  0.10713113296E+03  0.00000000000E+00 0.  1.
      99926    2    1    2    0    0  0.00000000000E+00  0.00000000000E+00  0.38725747446E+03  0.60151974039E+03  0.46027996540E+03 0.  0.
      99925    2    3    3    0    0 -0.32644164093E+02 -0.68800662886E+02  0.12462535094E+03  0.30081670903E+03  0.26298296841E+03 0.  0.
         25    1    4    4    0    0 -0.33507904103E+02 -0.58786931360E+02  0.97484416624E+02  0.17242216366E+03  0.12509000000E+03 0.  0.
         25    1    3    3    0    0  0.32644164093E+02  0.68800662886E+02  0.26263212352E+03  0.30070303136E+03  0.12509000000E+03 0.  0.
         25    1    4    4    0    0  0.86374000962E+00 -0.10013731526E+02  0.27140934318E+02  0.12839454537E+03  0.12509000000E+03 0.  0.
<mgrwt>
<rscale>  2 0.46027997E+03</rscale>
<asrwt>0</asrwt>
<pdfrwt beam="1">  1       21 0.72704206E-01 0.46027997E+03</pdfrwt>
<pdfrwt beam="2">  1       21 0.15754579E-01 0.46027997E+03</pdfrwt>
<totfact> 0.56203203E+04</totfact>
</mgrwt>
</event>
<event>
 7    0  0.4750554E-002  0.4544598E+03  0.7546771E-02  0.1026400E+00
         21   -1    0    0  502  501  0.00000000000E+00  0.00000000000E+00  0.26254980088E+03  0.26254980088E+03  0.00000000000E+00 0. -1.
         21   -1    0    0  501  502 -0.00000000000E+00 -0.00000000000E+00 -0.19666143228E+03  0.19666143228E+03  0.00000000000E+00 0. -1.
      99926    2    1    2    0    0  0.00000000000E+00 -0.71054273576E-14  0.65888368598E+02  0.45921123316E+03  0.45445976669E+03 0.  0.
      99925    2    3    3    0    0  0.79715014340E+02 -0.61779671368E+02  0.92161961364E+02  0.29639532152E+03  0.26303069819E+03 0.  0.
         25    1    4    4    0    0  0.22992286119E+02 -0.52461041863E+02  0.14519679004E+02  0.13834426375E+03  0.12509000000E+03 0.  0.
         25    1    4    4    0    0  0.56722728221E+02 -0.93186295046E+01  0.77642282360E+02  0.15805105777E+03  0.12509000000E+03 0.  0.
         25    1    3    3    0    0 -0.79715014340E+02  0.61779671368E+02 -0.26273592765E+02  0.16281591164E+03  0.12509000000E+03 0.  0.
<mgrwt>
<rscale>  2 0.45445977E+03</rscale>
<asrwt>0</asrwt>
<pdfrwt beam="1">  1       21 0.38610265E-01 0.45445977E+03</pdfrwt>
<pdfrwt beam="2">  1       21 0.28920799E-01 0.45445977E+03</pdfrwt>
<totfact> 0.68532874E+04</totfact>
</mgrwt>
</event>
<event>
 7    0  0.4750554E-002  0.4615467E+03  0.7546771E-02  0.1024334E+00
         21   -1    0    0  502  501  0.00000000000E+00  0.00000000000E+00  0.84015598273E+02  0.84015598273E+02  0.00000000000E+00 0.  1.
         21   -1    0    0  501  502 -0.00000000000E+00 -0.00000000000E+00 -0.63388634340E+03  0.63388634340E+03  0.00000000000E+00 0.  1.
      99926    2    1    2    0    0  0.00000000000E+00  0.00000000000E+00 -0.54987074513E+03  0.71790194168E+03  0.46154670567E+03 0.  0.
      99925    2    3    3    0    0 -0.57130540444E+02 -0.10375557592E+03 -0.36596607458E+03  0.46591473141E+03  0.26289969764E+03 0.  0.
         25    1    3    3    0    0  0.57130540444E+02  0.10375557592E+03 -0.18390467055E+03  0.25198721026E+03  0.12509000000E+03 0.  0.
         25    1    4    4    0    0 -0.53283708249E+02 -0.19260365452E+02 -0.17729592979E+03  0.22425759756E+03  0.12509000000E+03 0.  0.
         25    1    4    4    0    0 -0.38468321956E+01 -0.84495210465E+02 -0.18867014479E+03  0.24165713385E+03  0.12509000000E+03 0.  0.
<mgrwt>
<rscale>  2 0.46154671E+03</rscale>
<asrwt>0</asrwt>
<pdfrwt beam="1">  1       21 0.12355235E-01 0.46154671E+03</pdfrwt>
<pdfrwt beam="2">  1       21 0.93218580E-01 0.46154671E+03</pdfrwt>
<totfact> 0.49350821E+04</totfact>
</mgrwt>
</event>
<event>
 7    0  0.4750554E-002  0.4550363E+03  0.7546771E-02  0.1026231E+00
         21   -1    0    0  502  501  0.00000000000E+00  0.00000000000E+00  0.60717108471E+03  0.60717108471E+03  0.00000000000E+00 0.  1.
         21   -1    0    0  501  502 -0.00000000000E+00 -0.00000000000E+00 -0.85255233090E+02  0.85255233090E+02  0.00000000000E+00 0.  1.
      99926    2    1    2    0    0  0.00000000000E+00  0.35527136788E-14  0.52191585162E+03  0.69242631780E+03  0.45503631659E+03 0.  0.
      99925    2    3    3    0    0  0.11215921636E+03 -0.13375053456E+02  0.31645031723E+03  0.42667798612E+03  0.26297284783E+03 0.  0.
         25    1    3    3    0    0 -0.11215921636E+03  0.13375053456E+02  0.20546553440E+03  0.26574833168E+03  0.12509000000E+03 0.  0.
         25    1    4    4    0    0  0.81644600054E+02  0.15433239700E+02  0.13228683573E+03  0.20012831037E+03  0.12509000000E+03 0.  0.
         25    1    4    4    0    0  0.30514616303E+02 -0.28808293157E+02  0.18416348150E+03  0.22654967575E+03  0.12509000000E+03 0.  0.
<mgrwt>
<rscale>  2 0.45503632E+03</rscale>
<asrwt>0</asrwt>
<pdfrwt beam="1">  1       21 0.89289863E-01 0.45503632E+03</pdfrwt>
<pdfrwt beam="2">  1       21 0.12537535E-01 0.45503632E+03</pdfrwt>
<totfact> 0.53300916E+04</totfact>
</mgrwt>
</event>
<event>
 7    0  0.4750554E-002  0.4570391E+03  0.7546771E-02  0.1025643E+00
         21   -1    0    0  502  501  0.00000000000E+00  0.00000000000E+00  0.23107005908E+03  0.23107005908E+03  0.00000000000E+00 0.  1.
         21   -1    0    0  501  502 -0.00000000000E+00 -0.00000000000E+00 -0.22599715140E+03  0.22599715140E+03  0.00000000000E+00 0.  1.
      99926    2    1    2    0    0  0.00000000000E+00  0.00000000000E+00  0.50729076834E+01  0.45706721048E+03  0.45703905796E+03 0.  0.
      99925    2    3    3    0    0  0.51230361866E+02  0.23154047328E+02  0.10266763291E+03  0.28874342019E+03  0.26395351858E+03 0.  0.
         25    1    4    4    0    0  0.14521742693E+02 -0.73409789835E+01  0.88540704249E+02  0.15411598033E+03  0.12509000000E+03 0.  0.
         25    1    3    3    0    0 -0.51230361866E+02 -0.23154047328E+02 -0.97594725225E+02  0.16832379029E+03  0.12509000000E+03 0.  0.
         25    1    4    4    0    0  0.36708619173E+02  0.30495026312E+02  0.14126928659E+02  0.13462743987E+03  0.12509000000E+03 0.  0.
<mgrwt>
<rscale>  2 0.45703906E+03</rscale>
<asrwt>0</asrwt>
<pdfrwt beam="1">  1       21 0.33980891E-01 0.45703906E+03</pdfrwt>
<pdfrwt beam="2">  1       21 0.33234875E-01 0.45703906E+03</pdfrwt>
<totfact> 0.67293103E+04</totfact>
</mgrwt>
</event>
<event>
 7    0  0.4750554E-002  0.4568334E+03  0.7546771E-02  0.1025704E+00
         21   -1    0    0  502  501  0.00000000000E+00  0.00000000000E+00  0.70889484738E+02  0.70889484738E+02  0.00000000000E+00 0. -1.
         21   -1    0    0  501  502 -0.00000000000E+00 -0.00000000000E+00 -0.73599322662E+03  0.73599322662E+03  0.00000000000E+00 0. -1.
      99926    2    1    2    0    0  0.00000000000E+00 -0.35527136788E-14 -0.66510374188E+03  0.80688271136E+03  0.45683336396E+03 0.  0.
      99925    2    3    3    0    0 -0.78600602089E+01  0.17629663971E+02 -0.21793771257E+03  0.34214886122E+03  0.26305210714E+03 0.  0.
         25    1    3    3    0    0  0.78600602089E+01 -0.17629663971E+02 -0.44716602931E+03  0.46473385014E+03  0.12509000000E+03 0.  0.
         25    1    4    4    0    0 -0.19890079469E+02 -0.26945319830E+02 -0.12170016229E+03  0.17770791519E+03  0.12509000000E+03 0.  0.
         25    1    4    4    0    0  0.12030019260E+02  0.44574983801E+02 -0.96237550287E+02  0.16444094602E+03  0.12509000000E+03 0.  0.
<mgrwt>
<rscale>  2 0.45683336E+03</rscale>
<asrwt>0</asrwt>
<pdfrwt beam="1">  1       21 0.10424924E-01 0.45683336E+03</pdfrwt>
<pdfrwt beam="2">  1       21 0.10823430E+00 0.45683336E+03</pdfrwt>
<totfact> 0.46757356E+04</totfact>
</mgrwt>
</event>
<event>
 7    0  0.4750554E-002  0.4342686E+03  0.7546771E-02  0.1032520E+00
         21   -1    0    0  502  501  0.00000000000E+00  0.00000000000E+00  0.29014225251E+02  0.29014225251E+02  0.00000000000E+00 0.  1.
         21   -1    0    0  501  502 -0.00000000000E+00 -0.00000000000E+00 -0.16249717179E+04  0.16249717179E+04  0.00000000000E+00 0.  1.
      99926    2    1    2    0    0  0.00000000000E+00  0.00000000000E+00 -0.15959574927E+04  0.16539859432E+04  0.43426855954E+03 0.  0.
      99925    2    3    3    0    0  0.83341850226E+01  0.83892871250E+02 -0.11680359286E+04  0.12002549154E+04  0.26305219806E+03 0.  0.
         25    1    4    4    0    0  0.11924470725E+02  0.64156648957E+02 -0.76067762638E+03  0.77365123149E+03  0.12509000000E+03 0.  0.
         25    1    3    3    0    0 -0.83341850226E+01 -0.83892871250E+02 -0.42792156403E+03  0.45373102776E+03  0.12509000000E+03 0.  0.
         25    1    4    4    0    0 -0.35902857024E+01  0.19736222293E+02 -0.40735830226E+03  0.42660368393E+03  0.12509000000E+03 0.  0.
<mgrwt>
<rscale>  2 0.43426856E+03</rscale>
<asrwt>0</asrwt>
<pdfrwt beam="1">  1       21 0.42667974E-02 0.43426856E+03</pdfrwt>
<pdfrwt beam="2">  1       21 0.23896645E+00 0.43426856E+03</pdfrwt>
<totfact> 0.23851468E+04</totfact>
</mgrwt>
</event>
<event>
 7    0  0.4750554E-002  0.4599174E+03  0.7546771E-02  0.1024805E+00
         21   -1    0    0  502  501  0.00000000000E+00  0.00000000000E+00  0.40381656476E+03  0.40381656476E+03  0.00000000000E+00 0.  1.
         21   -1    0    0  501  502 -0.00000000000E+00 -0.00000000000E+00 -0.13095303240E+03  0.13095303240E+03  0.00000000000E+00 0.  1.
      99926    2    1    2    0    0  0.71054273576E-14  0.00000000000E+00  0.27286353236E+03  0.53476959716E+03  0.45991739993E+03 0.  0.
      99925    2    3    3    0    0  0.56447472255E+02  0.10261368691E+03  0.15480169383E+03  0.32667829104E+03  0.26275322179E+03 0.  0.
         25    1    4    4    0    0  0.28351178300E+02  0.34698306502E+02  0.32174877931E+02  0.13671317660E+03  0.12509000000E+03 0.  0.
         25    1    3    3    0    0 -0.56447472255E+02 -0.10261368691E+03  0.11806183853E+03  0.20809130612E+03  0.12509000000E+03 0.  0.
         25    1    4    4    0    0  0.28096293955E+02  0.67915380405E+02  0.12262681590E+03  0.18996511445E+03  0.12509000000E+03 0.  0.
<mgrwt>
<rscale>  2 0.45991740E+03</rscale>
<asrwt>0</asrwt>
<pdfrwt beam="1">  1       21 0.59384789E-01 0.45991740E+03</pdfrwt>
<pdfrwt beam="2">  1       21 0.19257799E-01 0.45991740E+03</pdfrwt>
<totfact> 0.60492584E+04</totfact>
</mgrwt>
</event>
<event>
 7    0  0.4750554E-002  0.4551748E+03  0.7546771E-02  0.1026190E+00
         21   -1    0    0  502  501  0.00000000000E+00  0.00000000000E+00  0.57796105006E+02  0.57796105006E+02  0.00000000000E+00 0.  1.
         21   -1    0    0  501  502 -0.00000000000E+00 -0.00000000000E+00 -0.89618555314E+03  0.89618555314E+03  0.00000000000E+00 0.  1.
      99926    2    1    2    0    0  0.00000000000E+00  0.00000000000E+00 -0.83838944813E+03  0.95398165814E+03  0.45517484260E+03 0.  0.
      99925    2    3    3    0    0  0.10287340970E+03 -0.45429323120E+02 -0.55570834193E+03  0.62503959984E+03  0.26308929710E+03 0.  0.
         25    1    4    4    0    0  0.59599789276E+02 -0.52405539909E+02 -0.23221741912E+03  0.27544675227E+03  0.12509000000E+03 0.  0.
         25    1    3    3    0    0 -0.10287340970E+03  0.45429323120E+02 -0.28268110620E+03  0.32894205831E+03  0.12509000000E+03 0.  0.
         25    1    4    4    0    0  0.43273620420E+02  0.69762167884E+01 -0.32349092282E+03  0.34959284757E+03  0.12509000000E+03 0.  0.
<mgrwt>
<rscale>  2 0.45517484E+03</rscale>
<asrwt>0</asrwt>
<pdfrwt beam="1">  1       21 0.84994275E-02 0.45517484E+03</pdfrwt>
<pdfrwt beam="2">  1       21 0.13179199E+00 0.45517484E+03</pdfrwt>
<totfact> 0.40924030E+04</totfact>
</mgrwt>
</event>
<event>
 7    0  0.4750554E-002  0.4568025E+03  0.7546771E-02  0.1025713E+00
         21   -1    0    0  502  501  0.00000000000E+00  0.00000000000E+00  0.26782246064E+03  0.26782246064E+03  0.00000000000E+00 0.  1.
         21   -1    0    0  501  502 -0.00000000000E+00 -0.00000000000E+00 -0.19478252036E+03  0.19478252036E+03  0.00000000000E+00 0.  1.
      99926    2    1    2    0    0  0.00000000000E+00 -0.35527136788E-14  0.73039940273E+02  0.46260498100E+03  0.45680251266E+03 0.  0.
      99925    2    3    3    0    0  0.78955017439E+02  0.14390712645E+02  0.12908347105E+03  0.30376741355E+03  0.26300401451E+03 0.  0.
         25    1    4    4    0    0  0.20902395927E+02  0.35792193970E+02  0.38108438913E+02  0.13717781352E+03  0.12509000000E+03 0.  0.
         25    1    4    4    0    0  0.58052621513E+02 -0.21401481325E+02  0.90975032141E+02  0.16658960004E+03  0.12509000000E+03 0.  0.
         25    1    3    3    0    0 -0.78955017439E+02 -0.14390712645E+02 -0.56043530782E+02  0.15883756744E+03  0.12509000000E+03 0.  0.
<mgrwt>
<rscale>  2 0.45680251E+03</rscale>
<asrwt>0</asrwt>
<pdfrwt beam="1">  1       21 0.39385656E-01 0.45680251E+03</pdfrwt>
<pdfrwt beam="2">  1       21 0.28644488E-01 0.45680251E+03</pdfrwt>
<totfact> 0.67022511E+04</totfact>
</mgrwt>
</event>
<event>
 7    0  0.4750554E-002  0.4648434E+03  0.7546771E-02  0.1023386E+00
         21   -1    0    0  502  501  0.00000000000E+00  0.00000000000E+00  0.29171654002E+03  0.29171654002E+03  0.00000000000E+00 0.  1.
         21   -1    0    0  501  502 -0.00000000000E+00 -0.00000000000E+00 -0.18517925657E+03  0.18517925657E+03  0.00000000000E+00 0.  1.
      99926    2    1    2    0    0  0.00000000000E+00  0.00000000000E+00  0.10653728344E+03  0.47689579659E+03  0.46484342315E+03 0.  0.
      99925    2    3    3    0    0 -0.80494811999E+02 -0.71979162713E+02  0.12519718037E+03  0.31059452036E+03  0.26293384621E+03 0.  0.
         25    1    4    4    0    0 -0.50244806552E+02 -0.54932137816E+02  0.10436598671E+03  0.17911406319E+03  0.12509000000E+03 0.  0.
         25    1    4    4    0    0 -0.30250005446E+02 -0.17047024897E+02  0.20831193654E+02  0.13148045717E+03  0.12509000000E+03 0.  0.
         25    1    3    3    0    0  0.80494811999E+02  0.71979162713E+02 -0.18659896923E+02  0.16630127623E+03  0.12509000000E+03 0.  0.
<mgrwt>
<rscale>  2 0.46484342E+03</rscale>
<asrwt>0</asrwt>
<pdfrwt beam="1">  1       21 0.42899491E-01 0.46484342E+03</pdfrwt>
<pdfrwt beam="2">  1       21 0.27232244E-01 0.46484342E+03</pdfrwt>
<totfact> 0.61945791E+04</totfact>
</mgrwt>
</event>
<event>
 7    0  0.4750554E-002  0.4475749E+03  0.7546771E-02  0.1028448E+00
         21   -1    0    0  502  501  0.00000000000E+00  0.00000000000E+00  0.76262000055E+03  0.76262000055E+03  0.00000000000E+00 0. -1.
         21   -1    0    0  501  502 -0.00000000000E+00 -0.00000000000E+00 -0.65669425095E+02  0.65669425095E+02  0.00000000000E+00 0. -1.
      99926    2    1    2    0    0  0.00000000000E+00 -0.14210854715E-13  0.69695057545E+03  0.82828942564E+03  0.44757487419E+03 0.  0.
      99925    2    3    3    0    0 -0.30334962379E+02 -0.10167363851E+03  0.44451116445E+03  0.52723975692E+03  0.26293316118E+03 0.  0.
         25    1    3    3    0    0  0.30334962379E+02  0.10167363851E+03  0.25243941100E+03  0.30104966872E+03  0.12509000000E+03 0.  0.
         25    1    4    4    0    0 -0.57288179436E+01 -0.84872316004E+01  0.20423039912E+03  0.23971319630E+03  0.12509000000E+03 0.  0.
         25    1    4    4    0    0 -0.24606144435E+02 -0.93186406907E+02  0.24028076533E+03  0.28752656062E+03  0.12509000000E+03 0.  0.
<mgrwt>
<rscale>  2 0.44757487E+03</rscale>
<asrwt>0</asrwt>
<pdfrwt beam="1">  1       21 0.11214999E+00 0.44757487E+03</pdfrwt>
<pdfrwt beam="2">  1       21 0.96572689E-02 0.44757487E+03</pdfrwt>
<totfact> 0.49232907E+04</totfact>
</mgrwt>
</event>
<event>
 7    0  0.4750554E-002  0.4572251E+03  0.7546771E-02  0.1025589E+00
         21   -1    0    0  502  501  0.00000000000E+00  0.00000000000E+00  0.27215158432E+03  0.27215158432E+03  0.00000000000E+00 0.  1.
         21   -1    0    0  501  502 -0.00000000000E+00 -0.00000000000E+00 -0.19203892521E+03  0.19203892521E+03  0.00000000000E+00 0.  1.
      99926    2    1    2    0    0  0.00000000000E+00  0.00000000000E+00  0.80112659113E+02  0.46419050953E+03  0.45722509882E+03 0.  0.
      99925    2    3    3    0    0  0.56718393896E+02 -0.96025916335E+02  0.25572490598E+02  0.28795177685E+03  0.26424291987E+03 0.  0.
         25    1    4    4    0    0  0.52885440141E+02 -0.56413756464E+02  0.48177974407E+02  0.15475143623E+03  0.12509000000E+03 0.  0.
         25    1    4    4    0    0  0.38329537552E+01 -0.39612159870E+02 -0.22605483809E+02  0.13320034062E+03  0.12509000000E+03 0.  0.
         25    1    3    3    0    0 -0.56718393896E+02  0.96025916335E+02  0.54540168515E+02  0.17623873268E+03  0.12509000000E+03 0.  0.
<mgrwt>
<rscale>  2 0.45722510E+03</rscale>
<asrwt>0</asrwt>
<pdfrwt beam="1">  1       21 0.40022292E-01 0.45722510E+03</pdfrwt>
<pdfrwt beam="2">  1       21 0.28241018E-01 0.45722510E+03</pdfrwt>
<totfact> 0.66682919E+04</totfact>
</mgrwt>
</event>
<event>
 7    0  0.4750554E-002  0.4405846E+03  0.7546771E-02  0.1030568E+00
         21   -1    0    0  502  501  0.00000000000E+00  0.00000000000E+00  0.49736834091E+02  0.49736834091E+02  0.00000000000E+00 0. -1.
         21   -1    0    0  501  502 -0.00000000000E+00 -0.00000000000E+00 -0.97570963362E+03  0.97570963362E+03  0.00000000000E+00 0. -1.
      99926    2    1    2    0    0  0.35527136788E-14 -0.88817841970E-15 -0.92597279953E+03  0.10254464677E+04  0.44058464870E+03 0.  0.
      99925    2    3    3    0    0  0.17825630709E+02  0.77475098326E+01 -0.81673930658E+03  0.85824227787E+03  0.26294283711E+03 0.  0.
         25    1    3    3    0    0 -0.17825630709E+02 -0.77475098326E+01 -0.10923349294E+03  0.16720418984E+03  0.12509000000E+03 0.  0.
         25    1    4    4    0    0  0.17233388567E+01 -0.34155237801E+02 -0.36462640786E+03  0.38700061444E+03  0.12509000000E+03 0.  0.
         25    1    4    4    0    0  0.16102291852E+02  0.41902747633E+02 -0.45211289872E+03  0.47124166343E+03  0.12509000000E+03 0.  0.
<mgrwt>
<rscale>  2 0.44058465E+03</rscale>
<asrwt>0</asrwt>
<pdfrwt beam="1">  1       21 0.73142412E-02 0.44058465E+03</pdfrwt>
<pdfrwt beam="2">  1       21 0.14348669E+00 0.44058465E+03</pdfrwt>
<totfact> 0.42810344E+04</totfact>
</mgrwt>
</event>
<event>
 7    0  0.4750554E-002  0.4570287E+03  0.7546771E-02  0.1025647E+00
         21   -1    0    0  502  501  0.00000000000E+00  0.00000000000E+00  0.14876497544E+03  0.14876497544E+03  0.00000000000E+00 0.  1.
         21   -1    0    0  501  502 -0.00000000000E+00 -0.00000000000E+00 -0.35101551058E+03  0.35101551058E+03  0.00000000000E+00 0.  1.
      99926    2    1    2    0    0  0.00000000000E+00  0.14210854715E-13 -0.20225053514E+03  0.49978048602E+03  0.45702872475E+03 0.  0.
      99925    2    3    3    0    0  0.29401542486E+02 -0.10938677921E+03 -0.10501428275E+03  0.30501828475E+03  0.26301755889E+03 0.  0.
         25    1    4    4    0    0 -0.11851309509E+02 -0.74261427659E+02 -0.28559943624E+02  0.14872253244E+03  0.12509000000E+03 0.  0.
         25    1    3    3    0    0 -0.29401542486E+02  0.10938677921E+03 -0.97236252384E+02  0.19476220127E+03  0.12509000000E+03 0.  0.
         25    1    4    4    0    0  0.41252851996E+02 -0.35125351547E+02 -0.76454339131E+02  0.15629575231E+03  0.12509000000E+03 0.  0.
<mgrwt>
<rscale>  2 0.45702872E+03</rscale>
<asrwt>0</asrwt>
<pdfrwt beam="1">  1       21 0.21877203E-01 0.45702872E+03</pdfrwt>
<pdfrwt beam="2">  1       21 0.51619927E-01 0.45702872E+03</pdfrwt>
<totfact> 0.64245201E+04</totfact>
</mgrwt>
</event>
<event>
 7    0  0.4750554E-002  0.4543291E+03  0.7546771E-02  0.1026439E+00
         21   -1    0    0  502  501  0.00000000000E+00  0.00000000000E+00  0.97846669383E+02  0.97846669383E+02  0.00000000000E+00 0.  1.
         21   -1    0    0  501  502 -0.00000000000E+00 -0.00000000000E+00 -0.52739381186E+03  0.52739381186E+03  0.00000000000E+00 0.  1.
      99926    2    1    2    0    0  0.00000000000E+00  0.00000000000E+00 -0.42954714248E+03  0.62524048124E+03  0.45432907873E+03 0.  0.
      99925    2    3    3    0    0  0.73718770020E+02  0.62003814006E+02 -0.19038516973E+03  0.33866608024E+03  0.26300051529E+03 0.  0.
         25    1    4    4    0    0  0.53014786372E+02  0.57810801168E+02 -0.13564491212E+03  0.20049864486E+03  0.12509000000E+03 0.  0.
         25    1    3    3    0    0 -0.73718770020E+02 -0.62003814006E+02 -0.23916197275E+03  0.28657440101E+03  0.12509000000E+03 0.  0.
         25    1    4    4    0    0  0.20703983648E+02  0.41930128377E+01 -0.54740257606E+02  0.13816743538E+03  0.12509000000E+03 0.  0.
<mgrwt>
<rscale>  2 0.45432908E+03</rscale>
<asrwt>0</asrwt>
<pdfrwt beam="1">  1       21 0.14389216E-01 0.45432908E+03</pdfrwt>
<pdfrwt beam="2">  1       21 0.77557915E-01 0.45432908E+03</pdfrwt>
<totfact> 0.57454673E+04</totfact>
</mgrwt>
</event>
<event>
 7    0  0.4750554E-002  0.4541267E+03  0.7546771E-02  0.1026499E+00
         21   -1    0    0  502  501  0.00000000000E+00  0.00000000000E+00  0.33461605829E+03  0.33461605829E+03  0.00000000000E+00 0.  1.
         21   -1    0    0  501  502 -0.00000000000E+00 -0.00000000000E+00 -0.15408035990E+03  0.15408035990E+03  0.00000000000E+00 0.  1.
      99926    2    1    2    0    0  0.00000000000E+00 -0.14210854715E-13  0.18053569838E+03  0.48869641819E+03  0.45412669021E+03 0.  0.
      99925    2    3    3    0    0 -0.52423315678E+02 -0.95511133168E+02  0.83646175895E+02  0.29658793776E+03  0.26286335138E+03 0.  0.
         25    1    4    4    0    0 -0.52120009661E+02 -0.52107825768E+02  0.11101885804E+02  0.14561071692E+03  0.12509000000E+03 0.  0.
         25    1    3    3    0    0  0.52423315678E+02  0.95511133168E+02  0.96889522490E+02  0.19210848043E+03  0.12509000000E+03 0.  0.
         25    1    4    4    0    0 -0.30330601706E+00 -0.43403307400E+02  0.72544290090E+02  0.15097722084E+03  0.12509000000E+03 0.  0.
<mgrwt>
<rscale>  2 0.45412669E+03</rscale>
<asrwt>0</asrwt>
<pdfrwt beam="1">  1       21 0.49208244E-01 0.45412669E+03</pdfrwt>
<pdfrwt beam="2">  1       21 0.22658877E-01 0.45412669E+03</pdfrwt>
<totfact> 0.66532374E+04</totfact>
</mgrwt>
</event>
<event>
 7    0  0.4750554E-002  0.4521429E+03  0.7546771E-02  0.1027085E+00
         21   -1    0    0  502  501  0.00000000000E+00  0.00000000000E+00  0.62821223450E+03  0.62821223450E+03  0.00000000000E+00 0.  1.
         21   -1    0    0  501  502 -0.00000000000E+00 -0.00000000000E+00 -0.81355162004E+02  0.81355162004E+02  0.00000000000E+00 0.  1.
      99926    2    1    2    0    0  0.00000000000E+00  0.17763568394E-14  0.54685707250E+03  0.70956739651E+03  0.45214293364E+03 0.  0.
      99925    2    3    3    0    0  0.95553906017E+02 -0.11908024763E+02  0.42989063245E+03  0.51309600875E+03  0.26303841605E+03 0.  0.
         25    1    4    4    0    0  0.83366332589E+02 -0.23211487048E+02  0.20567635823E+03  0.25581045908E+03  0.12509000000E+03 0.  0.
         25    1    3    3    0    0 -0.95553906017E+02  0.11908024763E+02  0.11696644005E+03  0.19647138775E+03  0.12509000000E+03 0.  0.
         25    1    4    4    0    0  0.12187573428E+02  0.11303462285E+02  0.22421427422E+03  0.25728554967E+03  0.12509000000E+03 0.  0.
<mgrwt>
<rscale>  2 0.45214293E+03</rscale>
<asrwt>0</asrwt>
<pdfrwt beam="1">  1       21 0.92384150E-01 0.45214293E+03</pdfrwt>
<pdfrwt beam="2">  1       21 0.11963995E-01 0.45214293E+03</pdfrwt>
<totfact> 0.53580898E+04</totfact>
</mgrwt>
</event>
<event>
 7    0  0.4750554E-002  0.4571620E+03  0.7546771E-02  0.1025608E+00
         21   -1    0    0  502  501  0.00000000000E+00  0.00000000000E+00  0.52025943035E+03  0.52025943035E+03  0.00000000000E+00 0.  1.
         21   -1    0    0  501  502 -0.00000000000E+00 -0.00000000000E+00 -0.10042926671E+03  0.10042926671E+03  0.00000000000E+00 0.  1.
      99926    2    1    2    0    0 -0.28421709430E-13  0.00000000000E+00  0.41983016364E+03  0.62068869707E+03  0.45716199795E+03 0.  0.
      99925    2    3    3    0    0  0.94931637274E+02 -0.47503529377E+02  0.20304789439E+03  0.34882354406E+03  0.26302246371E+03 0.  0.
         25    1    4    4    0    0  0.29612167339E+02 -0.85975912935E+01  0.13752778532E+03  0.18844680646E+03  0.12509000000E+03 0.  0.
         25    1    4    4    0    0  0.65319469936E+02 -0.38905938084E+02  0.65520109072E+02  0.16037673760E+03  0.12509000000E+03 0.  0.
         25    1    3    3    0    0 -0.94931637274E+02  0.47503529377E+02  0.21678226925E+03  0.27186515301E+03  0.12509000000E+03 0.  0.
<mgrwt>
<rscale>  2 0.45716200E+03</rscale>
<asrwt>0</asrwt>
<pdfrwt beam="1">  1       21 0.76508739E-01 0.45716200E+03</pdfrwt>
<pdfrwt beam="2">  1       21 0.14769010E-01 0.45716200E+03</pdfrwt>
<totfact> 0.56452602E+04</totfact>
</mgrwt>
</event>
<event>
 7    0  0.4750554E-002  0.4605818E+03  0.7546771E-02  0.1024613E+00
         21   -1    0    0  502  501  0.00000000000E+00  0.00000000000E+00  0.14851100936E+03  0.14851100936E+03  0.00000000000E+00 0. -1.
         21   -1    0    0  501  502 -0.00000000000E+00 -0.00000000000E+00 -0.35710416620E+03  0.35710416620E+03  0.00000000000E+00 0. -1.
      99926    2    1    2    0    0  0.00000000000E+00  0.00000000000E+00 -0.20859315684E+03  0.50561517555E+03  0.46058180670E+03 0.  0.
      99925    2    3    3    0    0 -0.13495382832E+02  0.20275836734E+02 -0.33333677550E+01  0.26401152486E+03  0.26286448791E+03 0.  0.
         25    1    4    4    0    0  0.15106674960E+02 -0.23670354582E+02  0.28646250514E+01  0.12823498544E+03  0.12509000000E+03 0.  0.
         25    1    3    3    0    0  0.13495382832E+02 -0.20275836734E+02 -0.20525978909E+03  0.24160365069E+03  0.12509000000E+03 0.  0.
         25    1    4    4    0    0 -0.28602057792E+02  0.43946191316E+02 -0.61979928064E+01  0.13577653942E+03  0.12509000000E+03 0.  0.
<mgrwt>
<rscale>  2 0.46058181E+03</rscale>
<asrwt>0</asrwt>
<pdfrwt beam="1">  1       21 0.21839854E-01 0.46058181E+03</pdfrwt>
<pdfrwt beam="2">  1       21 0.52515318E-01 0.46058181E+03</pdfrwt>
<totfact> 0.62081395E+04</totfact>
</mgrwt>
</event>
<event>
 7    0  0.4750554E-002  0.4501319E+03  0.7546771E-02  0.1027683E+00
         21   -1    0    0  502  501  0.00000000000E+00  0.00000000000E+00  0.30764824133E+03  0.30764824133E+03  0.00000000000E+00 0. -1.
         21   -1    0    0  501  502 -0.00000000000E+00 -0.00000000000E+00 -0.16465131453E+03  0.16465131453E+03  0.00000000000E+00 0. -1.
      99926    2    1    2    0    0  0.00000000000E+00  0.00000000000E+00  0.14299692680E+03  0.47229955586E+03  0.45013192443E+03 0.  0.
      99925    2    3    3    0    0  0.59757669509E+02  0.45840376311E+02  0.83461174981E+01  0.27367763433E+03  0.26297808025E+03 0.  0.
         25    1    4    4    0    0  0.85696083890E+01  0.57217718553E+02  0.77646078905E+01  0.13804022146E+03  0.12509000000E+03 0.  0.
         25    1    3    3    0    0 -0.59757669509E+02 -0.45840376311E+02  0.13465080930E+03  0.19862192153E+03  0.12509000000E+03 0.  0.
         25    1    4    4    0    0  0.51188061120E+02 -0.11377342242E+02  0.58150960760E+00  0.13563741287E+03  0.12509000000E+03 0.  0.
<mgrwt>
<rscale>  2 0.45013192E+03</rscale>
<asrwt>0</asrwt>
<pdfrwt beam="1">  1       21 0.45242388E-01 0.45013192E+03</pdfrwt>
<pdfrwt beam="2">  1       21 0.24213429E-01 0.45013192E+03</pdfrwt>
<totfact> 0.69927741E+04</totfact>
</mgrwt>
</event>
<event>
 7    0  0.4750554E-002  0.4542373E+03  0.7546771E-02  0.1026466E+00
         21   -1    0    0  502  501  0.00000000000E+00  0.00000000000E+00  0.17761455367E+03  0.17761455367E+03  0.00000000000E+00 0.  1.
         21   -1    0    0  501  502 -0.00000000000E+00 -0.00000000000E+00 -0.29042040888E+03  0.29042040888E+03  0.00000000000E+00 0.  1.
      99926    2    1    2    0    0 -0.71054273576E-14  0.00000000000E+00 -0.11280585521E+03  0.46803496255E+03  0.45423734457E+03 0.  0.
      99925    2    3    3    0    0  0.56234098845E+02  0.76375842896E+02 -0.13323474808E+03  0.30973022158E+03  0.26303187794E+03 0.  0.
         25    1    4    4    0    0 -0.10688910131E+02  0.50202676868E+02 -0.69307489925E+02  0.15193945447E+03  0.12509000000E+03 0.  0.
         25    1    4    4    0    0  0.66923008976E+02  0.26173166028E+02 -0.63927258153E+02  0.15779076711E+03  0.12509000000E+03 0.  0.
         25    1    3    3    0    0 -0.56234098845E+02 -0.76375842896E+02  0.20428892867E+02  0.15830474097E+03  0.12509000000E+03 0.  0.
<mgrwt>
<rscale>  2 0.45423734E+03</rscale>
<asrwt>0</asrwt>
<pdfrwt beam="1">  1       21 0.26119788E-01 0.45423734E+03</pdfrwt>
<pdfrwt beam="2">  1       21 0.42708883E-01 0.45423734E+03</pdfrwt>
<totfact> 0.67992619E+04</totfact>
</mgrwt>
</event>
<event>
 7    0  0.4750554E-002  0.4675356E+03  0.7546771E-02  0.1022618E+00
         21   -1    0    0  502  501  0.00000000000E+00  0.00000000000E+00  0.86249848458E+02  0.86249848458E+02  0.00000000000E+00 0.  1.
         21   -1    0    0  501  502 -0.00000000000E+00 -0.00000000000E+00 -0.63359403791E+03  0.63359403791E+03  0.00000000000E+00 0.  1.
      99926    2    1    2    0    0  0.00000000000E+00  0.00000000000E+00 -0.54734418945E+03  0.71984388637E+03  0.46753562326E+03 0.  0.
      99925    2    3    3    0    0 -0.98321329772E+02  0.58078155688E+02 -0.41721060193E+03  0.50624984442E+03  0.26302863447E+03 0.  0.
         25    1    4    4    0    0 -0.49249961182E+02  0.13751860965E+02 -0.13751781518E+03  0.19280386394E+03  0.12509000000E+03 0.  0.
         25    1    4    4    0    0 -0.49071368590E+02  0.44326294723E+02 -0.27969278675E+03  0.31344598048E+03  0.12509000000E+03 0.  0.
         25    1    3    3    0    0  0.98321329772E+02 -0.58078155688E+02 -0.13013358752E+03  0.21359404195E+03  0.12509000000E+03 0.  0.
<mgrwt>
<rscale>  2 0.46753562E+03</rscale>
<asrwt>0</asrwt>
<pdfrwt beam="1">  1       21 0.12683801E-01 0.46753562E+03</pdfrwt>
<pdfrwt beam="2">  1       21 0.93175593E-01 0.46753562E+03</pdfrwt>
<totfact> 0.47027313E+04</totfact>
</mgrwt>
</event>
<event>
 7    0  0.4750554E-002  0.4619483E+03  0.7546771E-02  0.1024218E+00
         21   -1    0    0  502  501  0.00000000000E+00  0.00000000000E+00  0.71330201515E+03  0.71330201515E+03  0.00000000000E+00 0. -1.
         21   -1    0    0  501  502 -0.00000000000E+00 -0.00000000000E+00 -0.74791678556E+02  0.74791678556E+02  0.00000000000E+00 0. -1.
      99926    2    1    2    0    0  0.00000000000E+00  0.00000000000E+00  0.63851033659E+03  0.78809369370E+03  0.46194828728E+03 0.  0.
      99925    2    3    3    0    0 -0.59071807790E+02  0.81361136125E+02  0.50940869150E+03  0.58212317199E+03  0.26317495977E+03 0.  0.
         25    1    4    4    0    0 -0.37690170093E+02  0.82529927528E+02  0.26654581868E+03  0.30810050214E+03  0.12509000000E+03 0.  0.
         25    1    4    4    0    0 -0.21381637697E+02 -0.11687914033E+01  0.24286287281E+03  0.27402266986E+03  0.12509000000E+03 0.  0.
         25    1    3    3    0    0  0.59071807790E+02 -0.81361136125E+02  0.12910164509E+03  0.20597052171E+03  0.12509000000E+03 0.  0.
<mgrwt>
<rscale>  2 0.46194829E+03</rscale>
<asrwt>0</asrwt>
<pdfrwt beam="1">  1       21 0.10489735E+00 0.46194829E+03</pdfrwt>
<pdfrwt beam="2">  1       21 0.10998777E-01 0.46194829E+03</pdfrwt>
<totfact> 0.45797095E+04</totfact>
</mgrwt>
</event>
<event>
 7    0  0.4750554E-002  0.4543588E+03  0.7546771E-02  0.1026430E+00
         21   -1    0    0  502  501  0.00000000000E+00  0.00000000000E+00  0.28592665420E+03  0.28592665420E+03  0.00000000000E+00 0. -1.
         21   -1    0    0  501  502 -0.00000000000E+00 -0.00000000000E+00 -0.18050252634E+03  0.18050252634E+03  0.00000000000E+00 0. -1.
      99926    2    1    2    0    0 -0.71054273576E-14 -0.71054273576E-14  0.10542412786E+03  0.46642918054E+03  0.45435881606E+03 0.  0.
      99925    2    3    3    0    0  0.48160779716E+02  0.53550861922E+02  0.15514681122E+03  0.31376284877E+03  0.26303885022E+03 0.  0.
         25    1    3    3    0    0 -0.48160779716E+02 -0.53550861922E+02 -0.49722683363E+02  0.15266633177E+03  0.12509000000E+03 0.  0.
         25    1    4    4    0    0  0.25108173737E+02 -0.14524254463E+02  0.75877676249E+02  0.14915195007E+03  0.12509000000E+03 0.  0.
         25    1    4    4    0    0  0.23052605979E+02  0.68075116385E+02  0.79269134973E+02  0.16461089871E+03  0.12509000000E+03 0.  0.
<mgrwt>
<rscale>  2 0.45435882E+03</rscale>
<asrwt>0</asrwt>
<pdfrwt beam="1">  1       21 0.42048037E-01 0.45435882E+03</pdfrwt>
<pdfrwt beam="2">  1       21 0.26544489E-01 0.45435882E+03</pdfrwt>
<totfact> 0.68047904E+04</totfact>
</mgrwt>
</event>
<event>
 7    0  0.4750554E-002  0.4506913E+03  0.7546771E-02  0.1027516E+00
         21   -1    0    0  502  501  0.00000000000E+00  0.00000000000E+00  0.39689036083E+03  0.39689036083E+03  0.00000000000E+00 0. -1.
         21   -1    0    0  501  502 -0.00000000000E+00 -0.00000000000E+00 -0.12794631424E+03  0.12794631424E+03  0.00000000000E+00 0. -1.
      99926    2    1    2    0    0  0.00000000000E+00  0.00000000000E+00  0.26894404659E+03  0.52483667507E+03  0.45069128603E+03 0.  0.
      99925    2    3    3    0    0 -0.58552307227E+02 -0.59392069964E+02  0.25171918632E+03  0.37350923352E+03  0.26304145701E+03 0.  0.
         25    1    4    4    0    0 -0.13703528041E+02 -0.15699277409E+02  0.72209792477E+02  0.14593154635E+03  0.12509000000E+03 0.  0.
         25    1    4    4    0    0 -0.44848779186E+02 -0.43692792555E+02  0.17950939385E+03  0.22757768716E+03  0.12509000000E+03 0.  0.
         25    1    3    3    0    0  0.58552307227E+02  0.59392069964E+02  0.17224860266E+02  0.15132744155E+03  0.12509000000E+03 0.  0.
<mgrwt>
<rscale>  2 0.45069129E+03</rscale>
<asrwt>0</asrwt>
<pdfrwt beam="1">  1       21 0.58366229E-01 0.45069129E+03</pdfrwt>
<pdfrwt beam="2">  1       21 0.18815635E-01 0.45069129E+03</pdfrwt>
<totfact> 0.65775338E+04</totfact>
</mgrwt>
</event>
<event>
 7    0  0.4750554E-002  0.4519525E+03  0.7546771E-02  0.1027141E+00
         21   -1    0    0  502  501  0.00000000000E+00  0.00000000000E+00  0.41110475543E+03  0.41110475543E+03  0.00000000000E+00 0. -1.
         21   -1    0    0  501  502 -0.00000000000E+00 -0.00000000000E+00 -0.12421474834E+03  0.12421474834E+03  0.00000000000E+00 0. -1.
      99926    2    1    2    0    0 -0.35527136788E-14 -0.71054273576E-14  0.28689000709E+03  0.53531950377E+03  0.45195253617E+03 0.  0.
      99925    2    3    3    0    0 -0.25977385655E+02 -0.47535940445E+02  0.29486161265E+03  0.39877081357E+03  0.26294543339E+03 0.  0.
         25    1    4    4    0    0 -0.22366963170E+02 -0.60703085128E+02  0.13255730345E+03  0.19340137637E+03  0.12509000000E+03 0.  0.
         25    1    3    3    0    0  0.25977385655E+02  0.47535940445E+02 -0.79716055575E+01  0.13654869020E+03  0.12509000000E+03 0.  0.
         25    1    4    4    0    0 -0.36104224852E+01  0.13167144682E+02  0.16230430921E+03  0.20536943720E+03  0.12509000000E+03 0.  0.
<mgrwt>
<rscale>  2 0.45195254E+03</rscale>
<asrwt>0</asrwt>
<pdfrwt beam="1">  1       21 0.60456581E-01 0.45195254E+03</pdfrwt>
<pdfrwt beam="2">  1       21 0.18266875E-01 0.45195254E+03</pdfrwt>
<totfact> 0.64386165E+04</totfact>
</mgrwt>
</event>
<event>
 6    0  0.4750554E-002  0.4538207E+03  0.7546771E-02  0.1026589E+00
         21   -1    0    0  502  501  0.00000000000E+00  0.00000000000E+00  0.43141164444E+03  0.43141164444E+03  0.00000000000E+00 0. -1.
         21   -1    0    0  501  502 -0.00000000000E+00 -0.00000000000E+00 -0.11934845939E+03  0.11934845939E+03  0.00000000000E+00 0. -1.
      99926    2    1    2    0    0  0.14210854715E-13  0.00000000000E+00  0.31206318505E+03  0.55076010383E+03  0.45382073609E+03 0.  0.
         25    1    3    3    0    0 -0.26845132910E+02  0.38519896746E+02  0.14859888167E+03  0.19983387936E+03  0.12509000000E+03 0.  0.
         25    1    3    3    0    0  0.76044281668E+02 -0.79585333067E+02  0.62894309924E+02  0.17810042205E+03  0.12509000000E+03 0.  0.
         25    1    3    3    0    0 -0.49199148758E+02  0.41065436321E+02  0.10056999346E+03  0.17282580242E+03  0.12509000000E+03 0.  0.
<mgrwt>
<rscale>  2 0.45382074E+03</rscale>
<asrwt>0</asrwt>
<pdfrwt beam="1">  1       21 0.63442888E-01 0.45382074E+03</pdfrwt>
<pdfrwt beam="2">  1       21 0.17551244E-01 0.45382074E+03</pdfrwt>
<totfact> 0.62396437E+04</totfact>
</mgrwt>
</event>
<event>
 7    0  0.4750554E-002  0.4532724E+03  0.7546771E-02  0.1026751E+00
         21   -1    0    0  502  501  0.00000000000E+00  0.00000000000E+00  0.32749616281E+02  0.32749616281E+02  0.00000000000E+00 0. -1.
         21   -1    0    0  501  502 -0.00000000000E+00 -0.00000000000E+00 -0.15683837048E+04  0.15683837048E+04  0.00000000000E+00 0. -1.
      99926    2    1    2    0    0  0.71054273576E-14 -0.88817841970E-15 -0.15356340886E+04  0.16011333211E+04  0.45327238837E+03 0.  0.
      99925    2    3    3    0    0  0.56654290183E+02  0.21382440475E+01 -0.62913243461E+03  0.68428707589E+03  0.26311005543E+03 0.  0.
         25    1    3    3    0    0 -0.56654290183E+02 -0.21382440475E+01 -0.90650165396E+03  0.91684624524E+03  0.12509000000E+03 0.  0.
         25    1    4    4    0    0 -0.11413322003E+02  0.11944380085E+02 -0.28124799195E+03  0.30825455911E+03  0.12509000000E+03 0.  0.
         25    1    4    4    0    0  0.68067612186E+02 -0.98061360378E+01 -0.34788444266E+03  0.37603251679E+03  0.12509000000E+03 0.  0.
<mgrwt>
<rscale>  2 0.45327239E+03</rscale>
<asrwt>0</asrwt>
<pdfrwt beam="1">  1       21 0.48161185E-02 0.45327239E+03</pdfrwt>
<pdfrwt beam="2">  1       21 0.23064474E+00 0.45327239E+03</pdfrwt>
<totfact> 0.21693738E+04</totfact>
</mgrwt>
</event>
<event>
 7    0  0.4750554E-002  0.4564514E+03  0.7546771E-02  0.1025815E+00
         21   -1    0    0  502  501  0.00000000000E+00  0.00000000000E+00  0.33670708098E+03  0.33670708098E+03  0.00000000000E+00 0.  1.
         21   -1    0    0  501  502 -0.00000000000E+00 -0.00000000000E+00 -0.15469518897E+03  0.15469518897E+03  0.00000000000E+00 0.  1.
      99926    2    1    2    0    0  0.00000000000E+00  0.00000000000E+00  0.18201189201E+03  0.49140226995E+03  0.45645137976E+03 0.  0.
      99925    2    3    3    0    0 -0.95889990515E+02 -0.28239586322E+02  0.17448877124E+03  0.33110108479E+03  0.26303846211E+03 0.  0.
         25    1    4    4    0    0 -0.27338162252E+02  0.20184668954E+02  0.65970728141E+02  0.14544566356E+03  0.12509000000E+03 0.  0.
         25    1    4    4    0    0 -0.68551828263E+02 -0.48424255276E+02  0.10851804310E+03  0.18565542124E+03  0.12509000000E+03 0.  0.
         25    1    3    3    0    0  0.95889990515E+02  0.28239586322E+02  0.75231207713E+01  0.16030118516E+03  0.12509000000E+03 0.  0.
<mgrwt>
<rscale>  2 0.45645138E+03</rscale>
<asrwt>0</asrwt>
<pdfrwt beam="1">  1       21 0.49515747E-01 0.45645138E+03</pdfrwt>
<pdfrwt beam="2">  1       21 0.22749293E-01 0.45645138E+03</pdfrwt>
<totfact> 0.65125378E+04</totfact>
</mgrwt>
</event>
<event>
 7    0  0.4750554E-002  0.4321141E+03  0.7546771E-02  0.1033194E+00
         21   -1    0    0  502  501  0.00000000000E+00  0.00000000000E+00  0.23623329855E+02  0.23623329855E+02  0.00000000000E+00 0.  1.
         21   -1    0    0  501  502 -0.00000000000E+00 -0.00000000000E+00 -0.19760397431E+04  0.19760397431E+04  0.00000000000E+00 0.  1.
      99926    2    1    2    0    0  0.00000000000E+00  0.00000000000E+00 -0.19524164133E+04  0.19996630730E+04  0.43211405281E+03 0.  0.
      99925    2    3    3    0    0 -0.72551465826E+02 -0.42858095323E+02 -0.11087628909E+04  0.11426337237E+04  0.26297556330E+03 0.  0.
         25    1    4    4    0    0 -0.40512109112E+02 -0.82779355657E+01 -0.70829844279E+03  0.72044704688E+03  0.12509000000E+03 0.  0.
         25    1    4    4    0    0 -0.32039356714E+02 -0.34580159757E+02 -0.40046444809E+03  0.42218667685E+03  0.12509000000E+03 0.  0.
         25    1    3    3    0    0  0.72551465826E+02  0.42858095323E+02 -0.84365352240E+03  0.85702934925E+03  0.12509000000E+03 0.  0.
<mgrwt>
<rscale>  2 0.43211405E+03</rscale>
<asrwt>0</asrwt>
<pdfrwt beam="1">  1       21 0.34740203E-02 0.43211405E+03</pdfrwt>
<pdfrwt beam="2">  1       21 0.29059398E+00 0.43211405E+03</pdfrwt>
<totfact> 0.16449201E+04</totfact>
</mgrwt>
</event>
<event>
 7    0  0.4750554E-002  0.4582893E+03  0.7546771E-02  0.1025279E+00
         21   -1    0    0  502  501  0.00000000000E+00  0.00000000000E+00  0.54486615445E+03  0.54486615445E+03  0.00000000000E+00 0. -1.
         21   -1    0    0  501  502 -0.00000000000E+00 -0.00000000000E+00 -0.96367264912E+02  0.96367264912E+02  0.00000000000E+00 0. -1.
      99926    2    1    2    0    0  0.00000000000E+00  0.00000000000E+00  0.44849888954E+03  0.64123341937E+03  0.45828925821E+03 0.  0.
      99925    2    3    3    0    0  0.94226584198E+02  0.27748328518E+02  0.36829849497E+03  0.46310922029E+03  0.26301663373E+03 0.  0.
         25    1    4    4    0    0  0.46818718144E+01  0.57955711839E+01  0.15993133501E+03  0.20317738207E+03  0.12509000000E+03 0.  0.
         25    1    4    4    0    0  0.89544712383E+02  0.21952757334E+02  0.20836715996E+03  0.25993183822E+03  0.12509000000E+03 0.  0.
         25    1    3    3    0    0 -0.94226584198E+02 -0.27748328518E+02  0.80200394574E+02  0.17812419907E+03  0.12509000000E+03 0.  0.
<mgrwt>
<rscale>  2 0.45828926E+03</rscale>
<asrwt>0</asrwt>
<pdfrwt beam="1">  1       21 0.80127374E-01 0.45828926E+03</pdfrwt>
<pdfrwt beam="2">  1       21 0.14171657E-01 0.45828926E+03</pdfrwt>
<totfact> 0.54773712E+04</totfact>
</mgrwt>
</event>
<event>
 7    0  0.4750554E-002  0.4521645E+03  0.7546771E-02  0.1027079E+00
         21   -1    0    0  502  501  0.00000000000E+00  0.00000000000E+00  0.27787548964E+02  0.27787548964E+02  0.00000000000E+00 0. -1.
         21   -1    0    0  501  502 -0.00000000000E+00 -0.00000000000E+00 -0.18394272869E+04  0.18394272869E+04  0.00000000000E+00 0. -1.
      99926    2    1    2    0    0  0.44408920985E-15  0.00000000000E+00 -0.18116397379E+04  0.18672148358E+04  0.45216446477E+03 0.  0.
      99925    2    3    3    0    0 -0.26979154909E+01 -0.45239479438E+02 -0.72721066872E+03  0.77465462997E+03  0.26305997374E+03 0.  0.
         25    1    4    4    0    0  0.57415772778E+01 -0.40502472205E+02 -0.47595091328E+03  0.49381190337E+03  0.12509000000E+03 0.  0.
         25    1    3    3    0    0  0.26979154909E+01  0.45239479438E+02 -0.10844290692E+04  0.10925602059E+04  0.12509000000E+03 0.  0.
         25    1    4    4    0    0 -0.84394927687E+01 -0.47370072325E+01 -0.25125975545E+03  0.28084272660E+03  0.12509000000E+03 0.  0.
<mgrwt>
<rscale>  2 0.45216446E+03</rscale>
<asrwt>0</asrwt>
<pdfrwt beam="1">  1       21 0.40864047E-02 0.45216446E+03</pdfrwt>
<pdfrwt beam="2">  1       21 0.27050398E+00 0.45216446E+03</pdfrwt>
<totfact> 0.16358362E+04</totfact>
</mgrwt>
</event>
<event>
 7    0  0.4750554E-002  0.4698918E+03  0.7546771E-02  0.1021951E+00
         21   -1    0    0  502  501  0.00000000000E+00  0.00000000000E+00  0.10721545792E+04  0.10721545792E+04  0.00000000000E+00 0.  1.
         21   -1    0    0  501  502 -0.00000000000E+00 -0.00000000000E+00 -0.51484707500E+02  0.51484707500E+02  0.00000000000E+00 0.  1.
      99926    2    1    2    0    0  0.88817841970E-15 -0.14210854715E-13  0.10206698717E+04  0.11236392867E+04  0.46989175308E+03 0.  0.
      99925    2    3    3    0    0  0.73993120071E+01 -0.12416940000E+03  0.69048343114E+03  0.74928199300E+03  0.26302727357E+03 0.  0.
         25    1    4    4    0    0 -0.20596605705E+02 -0.67238483730E+02  0.26618781354E+03  0.30240485121E+03  0.12509000000E+03 0.  0.
         25    1    3    3    0    0 -0.73993120071E+01  0.12416940000E+03  0.33018644054E+03  0.37435729368E+03  0.12509000000E+03 0.  0.
         25    1    4    4    0    0  0.27995917712E+02 -0.56930916272E+02  0.42429561760E+03  0.44687714179E+03  0.12509000000E+03 0.  0.
<mgrwt>
<rscale>  2 0.46989175E+03</rscale>
<asrwt>0</asrwt>
<pdfrwt beam="1">  1       21 0.15766978E+00 0.46989175E+03</pdfrwt>
<pdfrwt beam="2">  1       21 0.75712812E-02 0.46989175E+03</pdfrwt>
<totfact> 0.30925436E+04</totfact>
</mgrwt>
</event>
<event>
 7    0  0.4750554E-002  0.4271654E+03  0.7546771E-02  0.1034759E+00
         21   -1    0    0  502  501  0.00000000000E+00  0.00000000000E+00  0.51015014876E+03  0.51015014876E+03  0.00000000000E+00 0. -1.
         21   -1    0    0  501  502 -0.00000000000E+00 -0.00000000000E+00 -0.89419884561E+02  0.89419884561E+02  0.00000000000E+00 0. -1.
      99926    2    1    2    0    0  0.00000000000E+00  0.00000000000E+00  0.42073026420E+03  0.59957003332E+03  0.42716538910E+03 0.  0.
      99925    2    3    3    0    0  0.42970802664E+02  0.45166454068E+02  0.35200409601E+03  0.44382250445E+03  0.26303047997E+03 0.  0.
         25    1    4    4    0    0  0.42324020340E+02  0.17796955320E+01  0.22169500559E+03  0.25805168788E+03  0.12509000000E+03 0.  0.
         25    1    3    3    0    0 -0.42970802664E+02 -0.45166454068E+02  0.68726168188E+02  0.15574752887E+03  0.12509000000E+03 0.  0.
         25    1    4    4    0    0  0.64678232373E+00  0.43386758536E+02  0.13030909042E+03  0.18577081657E+03  0.12509000000E+03 0.  0.
<mgrwt>
<rscale>  2 0.42716539E+03</rscale>
<asrwt>0</asrwt>
<pdfrwt beam="1">  1       21 0.75022079E-01 0.42716539E+03</pdfrwt>
<pdfrwt beam="2">  1       21 0.13149983E-01 0.42716539E+03</pdfrwt>
<totfact> 0.73603395E+04</totfact>
</mgrwt>
</event>
<event>
 7    0  0.4750554E-002  0.4532942E+03  0.7546771E-02  0.1026744E+00
         21   -1    0    0  502  501  0.00000000000E+00  0.00000000000E+00  0.65551401592E+03  0.65551401592E+03  0.00000000000E+00 0.  1.
         21   -1    0    0  501  502 -0.00000000000E+00 -0.00000000000E+00 -0.78364329241E+02  0.78364329241E+02  0.00000000000E+00 0.  1.
      99926    2    1    2    0    0 -0.71054273576E-14  0.00000000000E+00  0.57714968668E+03  0.73387834516E+03  0.45329423630E+03 0.  0.
      99925    2    3    3    0    0  0.42411395196E+02 -0.76099661769E+02  0.25100792180E+03  0.37387022878E+03  0.26302867942E+03 0.  0.
         25    1    4    4    0    0  0.23296044727E+02 -0.24506719564E+01  0.14607322860E+03  0.19373592260E+03  0.12509000000E+03 0.  0.
         25    1    4    4    0    0  0.19115350470E+02 -0.73648989813E+02  0.10493469320E+03  0.18013430617E+03  0.12509000000E+03 0.  0.
         25    1    3    3    0    0 -0.42411395196E+02  0.76099661769E+02  0.32614176488E+03  0.36000811639E+03  0.12509000000E+03 0.  0.
<mgrwt>
<rscale>  2 0.45329424E+03</rscale>
<asrwt>0</asrwt>
<pdfrwt beam="1">  1       21 0.96399117E-01 0.45329424E+03</pdfrwt>
<pdfrwt beam="2">  1       21 0.11524166E-01 0.45329424E+03</pdfrwt>
<totfact> 0.51793063E+04</totfact>
</mgrwt>
</event>
<event>
 7    0  0.4750554E-002  0.4600541E+03  0.7546771E-02  0.1024766E+00
         21   -1    0    0  502  501  0.00000000000E+00  0.00000000000E+00  0.23784193838E+03  0.23784193838E+03  0.00000000000E+00 0.  1.
         21   -1    0    0  501  502 -0.00000000000E+00 -0.00000000000E+00 -0.22246898563E+03  0.22246898563E+03  0.00000000000E+00 0.  1.
      99926    2    1    2    0    0  0.00000000000E+00  0.00000000000E+00  0.15372952757E+02  0.46031092401E+03  0.46005414800E+03 0.  0.
      99925    2    3    3    0    0 -0.70221969970E+02  0.66921199691E+02 -0.57304383066E+02  0.28612976752E+03  0.26301497963E+03 0.  0.
         25    1    3    3    0    0  0.70221969970E+02 -0.66921199691E+02  0.72677335823E+02  0.17418115649E+03  0.12509000000E+03 0.  0.
         25    1    4    4    0    0 -0.63369876001E+02  0.56469274567E+02 -0.53508956571E+02  0.16035971030E+03  0.12509000000E+03 0.  0.
         25    1    4    4    0    0 -0.68520939689E+01  0.10451925124E+02 -0.37954264943E+01  0.12577005722E+03  0.12509000000E+03 0.  0.
<mgrwt>
<rscale>  2 0.46005415E+03</rscale>
<asrwt>0</asrwt>
<pdfrwt beam="1">  1       21 0.34976756E-01 0.46005415E+03</pdfrwt>
<pdfrwt beam="2">  1       21 0.32716027E-01 0.46005415E+03</pdfrwt>
<totfact> 0.65477862E+04</totfact>
</mgrwt>
</event>
<event>
 7    0  0.4750554E-002  0.4599457E+03  0.7546771E-02  0.1024797E+00
         21   -1    0    0  502  501  0.00000000000E+00  0.00000000000E+00  0.46647751997E+03  0.46647751997E+03  0.00000000000E+00 0. -1.
         21   -1    0    0  501  502 -0.00000000000E+00 -0.00000000000E+00 -0.11337631395E+03  0.11337631395E+03  0.00000000000E+00 0. -1.
      99926    2    1    2    0    0  0.00000000000E+00  0.00000000000E+00  0.35310120602E+03  0.57985383392E+03  0.45994565660E+03 0.  0.
      99925    2    3    3    0    0  0.34626580764E+02 -0.78947559265E+02  0.12013840312E+03  0.30173354908E+03  0.26301745479E+03 0.  0.
         25    1    4    4    0    0  0.31830875925E+02 -0.74821352751E+02  0.84988901276E+02  0.17170340978E+03  0.12509000000E+03 0.  0.
         25    1    3    3    0    0 -0.34626580764E+02  0.78947559265E+02  0.23296280290E+03  0.27812028485E+03  0.12509000000E+03 0.  0.
         25    1    4    4    0    0  0.27957048392E+01 -0.41262065145E+01  0.35149501848E+02  0.13003013930E+03  0.12509000000E+03 0.  0.
<mgrwt>
<rscale>  2 0.45994566E+03</rscale>
<asrwt>0</asrwt>
<pdfrwt beam="1">  1       21 0.68599635E-01 0.45994566E+03</pdfrwt>
<pdfrwt beam="2">  1       21 0.16672987E-01 0.45994566E+03</pdfrwt>
<totfact> 0.57648453E+04</totfact>
</mgrwt>
</event>
<event>
 7    0  0.4750554E-002  0.4561001E+03  0.7546771E-02  0.1025918E+00
         21   -1    0    0  502  501  0.00000000000E+00  0.00000000000E+00  0.36469450624E+03  0.36469450624E+03  0.00000000000E+00 0.  1.
         21   -1    0    0  501  502 -0.00000000000E+00 -0.00000000000E+00 -0.14260382074E+03  0.14260382074E+03  0.00000000000E+00 0.  1.
      99926    2    1    2    0    0  0.00000000000E+00  0.00000000000E+00  0.22209068550E+03  0.50729832697E+03  0.45610012055E+03 0.  0.
      99925    2    3    3    0    0  0.54048681046E+02  0.84571645867E+02  0.20016104581E+03  0.34542788370E+03  0.26302538922E+03 0.  0.
         25    1    4    4    0    0  0.46059493833E+02  0.29071205053E+02  0.58954719073E+02  0.14862630634E+03  0.12509000000E+03 0.  0.
         25    1    4    4    0    0  0.79891872130E+01  0.55500440813E+02  0.14120632674E+03  0.19680157736E+03  0.12509000000E+03 0.  0.
         25    1    3    3    0    0 -0.54048681046E+02 -0.84571645867E+02  0.21929639694E+02  0.16187044327E+03  0.12509000000E+03 0.  0.
<mgrwt>
<rscale>  2 0.45610012E+03</rscale>
<asrwt>0</asrwt>
<pdfrwt beam="1">  1       21 0.53631545E-01 0.45610012E+03</pdfrwt>
<pdfrwt beam="2">  1       21 0.20971150E-01 0.45610012E+03</pdfrwt>
<totfact> 0.64198522E+04</totfact>
</mgrwt>
</event>
<event>
 7    0  0.4750554E-002  0.4333623E+03  0.7546771E-02  0.1032803E+00
         21   -1    0    0  502  501  0.00000000000E+00  0.00000000000E+00  0.36221156439E+03  0.36221156439E+03  0.00000000000E+00 0.  1.
         21   -1    0    0  501  502 -0.00000000000E+00 -0.00000000000E+00 -0.12962237261E+03  0.12962237261E+03  0.00000000000E+00 0.  1.
      99926    2    1    2    0    0  0.00000000000E+00  0.00000000000E+00  0.23258919178E+03  0.49183393699E+03  0.43336230737E+03 0.  0.
      99925    2    3    3    0    0  0.37060511724E+02 -0.74865794655E+02  0.19175066831E+03  0.33596969530E+03  0.26292384568E+03 0.  0.
         25    1    4    4    0    0 -0.14212712663E+02 -0.53759832010E+02  0.74943201648E+02  0.15606444923E+03  0.12509000000E+03 0.  0.
         25    1    3    3    0    0 -0.37060511724E+02  0.74865794655E+02  0.40838523466E+02  0.15586424169E+03  0.12509000000E+03 0.  0.
         25    1    4    4    0    0  0.51273224387E+02 -0.21105962645E+02  0.11680746666E+03  0.17990524608E+03  0.12509000000E+03 0.  0.
<mgrwt>
<rscale>  2 0.43336231E+03</rscale>
<asrwt>0</asrwt>
<pdfrwt beam="1">  1       21 0.53266406E-01 0.43336231E+03</pdfrwt>
<pdfrwt beam="2">  1       21 0.19062114E-01 0.43336231E+03</pdfrwt>
<totfact> 0.78486077E+04</totfact>
</mgrwt>
</event>
<event>
 7    0  0.4750554E-002  0.4580909E+03  0.7546771E-02  0.1025336E+00
         21   -1    0    0  502  501  0.00000000000E+00  0.00000000000E+00  0.30545199544E+03  0.30545199544E+03  0.00000000000E+00 0.  1.
         21   -1    0    0  501  502 -0.00000000000E+00 -0.00000000000E+00 -0.17175142784E+03  0.17175142784E+03  0.00000000000E+00 0.  1.
      99926    2    1    2    0    0  0.14210854715E-13  0.71054273576E-14  0.13370056761E+03  0.47720342328E+03  0.45809089209E+03 0.  0.
      99925    2    3    3    0    0  0.10239963330E+03  0.54032491506E+02  0.76268690373E+02  0.29733924213E+03  0.26303710145E+03 0.  0.
         25    1    4    4    0    0  0.14178828356E+02  0.45701604955E+02  0.40590560540E+02  0.13994562363E+03  0.12509000000E+03 0.  0.
         25    1    4    4    0    0  0.88220804942E+02  0.83308865504E+01  0.35678129834E+02  0.15739361850E+03  0.12509000000E+03 0.  0.
         25    1    3    3    0    0 -0.10239963330E+03 -0.54032491506E+02  0.57431877234E+02  0.17986418115E+03  0.12509000000E+03 0.  0.
<mgrwt>
<rscale>  2 0.45809089E+03</rscale>
<asrwt>0</asrwt>
<pdfrwt beam="1">  1       21 0.44919411E-01 0.45809089E+03</pdfrwt>
<pdfrwt beam="2">  1       21 0.25257563E-01 0.45809089E+03</pdfrwt>
<totfact> 0.65288022E+04</totfact>
</mgrwt>
</event>
<event>
 7    0  0.4750554E-002  0.4560685E+03  0.7546771E-02  0.1025928E+00
         21   -1    0    0  502  501  0.00000000000E+00  0.00000000000E+00  0.72362825204E+03  0.72362825204E+03  0.00000000000E+00 0. -1.
         21   -1    0    0  501  502 -0.00000000000E+00 -0.00000000000E+00 -0.71859591444E+02  0.71859591444E+02  0.00000000000E+00 0. -1.
      99926    2    1    2    0    0  0.71054273576E-14  0.00000000000E+00  0.65176866060E+03  0.79548784348E+03  0.45606854989E+03 0.  0.
      99925    2    3    3    0    0  0.58372727533E+02  0.89982996720E+02  0.47786077916E+03  0.55591369140E+03  0.26303002303E+03 0.  0.
         25    1    4    4    0    0  0.42346835834E+02  0.39226718672E+02  0.31475046917E+03  0.34358020302E+03  0.12509000000E+03 0.  0.
         25    1    4    4    0    0  0.16025891698E+02  0.50756278048E+02  0.16311030999E+03  0.21233348839E+03  0.12509000000E+03 0.  0.
         25    1    3    3    0    0 -0.58372727533E+02 -0.89982996720E+02  0.17390788144E+03  0.23957415208E+03  0.12509000000E+03 0.  0.
<mgrwt>
<rscale>  2 0.45606855E+03</rscale>
<asrwt>0</asrwt>
<pdfrwt beam="1">  1       21 0.10641592E+00 0.45606855E+03</pdfrwt>
<pdfrwt beam="2">  1       21 0.10567587E-01 0.45606855E+03</pdfrwt>
<totfact> 0.47583543E+04</totfact>
</mgrwt>
</event>
<event>
 7    0  0.4750554E-002  0.4628684E+03  0.7546771E-02  0.1023953E+00
         21   -1    0    0  502  501  0.00000000000E+00  0.00000000000E+00  0.91175760462E+02  0.91175760462E+02  0.00000000000E+00 0. -1.
         21   -1    0    0  501  502 -0.00000000000E+00 -0.00000000000E+00 -0.58745641405E+03  0.58745641405E+03  0.00000000000E+00 0. -1.
      99926    2    1    2    0    0  0.00000000000E+00  0.00000000000E+00 -0.49628065359E+03  0.67863217452E+03  0.46286838427E+03 0.  0.
      99925    2    3    3    0    0  0.11455535491E+03  0.35889746867E+02 -0.32314141173E+03  0.43361032153E+03  0.26303333571E+03 0.  0.
         25    1    4    4    0    0  0.39845467545E+02  0.27810593204E+02 -0.10156141918E+03  0.16829533667E+03  0.12509000000E+03 0.  0.
         25    1    3    3    0    0 -0.11455535491E+03 -0.35889746867E+02 -0.17313924186E+03  0.24502185298E+03  0.12509000000E+03 0.  0.
         25    1    4    4    0    0  0.74709887365E+02  0.80791536631E+01 -0.22157999255E+03  0.26531498486E+03  0.12509000000E+03 0.  0.
<mgrwt>
<rscale>  2 0.46286838E+03</rscale>
<asrwt>0</asrwt>
<pdfrwt beam="1">  1       21 0.13408200E-01 0.46286838E+03</pdfrwt>
<pdfrwt beam="2">  1       21 0.86390651E-01 0.46286838E+03</pdfrwt>
<totfact> 0.50851557E+04</totfact>
</mgrwt>
</event>
<event>
 7    0  0.4750554E-002  0.4468248E+03  0.7546771E-02  0.1028673E+00
         21   -1    0    0  502  501  0.00000000000E+00  0.00000000000E+00  0.22542011644E+03  0.22542011644E+03  0.00000000000E+00 0. -1.
         21   -1    0    0  501  502 -0.00000000000E+00 -0.00000000000E+00 -0.22142254979E+03  0.22142254979E+03  0.00000000000E+00 0. -1.
      99926    2    1    2    0    0  0.00000000000E+00  0.00000000000E+00  0.39975666463E+01  0.44684266624E+03  0.44682478426E+03 0.  0.
      99925    2    3    3    0    0  0.64454469183E+02  0.73680468338E+02  0.41696914573E+02  0.28358845053E+03  0.26286990428E+03 0.  0.
         25    1    4    4    0    0  0.52896734908E+02  0.32626361976E+01  0.29809038703E+02  0.13908557167E+03  0.12509000000E+03 0.  0.
         25    1    4    4    0    0  0.11557734274E+02  0.70417832141E+02  0.11887875870E+02  0.14450287886E+03  0.12509000000E+03 0.  0.
         25    1    3    3    0    0 -0.64454469183E+02 -0.73680468338E+02 -0.37699347927E+02  0.16325421571E+03  0.12509000000E+03 0.  0.
<mgrwt>
<rscale>  2 0.44682478E+03</rscale>
<asrwt>0</asrwt>
<pdfrwt beam="1">  1       21 0.33150017E-01 0.44682478E+03</pdfrwt>
<pdfrwt beam="2">  1       21 0.32562140E-01 0.44682478E+03</pdfrwt>
<totfact> 0.73848394E+04</totfact>
</mgrwt>
</event>
<event>
 7    0  0.4750554E-002  0.4090015E+03  0.7546771E-02  0.1040707E+00
         21   -1    0    0  502  501  0.00000000000E+00  0.00000000000E+00  0.43602645922E+02  0.43602645922E+02  0.00000000000E+00 0. -1.
         21   -1    0    0  501  502 -0.00000000000E+00 -0.00000000000E+00 -0.95912866327E+03  0.95912866327E+03  0.00000000000E+00 0. -1.
      99926    2    1    2    0    0  0.35527136788E-14  0.00000000000E+00 -0.91552601735E+03  0.10027313092E+04  0.40900145475E+03 0.  0.
      99925    2    3    3    0    0  0.24007774655E+02 -0.12625137023E+02 -0.73661450912E+03  0.78274812073E+03  0.26335891504E+03 0.  0.
         25    1    4    4    0    0 -0.16470128822E+02 -0.35430766796E+02 -0.34755646269E+03  0.37144260288E+03  0.12509000000E+03 0.  0.
         25    1    4    4    0    0  0.40477903478E+02  0.22805629773E+02 -0.38905804643E+03  0.41130551785E+03  0.12509000000E+03 0.  0.
         25    1    3    3    0    0 -0.24007774655E+02  0.12625137023E+02 -0.17891150822E+03  0.21998318846E+03  0.12509000000E+03 0.  0.
<mgrwt>
<rscale>  2 0.40900145E+03</rscale>
<asrwt>0</asrwt>
<pdfrwt beam="1">  1       21 0.64121544E-02 0.40900145E+03</pdfrwt>
<pdfrwt beam="2">  1       21 0.14104832E+00 0.40900145E+03</pdfrwt>
<totfact> 0.56920717E+04</totfact>
</mgrwt>
</event>
<event>
 7    0  0.4750554E-002  0.4458383E+03  0.7546771E-02  0.1028970E+00
         21   -1    0    0  502  501  0.00000000000E+00  0.00000000000E+00  0.28664882685E+02  0.28664882685E+02  0.00000000000E+00 0.  1.
         21   -1    0    0  501  502 -0.00000000000E+00 -0.00000000000E+00 -0.17335827482E+04  0.17335827482E+04  0.00000000000E+00 0.  1.
      99926    2    1    2    0    0  0.88817841970E-15  0.14210854715E-13 -0.17049178655E+04  0.17622476309E+04  0.44583829401E+03 0.  0.
      99925    2    3    3    0    0 -0.59487510501E+01 -0.86596091042E+02 -0.13105007408E+04  0.13394632331E+04  0.26308799026E+03 0.  0.
         25    1    4    4    0    0 -0.13959722942E+02 -0.11349477760E+02 -0.48971143929E+03  0.50575536219E+03  0.12509000000E+03 0.  0.
         25    1    3    3    0    0  0.59487510501E+01  0.86596091042E+02 -0.39441712467E+03  0.42278439772E+03  0.12509000000E+03 0.  0.
         25    1    4    4    0    0  0.80109718918E+01 -0.75246613282E+02 -0.82078930151E+03  0.83370787093E+03  0.12509000000E+03 0.  0.
<mgrwt>
<rscale>  2 0.44583829E+03</rscale>
<asrwt>0</asrwt>
<pdfrwt beam="1">  1       21 0.42154230E-02 0.44583829E+03</pdfrwt>
<pdfrwt beam="2">  1       21 0.25493869E+00 0.44583829E+03</pdfrwt>
<totfact> 0.19335358E+04</totfact>
</mgrwt>
</event>
<event>
 7    0  0.4750554E-002  0.4607434E+03  0.7546771E-02  0.1024566E+00
         21   -1    0    0  502  501  0.00000000000E+00  0.00000000000E+00  0.23528066423E+03  0.23528066423E+03  0.00000000000E+00 0. -1.
         21   -1    0    0  501  502 -0.00000000000E+00 -0.00000000000E+00 -0.22556515864E+03  0.22556515864E+03  0.00000000000E+00 0. -1.
      99926    2    1    2    0    0  0.00000000000E+00  0.00000000000E+00  0.97155055910E+01  0.46084582288E+03  0.46074340084E+03 0.  0.
      99925    2    3    3    0    0  0.17053065916E+02 -0.81210189468E+02  0.90677295473E+02  0.29029312882E+03  0.26298636237E+03 0.  0.
         25    1    3    3    0    0 -0.17053065916E+02  0.81210189468E+02 -0.80961789882E+02  0.17055269406E+03  0.12509000000E+03 0.  0.
         25    1    4    4    0    0  0.35344846861E+02 -0.71403073782E+02  0.58869490055E+02  0.15956435098E+03  0.12509000000E+03 0.  0.
         25    1    4    4    0    0 -0.18291780945E+02 -0.98071156860E+01  0.31807805418E+02  0.13072877783E+03  0.12509000000E+03 0.  0.
<mgrwt>
<rscale>  2 0.46074340E+03</rscale>
<asrwt>0</asrwt>
<pdfrwt beam="1">  1       21 0.34600098E-01 0.46074340E+03</pdfrwt>
<pdfrwt beam="2">  1       21 0.33171347E-01 0.46074340E+03</pdfrwt>
<totfact> 0.65085487E+04</totfact>
</mgrwt>
</event>
<event>
 7    0  0.4750554E-002  0.4527735E+03  0.7546771E-02  0.1026898E+00
         21   -1    0    0  502  501  0.00000000000E+00  0.00000000000E+00  0.19580943404E+03  0.19580943404E+03  0.00000000000E+00 0. -1.
         21   -1    0    0  501  502 -0.00000000000E+00 -0.00000000000E+00 -0.26173902616E+03  0.26173902616E+03  0.00000000000E+00 0. -1.
      99926    2    1    2    0    0  0.00000000000E+00  0.00000000000E+00 -0.65929592129E+02  0.45754846020E+03  0.45277354418E+03 0.  0.
      99925    2    3    3    0    0 -0.44777049296E+02  0.97885010986E+02 -0.13840963010E+02  0.28449588754E+03  0.26298265770E+03 0.  0.
         25    1    4    4    0    0  0.16527201670E+01  0.40357225780E+02  0.25637533186E+02  0.13392620492E+03  0.12509000000E+03 0.  0.
         25    1    3    3    0    0  0.44777049296E+02 -0.97885010986E+02 -0.52088629119E+02  0.17305257266E+03  0.12509000000E+03 0.  0.
         25    1    4    4    0    0 -0.46429769463E+02  0.57527785206E+02 -0.39478496196E+02  0.15056968262E+03  0.12509000000E+03 0.  0.
<mgrwt>
<rscale>  2 0.45277354E+03</rscale>
<asrwt>0</asrwt>
<pdfrwt beam="1">  1       21 0.28795505E-01 0.45277354E+03</pdfrwt>
<pdfrwt beam="2">  1       21 0.38491033E-01 0.45277354E+03</pdfrwt>
<totfact> 0.69586960E+04</totfact>
</mgrwt>
</event>
<event>
 7    0  0.4750554E-002  0.4584077E+03  0.7546771E-02  0.1025244E+00
         21   -1    0    0  502  501  0.00000000000E+00  0.00000000000E+00  0.67700217485E+02  0.67700217485E+02  0.00000000000E+00 0.  1.
         21   -1    0    0  501  502 -0.00000000000E+00 -0.00000000000E+00 -0.77598584761E+03  0.77598584761E+03  0.00000000000E+00 0.  1.
      99926    2    1    2    0    0  0.00000000000E+00 -0.14210854715E-13 -0.70828563013E+03  0.84368606510E+03  0.45840772528E+03 0.  0.
      99925    2    3    3    0    0  0.43863433638E+02 -0.10115737690E+03 -0.37611662603E+03  0.47201339851E+03  0.26301352870E+03 0.  0.
         25    1    4    4    0    0  0.27923996520E+02 -0.92161764341E+02 -0.22738162908E+03  0.27680941771E+03  0.12509000000E+03 0.  0.
         25    1    4    4    0    0  0.15939437118E+02 -0.89956125549E+01 -0.14873499695E+03  0.19520398080E+03  0.12509000000E+03 0.  0.
         25    1    3    3    0    0 -0.43863433638E+02  0.10115737690E+03 -0.33216900410E+03  0.37167266659E+03  0.12509000000E+03 0.  0.
<mgrwt>
<rscale>  2 0.45840773E+03</rscale>
<asrwt>0</asrwt>
<pdfrwt beam="1">  1       21 0.99559143E-02 0.45840773E+03</pdfrwt>
<pdfrwt beam="2">  1       21 0.11411557E+00 0.45840773E+03</pdfrwt>
<totfact> 0.44520941E+04</totfact>
</mgrwt>
</event>
<event>
 7    0  0.4750554E-002  0.4626241E+03  0.7546771E-02  0.1024023E+00
         21   -1    0    0  502  501  0.00000000000E+00  0.00000000000E+00  0.18098408244E+03  0.18098408244E+03  0.00000000000E+00 0.  1.
         21   -1    0    0  501  502 -0.00000000000E+00 -0.00000000000E+00 -0.29563514450E+03  0.29563514450E+03  0.00000000000E+00 0.  1.
      99926    2    1    2    0    0  0.00000000000E+00  0.00000000000E+00 -0.11465106206E+03  0.47661922694E+03  0.46262406062E+03 0.  0.
      99925    2    3    3    0    0 -0.95852564731E+02 -0.46062271719E+02 -0.12942344542E+03  0.31177027047E+03  0.26294643234E+03 0.  0.
         25    1    4    4    0    0 -0.69388907843E+02  0.66697674543E+01 -0.46756134995E+02  0.15064179563E+03  0.12509000000E+03 0.  0.
         25    1    3    3    0    0  0.95852564731E+02  0.46062271719E+02  0.14772383362E+02  0.16484895648E+03  0.12509000000E+03 0.  0.
         25    1    4    4    0    0 -0.26463656888E+02 -0.52732039173E+02 -0.82667310428E+02  0.16112847484E+03  0.12509000000E+03 0.  0.
<mgrwt>
<rscale>  2 0.46262406E+03</rscale>
<asrwt>0</asrwt>
<pdfrwt beam="1">  1       21 0.26615306E-01 0.46262406E+03</pdfrwt>
<pdfrwt beam="2">  1       21 0.43475757E-01 0.46262406E+03</pdfrwt>
<totfact> 0.63046098E+04</totfact>
</mgrwt>
</event>
<event>
 7    0  0.4750554E-002  0.4368266E+03  0.7546771E-02  0.1031725E+00
         21   -1    0    0  502  501  0.00000000000E+00  0.00000000000E+00  0.14995382726E+03  0.14995382726E+03  0.00000000000E+00 0.  1.
         21   -1    0    0  501  502 -0.00000000000E+00 -0.00000000000E+00 -0.31812703461E+03  0.31812703461E+03  0.00000000000E+00 0.  1.
      99926    2    1    2    0    0  0.35527136788E-14  0.00000000000E+00 -0.16817320735E+03  0.46808086187E+03  0.43682658525E+03 0.  0.
      99925    2    3    3    0    0 -0.21420157618E+02  0.63026273572E+01 -0.85953483226E+01  0.26409275571E+03  0.26300676292E+03 0.  0.
         25    1    4    4    0    0  0.18798685233E+02 -0.24806652815E+02 -0.25866363597E+01  0.12893005615E+03  0.12509000000E+03 0.  0.
         25    1    3    3    0    0  0.21420157618E+02 -0.63026273572E+01 -0.15957785903E+03  0.20398810616E+03  0.12509000000E+03 0.  0.
         25    1    4    4    0    0 -0.40218842851E+02  0.31109280172E+02 -0.60087119629E+01  0.13516269956E+03  0.12509000000E+03 0.  0.
<mgrwt>
<rscale>  2 0.43682659E+03</rscale>
<asrwt>0</asrwt>
<pdfrwt beam="1">  1       21 0.22052033E-01 0.43682659E+03</pdfrwt>
<pdfrwt beam="2">  1       21 0.46783388E-01 0.43682659E+03</pdfrwt>
<totfact> 0.78273887E+04</totfact>
</mgrwt>
</event>
<event>
 7    0  0.4750554E-002  0.4527668E+03  0.7546771E-02  0.1026900E+00
         21   -1    0    0  502  501  0.00000000000E+00  0.00000000000E+00  0.25747914421E+03  0.25747914421E+03  0.00000000000E+00 0.  1.
         21   -1    0    0  501  502 -0.00000000000E+00 -0.00000000000E+00 -0.19904310986E+03  0.19904310986E+03  0.00000000000E+00 0.  1.
      99926    2    1    2    0    0  0.14210854715E-13 -0.71054273576E-14  0.58436034350E+02  0.45652225407E+03  0.45276682559E+03 0.  0.
      99925    2    3    3    0    0 -0.95983544816E+02  0.53289660397E+02  0.53594535560E+02  0.29001826916E+03  0.26303154454E+03 0.  0.
         25    1    3    3    0    0  0.95983544816E+02 -0.53289660397E+02  0.48414987902E+01  0.16650398491E+03  0.12509000000E+03 0.  0.
         25    1    4    4    0    0 -0.62857551871E+02 -0.12608146695E+01  0.52683847104E+02  0.14958528446E+03  0.12509000000E+03 0.  0.
         25    1    4    4    0    0 -0.33125992945E+02  0.54550475066E+02  0.91068845558E+00  0.14043298470E+03  0.12509000000E+03 0.  0.
<mgrwt>
<rscale>  2 0.45276683E+03</rscale>
<asrwt>0</asrwt>
<pdfrwt beam="1">  1       21 0.37864580E-01 0.45276683E+03</pdfrwt>
<pdfrwt beam="2">  1       21 0.29271046E-01 0.45276683E+03</pdfrwt>
<totfact> 0.69667224E+04</totfact>
</mgrwt>
</event>
<event>
 7    0  0.4750554E-002  0.4548679E+03  0.7546771E-02  0.1026280E+00
         21   -1    0    0  502  501  0.00000000000E+00  0.00000000000E+00  0.13395915064E+03  0.13395915064E+03  0.00000000000E+00 0.  1.
         21   -1    0    0  501  502 -0.00000000000E+00 -0.00000000000E+00 -0.38613408899E+03  0.38613408899E+03  0.00000000000E+00 0.  1.
      99926    2    1    2    0    0 -0.71054273576E-14  0.00000000000E+00 -0.25217493835E+03  0.52009323963E+03  0.45486786915E+03 0.  0.
      99925    2    3    3    0    0  0.48470737508E+02  0.23285479366E+02 -0.27224554628E+03  0.38246343419E+03  0.26319007404E+03 0.  0.
         25    1    4    4    0    0  0.10028718285E+02  0.44563375742E+02 -0.16432544665E+03  0.21151082754E+03  0.12509000000E+03 0.  0.
         25    1    3    3    0    0 -0.48470737508E+02 -0.23285479366E+02  0.20070607936E+02  0.13762980545E+03  0.12509000000E+03 0.  0.
         25    1    4    4    0    0  0.38442019223E+02 -0.21277896376E+02 -0.10792009963E+03  0.17095260665E+03  0.12509000000E+03 0.  0.
<mgrwt>
<rscale>  2 0.45486787E+03</rscale>
<asrwt>0</asrwt>
<pdfrwt beam="1">  1       21 0.19699876E-01 0.45486787E+03</pdfrwt>
<pdfrwt beam="2">  1       21 0.56784424E-01 0.45486787E+03</pdfrwt>
<totfact> 0.63947923E+04</totfact>
</mgrwt>
</event>
<event>
 7    0  0.4750554E-002  0.4576843E+03  0.7546771E-02  0.1025455E+00
         21   -1    0    0  502  501  0.00000000000E+00  0.00000000000E+00  0.63574424078E+03  0.63574424078E+03  0.00000000000E+00 0.  1.
         21   -1    0    0  501  502 -0.00000000000E+00 -0.00000000000E+00 -0.82373898175E+02  0.82373898175E+02  0.00000000000E+00 0.  1.
      99926    2    1    2    0    0 -0.71054273576E-14  0.00000000000E+00  0.55337034260E+03  0.71811813895E+03  0.45768430760E+03 0.  0.
      99925    2    3    3    0    0 -0.54177573492E+02  0.97670898949E+02  0.30018418450E+03  0.41443153615E+03  0.26299836417E+03 0.  0.
         25    1    3    3    0    0  0.54177573492E+02 -0.97670898949E+02  0.25318615810E+03  0.30368660280E+03  0.12509000000E+03 0.  0.
         25    1    4    4    0    0  0.32851568068E-01  0.14408736992E+02  0.13684582994E+03  0.18596209843E+03  0.12509000000E+03 0.  0.
         25    1    4    4    0    0 -0.54210425060E+02  0.83262161956E+02  0.16333835457E+03  0.22846943772E+03  0.12509000000E+03 0.  0.
<mgrwt>
<rscale>  2 0.45768431E+03</rscale>
<asrwt>0</asrwt>
<pdfrwt beam="1">  1       21 0.93491798E-01 0.45768431E+03</pdfrwt>
<pdfrwt beam="2">  1       21 0.12113809E-01 0.45768431E+03</pdfrwt>
<totfact> 0.50848128E+04</totfact>
</mgrwt>
</event>
<event>
 7    0  0.4750554E-002  0.4558783E+03  0.7546771E-02  0.1025983E+00
         21   -1    0    0  502  501  0.00000000000E+00  0.00000000000E+00  0.12014684483E+03  0.12014684483E+03  0.00000000000E+00 0. -1.
         21   -1    0    0  501  502 -0.00000000000E+00 -0.00000000000E+00 -0.43243953234E+03  0.43243953234E+03  0.00000000000E+00 0. -1.
      99926    2    1    2    0    0  0.00000000000E+00 -0.66613381478E-14 -0.31229268751E+03  0.55258637717E+03  0.45587825300E+03 0.  0.
      99925    2    3    3    0    0  0.11026793428E+03  0.27010782650E+01 -0.23113460425E+03  0.36711277869E+03  0.26302523423E+03 0.  0.
         25    1    4    4    0    0  0.54234068113E+02 -0.35237544592E+02 -0.13763199678E+03  0.19690884523E+03  0.12509000000E+03 0.  0.
         25    1    4    4    0    0  0.56033866164E+02  0.37938622857E+02 -0.93502607467E+02  0.17020393346E+03  0.12509000000E+03 0.  0.
         25    1    3    3    0    0 -0.11026793428E+03 -0.27010782650E+01 -0.81158083262E+02  0.18547359848E+03  0.12509000000E+03 0.  0.
<mgrwt>
<rscale>  2 0.45587825E+03</rscale>
<asrwt>0</asrwt>
<pdfrwt beam="1">  1       21 0.17668654E-01 0.45587825E+03</pdfrwt>
<pdfrwt beam="2">  1       21 0.63594048E-01 0.45587825E+03</pdfrwt>
<totfact> 0.61269104E+04</totfact>
</mgrwt>
</event>
<event>
 7    0  0.4750554E-002  0.4573106E+03  0.7546771E-02  0.1025564E+00
         21   -1    0    0  502  501  0.00000000000E+00  0.00000000000E+00  0.30402628523E+03  0.30402628523E+03  0.00000000000E+00 0.  1.
         21   -1    0    0  501  502 -0.00000000000E+00 -0.00000000000E+00 -0.17196945955E+03  0.17196945955E+03  0.00000000000E+00 0.  1.
      99926    2    1    2    0    0  0.00000000000E+00  0.00000000000E+00  0.13205682568E+03  0.47599574478E+03  0.45731055514E+03 0.  0.
      99925    2    3    3    0    0  0.81081709838E+02  0.67127644529E+02  0.33796949115E+02  0.28525278744E+03  0.26295732476E+03 0.  0.
         25    1    3    3    0    0 -0.81081709838E+02 -0.67127644529E+02  0.98259876568E+02  0.19074295734E+03  0.12509000000E+03 0.  0.
         25    1    4    4    0    0  0.37164308991E+02  0.96611337627E+00 -0.96297191328E+01  0.13085243150E+03  0.12509000000E+03 0.  0.
         25    1    4    4    0    0  0.43917400846E+02  0.66161531153E+02  0.43426668248E+02  0.15440035595E+03  0.12509000000E+03 0.  0.
<mgrwt>
<rscale>  2 0.45731056E+03</rscale>
<asrwt>0</asrwt>
<pdfrwt beam="1">  1       21 0.44709748E-01 0.45731056E+03</pdfrwt>
<pdfrwt beam="2">  1       21 0.25289626E-01 0.45731056E+03</pdfrwt>
<totfact> 0.65778367E+04</totfact>
</mgrwt>
</event>
<event>
 7    0  0.4750554E-002  0.4525093E+03  0.7546771E-02  0.1026976E+00
         21   -1    0    0  502  501  0.00000000000E+00  0.00000000000E+00  0.37730024712E+03  0.37730024712E+03  0.00000000000E+00 0. -1.
         21   -1    0    0  501  502 -0.00000000000E+00 -0.00000000000E+00 -0.13567756004E+03  0.13567756004E+03  0.00000000000E+00 0. -1.
      99926    2    1    2    0    0  0.00000000000E+00  0.71054273576E-14  0.24162268708E+03  0.51297780716E+03  0.45250934546E+03 0.  0.
      99925    2    3    3    0    0  0.81448396500E+02  0.62525024354E+02  0.19962482187E+03  0.34578166861E+03  0.26300508147E+03 0.  0.
         25    1    4    4    0    0  0.39889896498E+02  0.62891027368E+02  0.13676724215E+03  0.19974802075E+03  0.12509000000E+03 0.  0.
         25    1    3    3    0    0 -0.81448396500E+02 -0.62525024354E+02  0.41997865208E+02  0.16719613855E+03  0.12509000000E+03 0.  0.
         25    1    4    4    0    0  0.41558500002E+02 -0.36600301441E+00  0.62857579719E+02  0.14603364786E+03  0.12509000000E+03 0.  0.
<mgrwt>
<rscale>  2 0.45250935E+03</rscale>
<asrwt>0</asrwt>
<pdfrwt beam="1">  1       21 0.55485330E-01 0.45250935E+03</pdfrwt>
<pdfrwt beam="2">  1       21 0.19952582E-01 0.45250935E+03</pdfrwt>
<totfact> 0.65656276E+04</totfact>
</mgrwt>
</event>
<event>
 7    0  0.4750554E-002  0.4497329E+03  0.7546771E-02  0.1027802E+00
         21   -1    0    0  502  501  0.00000000000E+00  0.00000000000E+00  0.92172333285E+02  0.92172333285E+02  0.00000000000E+00 0.  1.
         21   -1    0    0  501  502 -0.00000000000E+00 -0.00000000000E+00 -0.54859120100E+03  0.54859120100E+03  0.00000000000E+00 0.  1.
      99926    2    1    2    0    0 -0.71054273576E-14  0.00000000000E+00 -0.45641886771E+03  0.64076353429E+03  0.44973294750E+03 0.  0.
      99925    2    3    3    0    0  0.54191639034E+02  0.82102680768E+02 -0.22466513689E+03  0.35963209922E+03  0.26302706919E+03 0.  0.
         25    1    3    3    0    0 -0.54191639034E+02 -0.82102680768E+02 -0.23175373083E+03  0.28113143507E+03  0.12509000000E+03 0.  0.
         25    1    4    4    0    0  0.30593906191E+02  0.10339673142E+01 -0.87506124807E+02  0.15569806088E+03  0.12509000000E+03 0.  0.
         25    1    4    4    0    0  0.23597732844E+02  0.81068713454E+02 -0.13715901208E+03  0.20393403834E+03  0.12509000000E+03 0.  0.
<mgrwt>
<rscale>  2 0.44973295E+03</rscale>
<asrwt>0</asrwt>
<pdfrwt beam="1">  1       21 0.13554755E-01 0.44973295E+03</pdfrwt>
<pdfrwt beam="2">  1       21 0.80675178E-01 0.44973295E+03</pdfrwt>
<totfact> 0.58636075E+04</totfact>
</mgrwt>
</event>
<event>
 7    0  0.4750554E-002  0.4335654E+03  0.7546771E-02  0.1032740E+00
         21   -1    0    0  502  501  0.00000000000E+00  0.00000000000E+00  0.34063978541E+02  0.34063978541E+02  0.00000000000E+00 0. -1.
         21   -1    0    0  501  502 -0.00000000000E+00 -0.00000000000E+00 -0.13796024243E+04  0.13796024243E+04  0.00000000000E+00 0. -1.
      99926    2    1    2    0    0  0.35527136788E-14  0.17763568394E-14 -0.13455384458E+04  0.14136664029E+04  0.43356543855E+03 0.  0.
      99925    2    3    3    0    0  0.18385235180E+02  0.12716331320E+02 -0.57469944071E+03  0.63242380175E+03  0.26302223463E+03 0.  0.
         25    1    3    3    0    0 -0.18385235180E+02 -0.12716331320E+02 -0.77083900506E+03  0.78124260111E+03  0.12509000000E+03 0.  0.
         25    1    4    4    0    0 -0.48800901920E+01 -0.27166408490E+02 -0.32538392956E+03  0.34969134783E+03  0.12509000000E+03 0.  0.
         25    1    4    4    0    0  0.23265325372E+02  0.39882739810E+02 -0.24931551114E+03  0.28273245391E+03  0.12509000000E+03 0.  0.
<mgrwt>
<rscale>  2 0.43356544E+03</rscale>
<asrwt>0</asrwt>
<pdfrwt beam="1">  1       21 0.50094090E-02 0.43356544E+03</pdfrwt>
<pdfrwt beam="2">  1       21 0.20288269E+00 0.43356544E+03</pdfrwt>
<totfact> 0.30787877E+04</totfact>
</mgrwt>
</event>
<event>
 7    0  0.4750554E-002  0.4490959E+03  0.7546771E-02  0.1027992E+00
         21   -1    0    0  502  501  0.00000000000E+00  0.00000000000E+00  0.29220727542E+02  0.29220727542E+02  0.00000000000E+00 0.  1.
         21   -1    0    0  501  502 -0.00000000000E+00 -0.00000000000E+00 -0.17255481009E+04  0.17255481009E+04  0.00000000000E+00 0.  1.
      99926    2    1    2    0    0 -0.35527136788E-14  0.00000000000E+00 -0.16963273733E+04  0.17547688284E+04  0.44909585131E+03 0.  0.
      99925    2    3    3    0    0  0.28043129446E+02  0.89867717651E+02 -0.87006640380E+03  0.91380668798E+03  0.26299142986E+03 0.  0.
         25    1    3    3    0    0 -0.28043129446E+02 -0.89867717651E+02 -0.82626096950E+03  0.84096214041E+03  0.12509000000E+03 0.  0.
         25    1    4    4    0    0  0.45432466985E+02  0.22074583358E+02 -0.38160647764E+03  0.40474980935E+03  0.12509000000E+03 0.  0.
         25    1    4    4    0    0 -0.17389337540E+02  0.67793134293E+02 -0.48845992616E+03  0.50905687863E+03  0.12509000000E+03 0.  0.
<mgrwt>
<rscale>  2 0.44909585E+03</rscale>
<asrwt>0</asrwt>
<pdfrwt beam="1">  1       21 0.42971667E-02 0.44909585E+03</pdfrwt>
<pdfrwt beam="2">  1       21 0.25375702E+00 0.44909585E+03</pdfrwt>
<totfact> 0.19001136E+04</totfact>
</mgrwt>
</event>
<event>
 7    0  0.4750554E-002  0.4482723E+03  0.7546771E-02  0.1028239E+00
         21   -1    0    0  502  501  0.00000000000E+00  0.00000000000E+00  0.23025233422E+03  0.23025233422E+03  0.00000000000E+00 0.  1.
         21   -1    0    0  501  502 -0.00000000000E+00 -0.00000000000E+00 -0.21818239142E+03  0.21818239142E+03  0.00000000000E+00 0.  1.
      99926    2    1    2    0    0  0.00000000000E+00  0.00000000000E+00  0.12069942808E+02  0.44843472564E+03  0.44827226062E+03 0.  0.
      99925    2    3    3    0    0 -0.38519084562E+02 -0.71526224045E+01  0.10693985682E+03  0.28662406911E+03  0.26302536786E+03 0.  0.
         25    1    4    4    0    0 -0.50727059316E+02  0.83048329968E+01  0.80097099269E+02  0.15717906416E+03  0.12509000000E+03 0.  0.
         25    1    4    4    0    0  0.12207974755E+02 -0.15457455401E+02  0.26842757546E+02  0.12944500495E+03  0.12509000000E+03 0.  0.
         25    1    3    3    0    0  0.38519084562E+02  0.71526224045E+01 -0.94869914007E+02  0.16181065653E+03  0.12509000000E+03 0.  0.
<mgrwt>
<rscale>  2 0.44827226E+03</rscale>
<asrwt>0</asrwt>
<pdfrwt beam="1">  1       21 0.33860637E-01 0.44827226E+03</pdfrwt>
<pdfrwt beam="2">  1       21 0.32085646E-01 0.44827226E+03</pdfrwt>
<totfact> 0.72862910E+04</totfact>
</mgrwt>
</event>
<event>
 7    0  0.4750554E-002  0.4526051E+03  0.7546771E-02  0.1026948E+00
         21   -1    0    0  502  501  0.00000000000E+00  0.00000000000E+00  0.17733598885E+03  0.17733598885E+03  0.00000000000E+00 0. -1.
         21   -1    0    0  501  502 -0.00000000000E+00 -0.00000000000E+00 -0.28878993502E+03  0.28878993502E+03  0.00000000000E+00 0. -1.
      99926    2    1    2    0    0  0.17763568394E-14  0.17763568394E-14 -0.11145394617E+03  0.46612592387E+03  0.45260512015E+03 0.  0.
      99925    2    3    3    0    0  0.17228391320E+01 -0.66650605240E+01  0.43748025883E+02  0.26667028611E+03  0.26296722328E+03 0.  0.
         25    1    4    4    0    0 -0.20051663600E+02  0.16962875727E+02  0.50287449068E+02  0.13735408257E+03  0.12509000000E+03 0.  0.
         25    1    3    3    0    0 -0.17228391320E+01  0.66650605240E+01 -0.15520197206E+03  0.19945563777E+03  0.12509000000E+03 0.  0.
         25    1    4    4    0    0  0.21774502732E+02 -0.23627936251E+02 -0.65394231848E+01  0.12931620353E+03  0.12509000000E+03 0.  0.
<mgrwt>
<rscale>  2 0.45260512E+03</rscale>
<asrwt>0</asrwt>
<pdfrwt beam="1">  1       21 0.26078822E-01 0.45260512E+03</pdfrwt>
<pdfrwt beam="2">  1       21 0.42469108E-01 0.45260512E+03</pdfrwt>
<totfact> 0.69027069E+04</totfact>
</mgrwt>
</event>
<event>
 7    0  0.4750554E-002  0.4558022E+03  0.7546771E-02  0.1026006E+00
         21   -1    0    0  502  501  0.00000000000E+00  0.00000000000E+00  0.35337504226E+03  0.35337504226E+03  0.00000000000E+00 0.  1.
         21   -1    0    0  501  502 -0.00000000000E+00 -0.00000000000E+00 -0.14697956585E+03  0.14697956585E+03  0.00000000000E+00 0.  1.
      99926    2    1    2    0    0 -0.14210854715E-13  0.00000000000E+00  0.20639547641E+03  0.50035460811E+03  0.45580219522E+03 0.  0.
      99925    2    3    3    0    0  0.10061389434E+03 -0.51785696961E+02  0.11508894297E+03  0.30854922420E+03  0.26296814412E+03 0.  0.
         25    1    3    3    0    0 -0.10061389434E+03  0.51785696961E+02  0.91306533445E+02  0.19180538390E+03  0.12509000000E+03 0.  0.
         25    1    4    4    0    0  0.92079678125E+02 -0.19325088002E+02  0.56636655420E+02  0.16645523418E+03  0.12509000000E+03 0.  0.
         25    1    4    4    0    0  0.85342162155E+01 -0.32460608959E+02  0.58452287548E+02  0.14209399002E+03  0.12509000000E+03 0.  0.
<mgrwt>
<rscale>  2 0.45580220E+03</rscale>
<asrwt>0</asrwt>
<pdfrwt beam="1">  1       21 0.51966918E-01 0.45580220E+03</pdfrwt>
<pdfrwt beam="2">  1       21 0.21614642E-01 0.45580220E+03</pdfrwt>
<totfact> 0.64831930E+04</totfact>
</mgrwt>
</event>
<event>
 7    0  0.4750554E-002  0.4498122E+03  0.7546771E-02  0.1027778E+00
         21   -1    0    0  502  501  0.00000000000E+00  0.00000000000E+00  0.10908619811E+04  0.10908619811E+04  0.00000000000E+00 0. -1.
         21   -1    0    0  501  502 -0.00000000000E+00 -0.00000000000E+00 -0.46369523036E+02  0.46369523036E+02  0.00000000000E+00 0. -1.
      99926    2    1    2    0    0  0.35527136788E-14  0.00000000000E+00  0.10444924580E+04  0.11372315041E+04  0.44981218196E+03 0.  0.
      99925    2    3    3    0    0  0.24916184478E+02  0.74556653442E+02  0.84846846952E+03  0.89176781434E+03  0.26300490507E+03 0.  0.
         25    1    4    4    0    0 -0.88638949716E+01  0.35506808533E+02  0.30453431333E+03  0.33125210668E+03  0.12509000000E+03 0.  0.
         25    1    4    4    0    0  0.33780079449E+02  0.39049844909E+02  0.54393415619E+03  0.56051570765E+03  0.12509000000E+03 0.  0.
         25    1    3    3    0    0 -0.24916184478E+02 -0.74556653442E+02  0.19602398850E+03  0.24546368976E+03  0.12509000000E+03 0.  0.
<mgrwt>
<rscale>  2 0.44981218E+03</rscale>
<asrwt>0</asrwt>
<pdfrwt beam="1">  1       21 0.16042086E+00 0.44981218E+03</pdfrwt>
<pdfrwt beam="2">  1       21 0.68190482E-02 0.44981218E+03</pdfrwt>
<totfact> 0.35630712E+04</totfact>
</mgrwt>
</event>
<event>
 7    0  0.4750554E-002  0.4543849E+03  0.7546771E-02  0.1026422E+00
         21   -1    0    0  502  501  0.00000000000E+00  0.00000000000E+00  0.71211922546E+03  0.71211922546E+03  0.00000000000E+00 0. -1.
         21   -1    0    0  501  502 -0.00000000000E+00 -0.00000000000E+00 -0.72482806225E+02  0.72482806225E+02  0.00000000000E+00 0. -1.
      99926    2    1    2    0    0  0.00000000000E+00  0.71054273576E-14  0.63963641924E+03  0.78460203169E+03  0.45438485815E+03 0.  0.
      99925    2    3    3    0    0 -0.78346079262E+02  0.44177358591E+02  0.28611732247E+03  0.39896877712E+03  0.26310305158E+03 0.  0.
         25    1    4    4    0    0 -0.78870936972E+01  0.21507490389E+02  0.17341004058E+03  0.21504262057E+03  0.12509000000E+03 0.  0.
         25    1    4    4    0    0 -0.70458985565E+02  0.22669868202E+02  0.11270728190E+03  0.18392615655E+03  0.12509000000E+03 0.  0.
         25    1    3    3    0    0  0.78346079262E+02 -0.44177358591E+02  0.35351909677E+03  0.38563325456E+03  0.12509000000E+03 0.  0.
<mgrwt>
<rscale>  2 0.45438486E+03</rscale>
<asrwt>0</asrwt>
<pdfrwt beam="1">  1       21 0.10472341E+00 0.45438486E+03</pdfrwt>
<pdfrwt beam="2">  1       21 0.10659237E-01 0.45438486E+03</pdfrwt>
<totfact> 0.48753609E+04</totfact>
</mgrwt>
</event>
<event>
 7    0  0.4750554E-002  0.4628018E+03  0.7546771E-02  0.1023972E+00
         21   -1    0    0  502  501  0.00000000000E+00  0.00000000000E+00  0.30556230058E+03  0.30556230058E+03  0.00000000000E+00 0.  1.
         21   -1    0    0  501  502 -0.00000000000E+00 -0.00000000000E+00 -0.17523882066E+03  0.17523882066E+03  0.00000000000E+00 0.  1.
      99926    2    1    2    0    0  0.00000000000E+00  0.14210854715E-13  0.13032347991E+03  0.48080112124E+03  0.46280180290E+03 0.  0.
      99925    2    3    3    0    0  0.69213228279E+02 -0.56221676951E+02 -0.21999999728E+01  0.27791857209E+03  0.26321577610E+03 0.  0.
         25    1    4    4    0    0  0.34309881053E+02 -0.67551127276E+02 -0.14579098931E+02  0.14697068061E+03  0.12509000000E+03 0.  0.
         25    1    4    4    0    0  0.34903347226E+02  0.11329450325E+02  0.12379098958E+02  0.13094789148E+03  0.12509000000E+03 0.  0.
         25    1    3    3    0    0 -0.69213228279E+02  0.56221676951E+02  0.13252347988E+03  0.20288254915E+03  0.12509000000E+03 0.  0.
<mgrwt>
<rscale>  2 0.46280180E+03</rscale>
<asrwt>0</asrwt>
<pdfrwt beam="1">  1       21 0.44935633E-01 0.46280180E+03</pdfrwt>
<pdfrwt beam="2">  1       21 0.25770415E-01 0.46280180E+03</pdfrwt>
<totfact> 0.62670634E+04</totfact>
</mgrwt>
</event>
<event>
 7    0  0.4750554E-002  0.4585210E+03  0.7546771E-02  0.1025211E+00
         21   -1    0    0  502  501  0.00000000000E+00  0.00000000000E+00  0.11651947940E+03  0.11651947940E+03  0.00000000000E+00 0. -1.
         21   -1    0    0  501  502 -0.00000000000E+00 -0.00000000000E+00 -0.45108663605E+03  0.45108663605E+03  0.00000000000E+00 0. -1.
      99926    2    1    2    0    0  0.00000000000E+00  0.00000000000E+00 -0.33456715665E+03  0.56760611546E+03  0.45852101369E+03 0.  0.
      99925    2    3    3    0    0  0.10433044349E+03 -0.18368415108E+02 -0.26991462906E+03  0.39139687184E+03  0.26289801101E+03 0.  0.
         25    1    3    3    0    0 -0.10433044349E+03  0.18368415108E+02 -0.64652527596E+02  0.17620924362E+03  0.12509000000E+03 0.  0.
         25    1    4    4    0    0  0.23130206734E+02 -0.38486292799E+02 -0.13022238254E+03  0.18606874593E+03  0.12509000000E+03 0.  0.
         25    1    4    4    0    0  0.81200236757E+02  0.20117877691E+02 -0.13969224652E+03  0.20532812591E+03  0.12509000000E+03 0.  0.
<mgrwt>
<rscale>  2 0.45852101E+03</rscale>
<asrwt>0</asrwt>
<pdfrwt beam="1">  1       21 0.17135218E-01 0.45852101E+03</pdfrwt>
<pdfrwt beam="2">  1       21 0.66336269E-01 0.45852101E+03</pdfrwt>
<totfact> 0.59056148E+04</totfact>
</mgrwt>
</event>
<event>
 7    0  0.4750554E-002  0.4322732E+03  0.7546771E-02  0.1033144E+00
         21   -1    0    0  502  501  0.00000000000E+00  0.00000000000E+00  0.31036217792E+03  0.31036217792E+03  0.00000000000E+00 0.  1.
         21   -1    0    0  501  502 -0.00000000000E+00 -0.00000000000E+00 -0.15051782022E+03  0.15051782022E+03  0.00000000000E+00 0.  1.
      99926    2    1    2    0    0 -0.14210854715E-13  0.00000000000E+00  0.15984435770E+03  0.46087999814E+03  0.43227323997E+03 0.  0.
      99925    2    3    3    0    0 -0.75890256120E+02  0.22467832094E+02  0.56588299019E+02  0.28039881849E+03  0.26297742749E+03 0.  0.
         25    1    3    3    0    0  0.75890256120E+02 -0.22467832094E+02  0.10325605868E+03  0.18048117965E+03  0.12509000000E+03 0.  0.
         25    1    4    4    0    0 -0.13630113010E+01  0.25469886403E+02  0.40182113272E+02  0.13383827270E+03  0.12509000000E+03 0.  0.
         25    1    4    4    0    0 -0.74527244819E+02 -0.30020543092E+01  0.16406185747E+02  0.14656054579E+03  0.12509000000E+03 0.  0.
<mgrwt>
<rscale>  2 0.43227324E+03</rscale>
<asrwt>0</asrwt>
<pdfrwt beam="1">  1       21 0.45641497E-01 0.43227324E+03</pdfrwt>
<pdfrwt beam="2">  1       21 0.22134974E-01 0.43227324E+03</pdfrwt>
<totfact> 0.81928194E+04</totfact>
</mgrwt>
</event>
<event>
 7    0  0.4750554E-002  0.4571894E+03  0.7546771E-02  0.1025600E+00
         21   -1    0    0  502  501  0.00000000000E+00  0.00000000000E+00  0.12778689861E+04  0.12778689861E+04  0.00000000000E+00 0. -1.
         21   -1    0    0  501  502 -0.00000000000E+00 -0.00000000000E+00 -0.40892711218E+02  0.40892711218E+02  0.00000000000E+00 0. -1.
      99926    2    1    2    0    0  0.00000000000E+00  0.00000000000E+00  0.12369762749E+04  0.13187616973E+04  0.45718935868E+03 0.  0.
      99925    2    3    3    0    0  0.44997230540E+02  0.86395415944E+02  0.59942777508E+03  0.66179555180E+03  0.26300337678E+03 0.  0.
         25    1    4    4    0    0  0.44152127001E+02  0.16859882976E+02  0.23681665129E+03  0.27196194660E+03  0.12509000000E+03 0.  0.
         25    1    3    3    0    0 -0.44997230540E+02 -0.86395415944E+02  0.63754849978E+03  0.65696614550E+03  0.12509000000E+03 0.  0.
         25    1    4    4    0    0  0.84510353856E+00  0.69535532968E+02  0.36261112379E+03  0.38983360520E+03  0.12509000000E+03 0.  0.
<mgrwt>
<rscale>  2 0.45718936E+03</rscale>
<asrwt>0</asrwt>
<pdfrwt beam="1">  1       21 0.18792188E+00 0.45718936E+03</pdfrwt>
<pdfrwt beam="2">  1       21 0.60136349E-02 0.45718936E+03</pdfrwt>
<totfact> 0.28093330E+04</totfact>
</mgrwt>
</event>
<event>
 7    0  0.4750554E-002  0.4563435E+03  0.7546771E-02  0.1025847E+00
         21   -1    0    0  502  501  0.00000000000E+00  0.00000000000E+00  0.15196997417E+03  0.15196997417E+03  0.00000000000E+00 0.  1.
         21   -1    0    0  501  502 -0.00000000000E+00 -0.00000000000E+00 -0.34258314703E+03  0.34258314703E+03  0.00000000000E+00 0.  1.
      99926    2    1    2    0    0  0.35527136788E-14  0.00000000000E+00 -0.19061317286E+03  0.49455312120E+03  0.45634351975E+03 0.  0.
      99925    2    3    3    0    0  0.28506176275E+02 -0.87705369580E+02 -0.46442558796E+02  0.28256843308E+03  0.26302694570E+03 0.  0.
         25    1    4    4    0    0 -0.55273658111E+01 -0.73734676519E+02 -0.45191428312E+02  0.15217466145E+03  0.12509000000E+03 0.  0.
         25    1    4    4    0    0  0.34033542086E+02 -0.13970693062E+02 -0.12511304836E+01  0.13039377163E+03  0.12509000000E+03 0.  0.
         25    1    3    3    0    0 -0.28506176275E+02  0.87705369580E+02 -0.14417061406E+03  0.21198468812E+03  0.12509000000E+03 0.  0.
<mgrwt>
<rscale>  2 0.45634352E+03</rscale>
<asrwt>0</asrwt>
<pdfrwt beam="1">  1       21 0.22348526E-01 0.45634352E+03</pdfrwt>
<pdfrwt beam="2">  1       21 0.50379874E-01 0.45634352E+03</pdfrwt>
<totfact> 0.64959429E+04</totfact>
</mgrwt>
</event>
<event>
 7    0  0.4750554E-002  0.4601914E+03  0.7546771E-02  0.1024726E+00
         21   -1    0    0  502  501  0.00000000000E+00  0.00000000000E+00  0.53434268674E+03  0.53434268674E+03  0.00000000000E+00 0. -1.
         21   -1    0    0  501  502 -0.00000000000E+00 -0.00000000000E+00 -0.99082556979E+02  0.99082556979E+02  0.00000000000E+00 0. -1.
      99926    2    1    2    0    0  0.00000000000E+00  0.00000000000E+00  0.43526012976E+03  0.63342524372E+03  0.46019143714E+03 0.  0.
      99925    2    3    3    0    0  0.10399632199E+03  0.35824674012E+02  0.33098210797E+03  0.43690538166E+03  0.26313212360E+03 0.  0.
         25    1    4    4    0    0  0.77394169735E+02  0.52548245782E+02  0.18384452963E+03  0.24124156943E+03  0.12509000000E+03 0.  0.
         25    1    3    3    0    0 -0.10399632199E+03 -0.35824674012E+02  0.10427802179E+03  0.19651986206E+03  0.12509000000E+03 0.  0.
         25    1    4    4    0    0  0.26602152255E+02 -0.16723571770E+02  0.14713757834E+03  0.19566381223E+03  0.12509000000E+03 0.  0.
<mgrwt>
<rscale>  2 0.46019144E+03</rscale>
<asrwt>0</asrwt>
<pdfrwt beam="1">  1       21 0.78579805E-01 0.46019144E+03</pdfrwt>
<pdfrwt beam="2">  1       21 0.14570965E-01 0.46019144E+03</pdfrwt>
<totfact> 0.54402748E+04</totfact>
</mgrwt>
</event>
<event>
 7    0  0.4750554E-002  0.4523767E+03  0.7546771E-02  0.1027016E+00
         21   -1    0    0  502  501  0.00000000000E+00  0.00000000000E+00  0.59516487777E+02  0.59516487777E+02  0.00000000000E+00 0. -1.
         21   -1    0    0  501  502 -0.00000000000E+00 -0.00000000000E+00 -0.85961331729E+03  0.85961331729E+03  0.00000000000E+00 0. -1.
      99926    2    1    2    0    0  0.00000000000E+00  0.17763568394E-14 -0.80009682951E+03  0.91912980507E+03  0.45237668150E+03 0.  0.
      99925    2    3    3    0    0 -0.11501583034E+02  0.10296151342E+02 -0.72745654241E+03  0.77365672661E+03  0.26289429889E+03 0.  0.
         25    1    3    3    0    0  0.11501583034E+02 -0.10296151342E+02 -0.72640287101E+02  0.14547307845E+03  0.12509000000E+03 0.  0.
         25    1    4    4    0    0 -0.20571706804E+02 -0.31571476256E+02 -0.33814375323E+03  0.36250332300E+03  0.12509000000E+03 0.  0.
         25    1    4    4    0    0  0.90701237702E+01  0.41867627597E+02 -0.38931278918E+03  0.41115340362E+03  0.12509000000E+03 0.  0.
<mgrwt>
<rscale>  2 0.45237668E+03</rscale>
<asrwt>0</asrwt>
<pdfrwt beam="1">  1       21 0.87524250E-02 0.45237668E+03</pdfrwt>
<pdfrwt beam="2">  1       21 0.12641372E+00 0.45237668E+03</pdfrwt>
<totfact> 0.43298571E+04</totfact>
</mgrwt>
</event>
<event>
 7    0  0.4750554E-002  0.4559652E+03  0.7546771E-02  0.1025958E+00
         21   -1    0    0  502  501  0.00000000000E+00  0.00000000000E+00  0.17691746065E+04  0.17691746065E+04  0.00000000000E+00 0.  1.
         21   -1    0    0  501  502 -0.00000000000E+00 -0.00000000000E+00 -0.29378707209E+02  0.29378707209E+02  0.00000000000E+00 0.  1.
      99926    2    1    2    0    0  0.00000000000E+00  0.71054273576E-14  0.17397958993E+04  0.17985533138E+04  0.45596518625E+03 0.  0.
      99925    2    3    3    0    0 -0.30157759265E+02  0.41205085454E+02  0.69218510324E+03  0.74226583503E+03  0.26311785039E+03 0.  0.
         25    1    4    4    0    0 -0.29638850333E+01 -0.15978078031E+02  0.36951030009E+03  0.39044776035E+03  0.12509000000E+03 0.  0.
         25    1    4    4    0    0 -0.27193874232E+02  0.57183163484E+02  0.32267480315E+03  0.35181807468E+03  0.12509000000E+03 0.  0.
         25    1    3    3    0    0  0.30157759265E+02 -0.41205085454E+02  0.10476107961E+04  0.10562874787E+04  0.12509000000E+03 0.  0.
<mgrwt>
<rscale>  2 0.45596519E+03</rscale>
<asrwt>0</asrwt>
<pdfrwt beam="1">  1       21 0.26017266E+00 0.45596519E+03</pdfrwt>
<pdfrwt beam="2">  1       21 0.43203993E-02 0.45596519E+03</pdfrwt>
<totfact> 0.17158338E+04</totfact>
</mgrwt>
</event>
<event>
 7    0  0.4750554E-002  0.4547275E+03  0.7546771E-02  0.1026322E+00
         21   -1    0    0  502  501  0.00000000000E+00  0.00000000000E+00  0.49726693086E+03  0.49726693086E+03  0.00000000000E+00 0.  1.
         21   -1    0    0  501  502 -0.00000000000E+00 -0.00000000000E+00 -0.10395681246E+03  0.10395681246E+03  0.00000000000E+00 0.  1.
      99926    2    1    2    0    0  0.00000000000E+00  0.00000000000E+00  0.39331011840E+03  0.60122374333E+03  0.45472754513E+03 0.  0.
      99925    2    3    3    0    0  0.46970658566E+02 -0.62142759836E+02  0.35569630333E+03  0.44913734502E+03  0.26293826104E+03 0.  0.
         25    1    4    4    0    0 -0.30738235496E+01 -0.25881851728E+02  0.12028699453E+03  0.17548728670E+03  0.12509000000E+03 0.  0.
         25    1    3    3    0    0 -0.46970658566E+02  0.62142759836E+02  0.37613815070E+02  0.15208639831E+03  0.12509000000E+03 0.  0.
         25    1    4    4    0    0  0.50044482116E+02 -0.36260908109E+02  0.23540930880E+03  0.27365005832E+03  0.12509000000E+03 0.  0.
<mgrwt>
<rscale>  2 0.45472755E+03</rscale>
<asrwt>0</asrwt>
<pdfrwt beam="1">  1       21 0.73127489E-01 0.45472755E+03</pdfrwt>
<pdfrwt beam="2">  1       21 0.15287767E-01 0.45472755E+03</pdfrwt>
<totfact> 0.58729329E+04</totfact>
</mgrwt>
</event>
<event>
 7    0  0.4750554E-002  0.4543231E+03  0.7546771E-02  0.1026441E+00
         21   -1    0    0  502  501  0.00000000000E+00  0.00000000000E+00  0.34678419169E+03  0.34678419169E+03  0.00000000000E+00 0. -1.
         21   -1    0    0  501  502 -0.00000000000E+00 -0.00000000000E+00 -0.14880257496E+03  0.14880257496E+03  0.00000000000E+00 0. -1.
      99926    2    1    2    0    0 -0.35527136788E-14  0.00000000000E+00  0.19798161673E+03  0.49558676665E+03  0.45432314790E+03 0.  0.
      99925    2    3    3    0    0  0.73253334062E+01 -0.42891316690E+02  0.23785301253E+03  0.35727349231E+03  0.26301514629E+03 0.  0.
         25    1    3    3    0    0 -0.73253334062E+01  0.42891316690E+02 -0.39871395798E+02  0.13831327434E+03  0.12509000000E+03 0.  0.
         25    1    4    4    0    0 -0.27691628414E+02 -0.47364005277E+02  0.12413151175E+03  0.18457062493E+03  0.12509000000E+03 0.  0.
         25    1    4    4    0    0  0.35016961820E+02  0.44726885866E+01  0.11372150079E+03  0.17270286737E+03  0.12509000000E+03 0.  0.
<mgrwt>
<rscale>  2 0.45432315E+03</rscale>
<asrwt>0</asrwt>
<pdfrwt beam="1">  1       21 0.50997675E-01 0.45432315E+03</pdfrwt>
<pdfrwt beam="2">  1       21 0.21882732E-01 0.45432315E+03</pdfrwt>
<totfact> 0.65935395E+04</totfact>
</mgrwt>
</event>
<event>
 7    0  0.4750554E-002  0.4406311E+03  0.7546771E-02  0.1030553E+00
         21   -1    0    0  502  501  0.00000000000E+00  0.00000000000E+00  0.55684058282E+02  0.55684058282E+02  0.00000000000E+00 0. -1.
         21   -1    0    0  501  502 -0.00000000000E+00 -0.00000000000E+00 -0.87168483751E+03  0.87168483751E+03  0.00000000000E+00 0. -1.
      99926    2    1    2    0    0 -0.71054273576E-14  0.00000000000E+00 -0.81600077923E+03  0.92736889580E+03  0.44063113506E+03 0.  0.
      99925    2    3    3    0    0 -0.60391503863E+02 -0.78428822521E+02 -0.52907500650E+03  0.59908225108E+03  0.26302275019E+03 0.  0.
         25    1    4    4    0    0 -0.51912840351E+02 -0.76427596400E+02 -0.30187976223E+03  0.33958065232E+03  0.12509000000E+03 0.  0.
         25    1    3    3    0    0  0.60391503863E+02  0.78428822521E+02 -0.28692577273E+03  0.32828664472E+03  0.12509000000E+03 0.  0.
         25    1    4    4    0    0 -0.84786635121E+01 -0.20012261207E+01 -0.22719524427E+03  0.25950159876E+03  0.12509000000E+03 0.  0.
<mgrwt>
<rscale>  2 0.44063114E+03</rscale>
<asrwt>0</asrwt>
<pdfrwt beam="1">  1       21 0.81888320E-02 0.44063114E+03</pdfrwt>
<pdfrwt beam="2">  1       21 0.12818895E+00 0.44063114E+03</pdfrwt>
<totfact> 0.47151437E+04</totfact>
</mgrwt>
</event>
<event>
 7    0  0.4750554E-002  0.4550873E+03  0.7546771E-02  0.1026216E+00
         21   -1    0    0  502  501  0.00000000000E+00  0.00000000000E+00  0.12685462028E+03  0.12685462028E+03  0.00000000000E+00 0. -1.
         21   -1    0    0  501  502 -0.00000000000E+00 -0.00000000000E+00 -0.40815319694E+03  0.40815319694E+03  0.00000000000E+00 0. -1.
      99926    2    1    2    0    0  0.35527136788E-14  0.00000000000E+00 -0.28129857666E+03  0.53500781721E+03  0.45508732706E+03 0.  0.
      99925    2    3    3    0    0  0.18518932901E+02 -0.10930425014E+03 -0.14983846944E+03  0.32235872160E+03  0.26300800081E+03 0.  0.
         25    1    4    4    0    0  0.45621650908E+02 -0.66621889757E+02 -0.95637664056E+02  0.17695728895E+03  0.12509000000E+03 0.  0.
         25    1    3    3    0    0 -0.18518932901E+02  0.10930425014E+03 -0.13146010722E+03  0.21264909562E+03  0.12509000000E+03 0.  0.
         25    1    4    4    0    0 -0.27102718008E+02 -0.42682360387E+02 -0.54200805385E+02  0.14540143265E+03  0.12509000000E+03 0.  0.
<mgrwt>
<rscale>  2 0.45508733E+03</rscale>
<asrwt>0</asrwt>
<pdfrwt beam="1">  1       21 0.18655091E-01 0.45508733E+03</pdfrwt>
<pdfrwt beam="2">  1       21 0.60022529E-01 0.45508733E+03</pdfrwt>
<totfact> 0.62824775E+04</totfact>
</mgrwt>
</event>
<event>
 7    0  0.4750554E-002  0.4841077E+03  0.7546771E-02  0.1018012E+00
         21   -1    0    0  502  501  0.00000000000E+00  0.00000000000E+00  0.31641541510E+02  0.31641541510E+02  0.00000000000E+00 0.  1.
         21   -1    0    0  501  502 -0.00000000000E+00 -0.00000000000E+00 -0.18516816148E+04  0.18516816148E+04  0.00000000000E+00 0.  1.
      99926    2    1    2    0    0  0.00000000000E+00  0.00000000000E+00 -0.18200400733E+04  0.18833231563E+04  0.48410767678E+03 0.  0.
      99925    2    3    3    0    0  0.18266885616E+02  0.25045035333E+02 -0.16436893128E+04  0.16649014730E+04  0.26309964834E+03 0.  0.
         25    1    4    4    0    0  0.19100495091E+02  0.41824588965E+02 -0.10109711746E+04  0.10197177792E+04  0.12509000000E+03 0.  0.
         25    1    3    3    0    0 -0.18266885616E+02 -0.25045035333E+02 -0.17635076049E+03  0.21842168329E+03  0.12509000000E+03 0.  0.
         25    1    4    4    0    0 -0.83360947571E+00 -0.16779553632E+02 -0.63271813819E+03  0.64518369386E+03  0.12509000000E+03 0.  0.
<mgrwt>
<rscale>  2 0.48410768E+03</rscale>
<asrwt>0</asrwt>
<pdfrwt beam="1">  1       21 0.46531668E-02 0.48410768E+03</pdfrwt>
<pdfrwt beam="2">  1       21 0.27230618E+00 0.48410768E+03</pdfrwt>
<totfact> 0.12610467E+04</totfact>
</mgrwt>
</event>
<event>
 7    0  0.4750554E-002  0.4579919E+03  0.7546771E-02  0.1025365E+00
         21   -1    0    0  502  501  0.00000000000E+00  0.00000000000E+00  0.81428843400E+03  0.81428843400E+03  0.00000000000E+00 0. -1.
         21   -1    0    0  501  502 -0.00000000000E+00 -0.00000000000E+00 -0.64398730896E+02  0.64398730896E+02  0.00000000000E+00 0. -1.
      99926    2    1    2    0    0  0.14210854715E-13  0.14210854715E-13  0.74988970311E+03  0.87868716490E+03  0.45799188522E+03 0.  0.
      99925    2    3    3    0    0 -0.67794008039E+02 -0.94352815618E+02  0.46745973011E+03  0.54866795472E+03  0.26271551899E+03 0.  0.
         25    1    3    3    0    0  0.67794008039E+02  0.94352815618E+02  0.28242997300E+03  0.33001921018E+03  0.12509000000E+03 0.  0.
         25    1    4    4    0    0 -0.23369568744E+02 -0.27677675824E+02  0.28530073470E+03  0.31361793285E+03  0.12509000000E+03 0.  0.
         25    1    4    4    0    0 -0.44424439295E+02 -0.66675139794E+02  0.18215899541E+03  0.23505002187E+03  0.12509000000E+03 0.  0.
<mgrwt>
<rscale>  2 0.45799189E+03</rscale>
<asrwt>0</asrwt>
<pdfrwt beam="1">  1       21 0.11974829E+00 0.45799189E+03</pdfrwt>
<pdfrwt beam="2">  1       21 0.94704021E-02 0.45799189E+03</pdfrwt>
<totfact> 0.43148047E+04</totfact>
</mgrwt>
</event>
<event>
 7    0  0.4750554E-002  0.4539837E+03  0.7546771E-02  0.1026541E+00
         21   -1    0    0  502  501  0.00000000000E+00  0.00000000000E+00  0.75220541600E+03  0.75220541600E+03  0.00000000000E+00 0. -1.
         21   -1    0    0  501  502 -0.00000000000E+00 -0.00000000000E+00 -0.68498968954E+02  0.68498968954E+02  0.00000000000E+00 0. -1.
      99926    2    1    2    0    0  0.00000000000E+00  0.35527136788E-14  0.68370644705E+03  0.82070438495E+03  0.45398368005E+03 0.  0.
      99925    2    3    3    0    0 -0.69365568042E+02 -0.10109752613E+02  0.58894743796E+03  0.64883068996E+03  0.26307487609E+03 0.  0.
         25    1    3    3    0    0  0.69365568042E+02  0.10109752613E+02  0.94759009088E+02  0.17187369499E+03  0.12509000000E+03 0.  0.
         25    1    4    4    0    0 -0.66877220100E+02 -0.31550514189E+02  0.31269496758E+03  0.34480958277E+03  0.12509000000E+03 0.  0.
         25    1    4    4    0    0 -0.24883479418E+01  0.21440761576E+02  0.27625247037E+03  0.30402110719E+03  0.12509000000E+03 0.  0.
<mgrwt>
<rscale>  2 0.45398368E+03</rscale>
<asrwt>0</asrwt>
<pdfrwt beam="1">  1       21 0.11061844E+00 0.45398368E+03</pdfrwt>
<pdfrwt beam="2">  1       21 0.10073378E-01 0.45398368E+03</pdfrwt>
<totfact> 0.47154541E+04</totfact>
</mgrwt>
</event>
<event>
 7    0  0.4750554E-002  0.4528663E+03  0.7546771E-02  0.1026871E+00
         21   -1    0    0  502  501  0.00000000000E+00  0.00000000000E+00  0.62645222019E+02  0.62645222019E+02  0.00000000000E+00 0. -1.
         21   -1    0    0  501  502 -0.00000000000E+00 -0.00000000000E+00 -0.81844990823E+03  0.81844990823E+03  0.00000000000E+00 0. -1.
      99926    2    1    2    0    0  0.00000000000E+00  0.00000000000E+00 -0.75580468621E+03  0.88109513025E+03  0.45286632117E+03 0.  0.
      99925    2    3    3    0    0  0.73534007142E+02  0.82491879295E+02 -0.45277347756E+03  0.53513619935E+03  0.26297294445E+03 0.  0.
         25    1    3    3    0    0 -0.73534007142E+02 -0.82491879295E+02 -0.30303120865E+03  0.34595893091E+03  0.12509000000E+03 0.  0.
         25    1    4    4    0    0  0.68802729802E+02  0.62449492820E+02 -0.28543095877E+03  0.32519547215E+03  0.12509000000E+03 0.  0.
         25    1    4    4    0    0  0.47312773401E+01  0.20042386475E+02 -0.16734251880E+03  0.20994072720E+03  0.12509000000E+03 0.  0.
<mgrwt>
<rscale>  2 0.45286632E+03</rscale>
<asrwt>0</asrwt>
<pdfrwt beam="1">  1       21 0.92125326E-02 0.45286632E+03</pdfrwt>
<pdfrwt beam="2">  1       21 0.12036028E+00 0.45286632E+03</pdfrwt>
<totfact> 0.44805225E+04</totfact>
</mgrwt>
</event>
<event>
 7    0  0.4750554E-002  0.4563131E+03  0.7546771E-02  0.1025856E+00
         21   -1    0    0  502  501  0.00000000000E+00  0.00000000000E+00  0.18184974239E+03  0.18184974239E+03  0.00000000000E+00 0. -1.
         21   -1    0    0  501  502 -0.00000000000E+00 -0.00000000000E+00 -0.28625504608E+03  0.28625504608E+03  0.00000000000E+00 0. -1.
      99926    2    1    2    0    0  0.14210854715E-13 -0.88817841970E-15 -0.10440530368E+03  0.46810478847E+03  0.45631307844E+03 0.  0.
      99925    2    3    3    0    0 -0.11418289067E+03 -0.25649586813E+01 -0.53216414546E+02  0.29115247284E+03  0.26247564484E+03 0.  0.
         25    1    3    3    0    0  0.11418289067E+03  0.25649586813E+01 -0.51188889138E+02  0.17695231563E+03  0.12509000000E+03 0.  0.
         25    1    4    4    0    0 -0.68504133518E+02 -0.39611532026E+02 -0.28209938709E+02  0.15068244264E+03  0.12509000000E+03 0.  0.
         25    1    4    4    0    0 -0.45678757149E+02  0.37046573345E+02 -0.25006475837E+02  0.14047003020E+03  0.12509000000E+03 0.  0.
<mgrwt>
<rscale>  2 0.45631308E+03</rscale>
<asrwt>0</asrwt>
<pdfrwt beam="1">  1       21 0.26742610E-01 0.45631308E+03</pdfrwt>
<pdfrwt beam="2">  1       21 0.42096330E-01 0.45631308E+03</pdfrwt>
<totfact> 0.66877901E+04</totfact>
</mgrwt>
</event>
<event>
 7    0  0.4750554E-002  0.4720750E+03  0.7546771E-02  0.1021336E+00
         21   -1    0    0  502  501  0.00000000000E+00  0.00000000000E+00  0.87073302521E+02  0.87073302521E+02  0.00000000000E+00 0. -1.
         21   -1    0    0  501  502 -0.00000000000E+00 -0.00000000000E+00 -0.63984819979E+03  0.63984819979E+03  0.00000000000E+00 0. -1.
      99926    2    1    2    0    0  0.14210854715E-13  0.00000000000E+00 -0.55277489727E+03  0.72692150231E+03  0.47207497654E+03 0.  0.
      99925    2    3    3    0    0 -0.93993951814E+02 -0.75822229348E+02 -0.27092050429E+03  0.39575193791E+03  0.26198817393E+03 0.  0.
         25    1    4    4    0    0 -0.72975892157E+02 -0.11260979041E+02 -0.15240895722E+03  0.21054284321E+03  0.12509000000E+03 0.  0.
         25    1    4    4    0    0 -0.21018059657E+02 -0.64561250307E+02 -0.11851154706E+03  0.18520909470E+03  0.12509000000E+03 0.  0.
         25    1    3    3    0    0  0.93993951814E+02  0.75822229348E+02 -0.28185439299E+03  0.33116956440E+03  0.12509000000E+03 0.  0.
<mgrwt>
<rscale>  2 0.47207498E+03</rscale>
<asrwt>0</asrwt>
<pdfrwt beam="1">  1       21 0.12804897E-01 0.47207498E+03</pdfrwt>
<pdfrwt beam="2">  1       21 0.94095323E-01 0.47207498E+03</pdfrwt>
<totfact> 0.45097498E+04</totfact>
</mgrwt>
</event>
<event>
 7    0  0.4750554E-002  0.4557846E+03  0.7546771E-02  0.1026011E+00
         21   -1    0    0  502  501  0.00000000000E+00  0.00000000000E+00  0.39264348616E+03  0.39264348616E+03  0.00000000000E+00 0. -1.
         21   -1    0    0  501  502 -0.00000000000E+00 -0.00000000000E+00 -0.13226988994E+03  0.13226988994E+03  0.00000000000E+00 0. -1.
      99926    2    1    2    0    0  0.00000000000E+00  0.00000000000E+00  0.26037359622E+03  0.52491337611E+03  0.45578464520E+03 0.  0.
      99925    2    3    3    0    0 -0.27638578744E+02 -0.26352348500E+02  0.28732520674E+03  0.39137598540E+03  0.26298488590E+03 0.  0.
         25    1    4    4    0    0 -0.31547387309E+02  0.23178624390E+02  0.13712436483E+03  0.18969208156E+03  0.12509000000E+03 0.  0.
         25    1    4    4    0    0  0.39088085658E+01 -0.49530972891E+02  0.15020084191E+03  0.20168390384E+03  0.12509000000E+03 0.  0.
         25    1    3    3    0    0  0.27638578744E+02  0.26352348500E+02 -0.26951610518E+02  0.13353739070E+03  0.12509000000E+03 0.  0.
<mgrwt>
<rscale>  2 0.45578465E+03</rscale>
<asrwt>0</asrwt>
<pdfrwt beam="1">  1       21 0.57741689E-01 0.45578465E+03</pdfrwt>
<pdfrwt beam="2">  1       21 0.19451455E-01 0.45578465E+03</pdfrwt>
<totfact> 0.63158385E+04</totfact>
</mgrwt>
</event>
<event>
 7    0  0.4750554E-002  0.4602630E+03  0.7546771E-02  0.1024705E+00
         21   -1    0    0  502  501  0.00000000000E+00  0.00000000000E+00  0.14833444277E+03  0.14833444277E+03  0.00000000000E+00 0.  1.
         21   -1    0    0  501  502 -0.00000000000E+00 -0.00000000000E+00 -0.35703440670E+03  0.35703440670E+03  0.00000000000E+00 0.  1.
      99926    2    1    2    0    0  0.71054273576E-14  0.00000000000E+00 -0.20869996393E+03  0.50536884946E+03  0.46026296729E+03 0.  0.
      99925    2    3    3    0    0 -0.42232448587E+02 -0.10600696745E+03 -0.16354374937E+03  0.33013286950E+03  0.26309712409E+03 0.  0.
         25    1    3    3    0    0  0.42232448587E+02  0.10600696745E+03 -0.45156214561E+02  0.17523597997E+03  0.12509000000E+03 0.  0.
         25    1    4    4    0    0 -0.69668177194E+01 -0.20687336022E+02 -0.10219863538E+03  0.16299868586E+03  0.12509000000E+03 0.  0.
         25    1    4    4    0    0 -0.35265630867E+02 -0.85319631427E+02 -0.61345113996E+02  0.16713418363E+03  0.12509000000E+03 0.  0.
<mgrwt>
<rscale>  2 0.46026297E+03</rscale>
<asrwt>0</asrwt>
<pdfrwt beam="1">  1       21 0.21813889E-01 0.46026297E+03</pdfrwt>
<pdfrwt beam="2">  1       21 0.52505059E-01 0.46026297E+03</pdfrwt>
<totfact> 0.62253478E+04</totfact>
</mgrwt>
</event>
<event>
 7    0  0.4750554E-002  0.4649651E+03  0.7546771E-02  0.1023351E+00
         21   -1    0    0  502  501  0.00000000000E+00  0.00000000000E+00  0.13897572006E+04  0.13897572006E+04  0.00000000000E+00 0. -1.
         21   -1    0    0  501  502 -0.00000000000E+00 -0.00000000000E+00 -0.38890341500E+02  0.38890341500E+02  0.00000000000E+00 0. -1.
      99926    2    1    2    0    0  0.00000000000E+00  0.00000000000E+00  0.13508668591E+04  0.14286475421E+04  0.46496508314E+03 0.  0.
      99925    2    3    3    0    0 -0.80466045172E+02 -0.71032172726E+02  0.10226235885E+04  0.10613445244E+04  0.26300730375E+03 0.  0.
         25    1    3    3    0    0  0.80466045172E+02  0.71032172726E+02  0.32824327067E+03  0.36730301773E+03  0.12509000000E+03 0.  0.
         25    1    4    4    0    0 -0.26066031558E+02 -0.73914808905E+02  0.53640399304E+03  0.55634484703E+03  0.12509000000E+03 0.  0.
         25    1    4    4    0    0 -0.54400013615E+02  0.28826361786E+01  0.48621959542E+03  0.50499967737E+03  0.12509000000E+03 0.  0.
<mgrwt>
<rscale>  2 0.46496508E+03</rscale>
<asrwt>0</asrwt>
<pdfrwt beam="1">  1       21 0.20437603E+00 0.46496508E+03</pdfrwt>
<pdfrwt beam="2">  1       21 0.57191688E-02 0.46496508E+03</pdfrwt>
<totfact> 0.23690389E+04</totfact>
</mgrwt>
</event>
<event>
 7    0  0.4750554E-002  0.4531917E+03  0.7546771E-02  0.1026774E+00
         21   -1    0    0  502  501  0.00000000000E+00  0.00000000000E+00  0.30818543929E+03  0.30818543929E+03  0.00000000000E+00 0. -1.
         21   -1    0    0  501  502 -0.00000000000E+00 -0.00000000000E+00 -0.16660645807E+03  0.16660645807E+03  0.00000000000E+00 0. -1.
      99926    2    1    2    0    0  0.00000000000E+00  0.00000000000E+00  0.14157898122E+03  0.47479189735E+03  0.45319172308E+03 0.  0.
      99925    2    3    3    0    0  0.40572780313E+02 -0.99687199522E+02  0.60711672597E+02  0.29102378816E+03  0.26348671662E+03 0.  0.
         25    1    4    4    0    0  0.19377729718E+02 -0.31318483308E+02  0.67319787859E+02  0.14675082876E+03  0.12509000000E+03 0.  0.
         25    1    3    3    0    0 -0.40572780313E+02  0.99687199522E+02  0.80867308626E+02  0.18376810919E+03  0.12509000000E+03 0.  0.
         25    1    4    4    0    0  0.21195050595E+02 -0.68368716214E+02 -0.66081152617E+01  0.14427295940E+03  0.12509000000E+03 0.  0.
<mgrwt>
<rscale>  2 0.45319172E+03</rscale>
<asrwt>0</asrwt>
<pdfrwt beam="1">  1       21 0.45321388E-01 0.45319172E+03</pdfrwt>
<pdfrwt beam="2">  1       21 0.24500950E-01 0.45319172E+03</pdfrwt>
<totfact> 0.68052585E+04</totfact>
</mgrwt>
</event>
<event>
 7    0  0.4750554E-002  0.4347279E+03  0.7546771E-02  0.1032377E+00
         21   -1    0    0  502  501  0.00000000000E+00  0.00000000000E+00  0.90752465043E+02  0.90752465043E+02  0.00000000000E+00 0.  1.
         21   -1    0    0  501  502 -0.00000000000E+00 -0.00000000000E+00 -0.52061483500E+03  0.52061483500E+03  0.00000000000E+00 0.  1.
      99926    2    1    2    0    0  0.00000000000E+00  0.17763568394E-14 -0.42986236995E+03  0.61136730004E+03  0.43472786713E+03 0.  0.
      99925    2    3    3    0    0  0.11970066415E+02  0.10170101962E+02 -0.40455908425E+03  0.48278083951E+03  0.26298778087E+03 0.  0.
         25    1    4    4    0    0 -0.18501070222E+02  0.18279890140E+02 -0.14730810019E+03  0.19499648321E+03  0.12509000000E+03 0.  0.
         25    1    3    3    0    0 -0.11970066415E+02 -0.10170101962E+02 -0.25303285705E+02  0.12858646053E+03  0.12509000000E+03 0.  0.
         25    1    4    4    0    0  0.30471136637E+02 -0.81097881789E+01 -0.25725098406E+03  0.28778435630E+03  0.12509000000E+03 0.  0.
<mgrwt>
<rscale>  2 0.43472787E+03</rscale>
<asrwt>0</asrwt>
<pdfrwt beam="1">  1       21 0.13345951E-01 0.43472787E+03</pdfrwt>
<pdfrwt beam="2">  1       21 0.76561004E-01 0.43472787E+03</pdfrwt>
<totfact> 0.68275969E+04</totfact>
</mgrwt>
</event>
<event>
 7    0  0.4750554E-002  0.4631379E+03  0.7546771E-02  0.1023875E+00
         21   -1    0    0  502  501  0.00000000000E+00  0.00000000000E+00  0.24691970936E+03  0.24691970936E+03  0.00000000000E+00 0.  1.
         21   -1    0    0  501  502 -0.00000000000E+00 -0.00000000000E+00 -0.21717249508E+03  0.21717249508E+03  0.00000000000E+00 0.  1.
      99926    2    1    2    0    0  0.00000000000E+00  0.71054273576E-14  0.29747214279E+02  0.46409220445E+03  0.46313786012E+03 0.  0.
      99925    2    3    3    0    0  0.33866991389E+02  0.49029771188E+02 -0.86492912894E+02  0.28323268207E+03  0.26303770955E+03 0.  0.
         25    1    3    3    0    0 -0.33866991389E+02 -0.49029771188E+02  0.11624012717E+03  0.18085952238E+03  0.12509000000E+03 0.  0.
         25    1    4    4    0    0  0.28812415859E+02  0.49604908108E+02 -0.76966467992E+02  0.15767735256E+03  0.12509000000E+03 0.  0.
         25    1    4    4    0    0  0.50545755300E+01 -0.57513692014E+00 -0.95264449025E+01  0.12555532951E+03  0.12509000000E+03 0.  0.
<mgrwt>
<rscale>  2 0.46313786E+03</rscale>
<asrwt>0</asrwt>
<pdfrwt beam="1">  1       21 0.36311722E-01 0.46313786E+03</pdfrwt>
<pdfrwt beam="2">  1       21 0.31937132E-01 0.46313786E+03</pdfrwt>
<totfact> 0.63650473E+04</totfact>
</mgrwt>
</event>
<event>
 7    0  0.4750554E-002  0.4420923E+03  0.7546771E-02  0.1030107E+00
         21   -1    0    0  502  501  0.00000000000E+00  0.00000000000E+00  0.23827964240E+03  0.23827964240E+03  0.00000000000E+00 0. -1.
         21   -1    0    0  501  502 -0.00000000000E+00 -0.00000000000E+00 -0.20505905818E+03  0.20505905818E+03  0.00000000000E+00 0. -1.
      99926    2    1    2    0    0 -0.71054273576E-14  0.00000000000E+00  0.33220584224E+02  0.44333870058E+03  0.44209229378E+03 0.  0.
      99925    2    3    3    0    0  0.61705471906E+02  0.77913392721E+01  0.10035822042E+03  0.28834437641E+03  0.26306356033E+03 0.  0.
         25    1    3    3    0    0 -0.61705471906E+02 -0.77913392721E+01 -0.67137636193E+02  0.15499432417E+03  0.12509000000E+03 0.  0.
         25    1    4    4    0    0  0.38645479955E+02 -0.51741139176E+01  0.92225985783E+02  0.16022916442E+03  0.12509000000E+03 0.  0.
         25    1    4    4    0    0  0.23059991950E+02  0.12965453190E+02  0.81322346335E+01  0.12811521200E+03  0.12509000000E+03 0.  0.
<mgrwt>
<rscale>  2 0.44209229E+03</rscale>
<asrwt>0</asrwt>
<pdfrwt beam="1">  1       21 0.35041124E-01 0.44209229E+03</pdfrwt>
<pdfrwt beam="2">  1       21 0.30155744E-01 0.44209229E+03</pdfrwt>
<totfact> 0.77042594E+04</totfact>
</mgrwt>
</event>
<event>
 7    0  0.4750554E-002  0.4575016E+03  0.7546771E-02  0.1025508E+00
         21   -1    0    0  502  501  0.00000000000E+00  0.00000000000E+00  0.58289889223E+03  0.58289889223E+03  0.00000000000E+00 0. -1.
         21   -1    0    0  501  502 -0.00000000000E+00 -0.00000000000E+00 -0.89770167260E+02  0.89770167260E+02  0.00000000000E+00 0. -1.
      99926    2    1    2    0    0  0.00000000000E+00  0.14210854715E-13  0.49312872497E+03  0.67266905949E+03  0.45750161115E+03 0.  0.
      99925    2    3    3    0    0  0.70686660914E+01 -0.11487753241E+03  0.29426190872E+03  0.41105420479E+03  0.26292332507E+03 0.  0.
         25    1    3    3    0    0 -0.70686660914E+01  0.11487753241E+03  0.19886681625E+03  0.26161485469E+03  0.12509000000E+03 0.  0.
         25    1    4    4    0    0  0.76235637312E+01 -0.14548870708E+02  0.11768116502E+03  0.17252870214E+03  0.12509000000E+03 0.  0.
         25    1    4    4    0    0 -0.55489763982E+00 -0.10032866170E+03  0.17658074370E+03  0.23852550265E+03  0.12509000000E+03 0.  0.
<mgrwt>
<rscale>  2 0.45750161E+03</rscale>
<asrwt>0</asrwt>
<pdfrwt beam="1">  1       21 0.85720424E-01 0.45750161E+03</pdfrwt>
<pdfrwt beam="2">  1       21 0.13201495E-01 0.45750161E+03</pdfrwt>
<totfact> 0.53352495E+04</totfact>
</mgrwt>
</event>
<event>
 7    0  0.4750554E-002  0.4552797E+03  0.7546771E-02  0.1026159E+00
         21   -1    0    0  502  501  0.00000000000E+00  0.00000000000E+00  0.38670434483E+03  0.38670434483E+03  0.00000000000E+00 0. -1.
         21   -1    0    0  501  502 -0.00000000000E+00 -0.00000000000E+00 -0.13400392172E+03  0.13400392172E+03  0.00000000000E+00 0. -1.
      99926    2    1    2    0    0  0.00000000000E+00  0.14210854715E-13  0.25270042311E+03  0.52070826655E+03  0.45527968877E+03 0.  0.
      99925    2    3    3    0    0 -0.70228694074E+02  0.88094535813E+02  0.14345942312E+03  0.32002488186E+03  0.26294980931E+03 0.  0.
         25    1    3    3    0    0  0.70228694074E+02 -0.88094535813E+02  0.10924099998E+03  0.20068338469E+03  0.12509000000E+03 0.  0.
         25    1    4    4    0    0 -0.32957315473E+02  0.48825245181E+02  0.27292866163E+02  0.14093437428E+03  0.12509000000E+03 0.  0.
         25    1    4    4    0    0 -0.37271378601E+02  0.39269290632E+02  0.11616655696E+03  0.17909050758E+03  0.12509000000E+03 0.  0.
<mgrwt>
<rscale>  2 0.45527969E+03</rscale>
<asrwt>0</asrwt>
<pdfrwt beam="1">  1       21 0.56868286E-01 0.45527969E+03</pdfrwt>
<pdfrwt beam="2">  1       21 0.19706459E-01 0.45527969E+03</pdfrwt>
<totfact> 0.63697573E+04</totfact>
</mgrwt>
</event>
<event>
 7    0  0.4750554E-002  0.4650849E+03  0.7546771E-02  0.1023317E+00
         21   -1    0    0  502  501  0.00000000000E+00  0.00000000000E+00  0.46538032353E+03  0.46538032353E+03  0.00000000000E+00 0. -1.
         21   -1    0    0  501  502 -0.00000000000E+00 -0.00000000000E+00 -0.11619743206E+03  0.11619743206E+03  0.00000000000E+00 0. -1.
      99926    2    1    2    0    0  0.00000000000E+00  0.71054273576E-14  0.34918289147E+03  0.58157775560E+03  0.46508493215E+03 0.  0.
      99925    2    3    3    0    0 -0.85019418135E+02  0.58323621417E+02  0.30024337452E+03  0.41224810464E+03  0.26300659604E+03 0.  0.
         25    1    4    4    0    0 -0.25283448356E+02  0.62595326947E+02  0.17427206432E+03  0.22489039157E+03  0.12509000000E+03 0.  0.
         25    1    3    3    0    0  0.85019418135E+02 -0.58323621417E+02  0.48939516950E+02  0.16932965096E+03  0.12509000000E+03 0.  0.
         25    1    4    4    0    0 -0.59735969779E+02 -0.42717055298E+01  0.12597131020E+03  0.18735771307E+03  0.12509000000E+03 0.  0.
<mgrwt>
<rscale>  2 0.46508493E+03</rscale>
<asrwt>0</asrwt>
<pdfrwt beam="1">  1       21 0.68438282E-01 0.46508493E+03</pdfrwt>
<pdfrwt beam="2">  1       21 0.17087858E-01 0.46508493E+03</pdfrwt>
<totfact> 0.55285367E+04</totfact>
</mgrwt>
</event>
<event>
 7    0  0.4750554E-002  0.4461665E+03  0.7546771E-02  0.1028871E+00
         21   -1    0    0  502  501  0.00000000000E+00  0.00000000000E+00  0.50462335085E+03  0.50462335085E+03  0.00000000000E+00 0.  1.
         21   -1    0    0  501  502 -0.00000000000E+00 -0.00000000000E+00 -0.98620369607E+02  0.98620369607E+02  0.00000000000E+00 0.  1.
      99926    2    1    2    0    0  0.00000000000E+00 -0.71054273576E-14  0.40600298125E+03  0.60324372046E+03  0.44616652216E+03 0.  0.
      99925    2    3    3    0    0 -0.77305678789E+02 -0.53094562877E+02  0.19480319247E+03  0.34047374603E+03  0.26301879659E+03 0.  0.
         25    1    4    4    0    0 -0.68136034596E+02 -0.40702625880E+02  0.72820454276E+02  0.16507437604E+03  0.12509000000E+03 0.  0.
         25    1    3    3    0    0  0.77305678789E+02  0.53094562877E+02  0.21119978878E+03  0.26276997443E+03  0.12509000000E+03 0.  0.
         25    1    4    4    0    0 -0.91696441939E+01 -0.12391936997E+02  0.12198273819E+03  0.17539936999E+03  0.12509000000E+03 0.  0.
<mgrwt>
<rscale>  2 0.44616652E+03</rscale>
<asrwt>0</asrwt>
<pdfrwt beam="1">  1       21 0.74209315E-01 0.44616652E+03</pdfrwt>
<pdfrwt beam="2">  1       21 0.14502996E-01 0.44616652E+03</pdfrwt>
<totfact> 0.62744415E+04</totfact>
</mgrwt>
</event>
<event>
 7    0  0.4750554E-002  0.4610515E+03  0.7546771E-02  0.1024477E+00
         21   -1    0    0  502  501  0.00000000000E+00  0.00000000000E+00  0.23467108485E+03  0.23467108485E+03  0.00000000000E+00 0.  1.
         21   -1    0    0  501  502 -0.00000000000E+00 -0.00000000000E+00 -0.22645366551E+03  0.22645366551E+03  0.00000000000E+00 0.  1.
      99926    2    1    2    0    0  0.14210854715E-13  0.00000000000E+00  0.82174193402E+01  0.46112475036E+03  0.46105152577E+03 0.  0.
      99925    2    3    3    0    0  0.10394608673E+03  0.48298992361E+02  0.36003090101E+02  0.28920286923E+03  0.26306747322E+03 0.  0.
         25    1    3    3    0    0 -0.10394608673E+03 -0.48298992361E+02 -0.27785670761E+02  0.17192188113E+03  0.12509000000E+03 0.  0.
         25    1    4    4    0    0  0.94565794482E+02  0.19574811200E+02  0.25667673558E+02  0.16010059427E+03  0.12509000000E+03 0.  0.
         25    1    4    4    0    0  0.93802922520E+01  0.28724181161E+02  0.10335416543E+02  0.12910227497E+03  0.12509000000E+03 0.  0.
<mgrwt>
<rscale>  2 0.46105153E+03</rscale>
<asrwt>0</asrwt>
<pdfrwt beam="1">  1       21 0.34510454E-01 0.46105153E+03</pdfrwt>
<pdfrwt beam="2">  1       21 0.33302009E-01 0.46105153E+03</pdfrwt>
<totfact> 0.64908253E+04</totfact>
</mgrwt>
</event>
<event>
 7    0  0.4750554E-002  0.4508802E+03  0.7546771E-02  0.1027460E+00
         21   -1    0    0  502  501  0.00000000000E+00  0.00000000000E+00  0.41113898583E+03  0.41113898583E+03  0.00000000000E+00 0.  1.
         21   -1    0    0  501  502 -0.00000000000E+00 -0.00000000000E+00 -0.12361569297E+03  0.12361569297E+03  0.00000000000E+00 0.  1.
      99926    2    1    2    0    0  0.00000000000E+00 -0.17763568394E-14  0.28752329286E+03  0.53475467880E+03  0.45088016430E+03 0.  0.
      99925    2    3    3    0    0  0.67073789212E+02 -0.57389324870E+01  0.79556357232E+02  0.28290237493E+03  0.26300705546E+03 0.  0.
         25    1    3    3    0    0 -0.67073789212E+02  0.57389324870E+01  0.20796693563E+03  0.25185230386E+03  0.12509000000E+03 0.  0.
         25    1    4    4    0    0  0.52578907857E+02  0.18403812923E+02  0.71381185621E+02  0.15442157764E+03  0.12509000000E+03 0.  0.
         25    1    4    4    0    0  0.14494881355E+02 -0.24142745410E+02  0.81751716110E+01  0.12848079729E+03  0.12509000000E+03 0.  0.
<mgrwt>
<rscale>  2 0.45088016E+03</rscale>
<asrwt>0</asrwt>
<pdfrwt beam="1">  1       21 0.60461615E-01 0.45088016E+03</pdfrwt>
<pdfrwt beam="2">  1       21 0.18178778E-01 0.45088016E+03</pdfrwt>
<totfact> 0.64978361E+04</totfact>
</mgrwt>
</event>
<event>
 7    0  0.4750554E-002  0.4544408E+03  0.7546771E-02  0.1026406E+00
         21   -1    0    0  502  501  0.00000000000E+00  0.00000000000E+00  0.45036084942E+03  0.45036084942E+03  0.00000000000E+00 0. -1.
         21   -1    0    0  501  502 -0.00000000000E+00 -0.00000000000E+00 -0.11463943345E+03  0.11463943345E+03  0.00000000000E+00 0. -1.
      99926    2    1    2    0    0  0.14210854715E-13  0.00000000000E+00  0.33572141597E+03  0.56500028288E+03  0.45444081079E+03 0.  0.
      99925    2    3    3    0    0 -0.72174365354E+02 -0.77057170355E+02  0.16248817021E+03  0.32666394059E+03  0.26298284755E+03 0.  0.
         25    1    3    3    0    0  0.72174365354E+02  0.77057170355E+02  0.17323324577E+03  0.23833634229E+03  0.12509000000E+03 0.  0.
         25    1    4    4    0    0 -0.68041953319E+02 -0.16484941504E+02  0.68831767202E+02  0.15901817816E+03  0.12509000000E+03 0.  0.
         25    1    4    4    0    0 -0.41324120346E+01 -0.60572228852E+02  0.93656403006E+02  0.16764576243E+03  0.12509000000E+03 0.  0.
<mgrwt>
<rscale>  2 0.45444081E+03</rscale>
<asrwt>0</asrwt>
<pdfrwt beam="1">  1       21 0.66229536E-01 0.45444081E+03</pdfrwt>
<pdfrwt beam="2">  1       21 0.16858740E-01 0.45444081E+03</pdfrwt>
<totfact> 0.61156047E+04</totfact>
</mgrwt>
</event>
<event>
 7    0  0.4750554E-002  0.4546987E+03  0.7546771E-02  0.1026330E+00
         21   -1    0    0  502  501  0.00000000000E+00  0.00000000000E+00  0.20749752397E+03  0.20749752397E+03  0.00000000000E+00 0. -1.
         21   -1    0    0  501  502 -0.00000000000E+00 -0.00000000000E+00 -0.24910043333E+03  0.24910043333E+03  0.00000000000E+00 0. -1.
      99926    2    1    2    0    0  0.00000000000E+00  0.00000000000E+00 -0.41602909370E+02  0.45659795730E+03  0.45469868324E+03 0.  0.
      99925    2    3    3    0    0  0.41615428080E+02  0.10398426662E+03 -0.40335674593E+02  0.28868820314E+03  0.26300064720E+03 0.  0.
         25    1    4    4    0    0 -0.16361522013E+02  0.38201204877E+02 -0.32314222591E+02  0.13571569010E+03  0.12509000000E+03 0.  0.
         25    1    4    4    0    0  0.57976950093E+02  0.65783061742E+02 -0.80214520014E+01  0.15297251304E+03  0.12509000000E+03 0.  0.
         25    1    3    3    0    0 -0.41615428080E+02 -0.10398426662E+03 -0.12672347771E+01  0.16790975416E+03  0.12509000000E+03 0.  0.
<mgrwt>
<rscale>  2 0.45469868E+03</rscale>
<asrwt>0</asrwt>
<pdfrwt beam="1">  1       21 0.30514342E-01 0.45469868E+03</pdfrwt>
<pdfrwt beam="2">  1       21 0.36632417E-01 0.45469868E+03</pdfrwt>
<totfact> 0.68593658E+04</totfact>
</mgrwt>
</event>
<event>
 7    0  0.4750554E-002  0.4534369E+03  0.7546771E-02  0.1026702E+00
         21   -1    0    0  502  501  0.00000000000E+00  0.00000000000E+00  0.15309368137E+03  0.15309368137E+03  0.00000000000E+00 0.  1.
         21   -1    0    0  501  502 -0.00000000000E+00 -0.00000000000E+00 -0.33575030548E+03  0.33575030548E+03  0.00000000000E+00 0.  1.
      99926    2    1    2    0    0  0.00000000000E+00  0.00000000000E+00 -0.18265662410E+03  0.48884398685E+03  0.45343687670E+03 0.  0.
      99925    2    3    3    0    0 -0.39733986466E+02  0.47196163278E+02 -0.21518193088E+03  0.34562502445E+03  0.26333842607E+03 0.  0.
         25    1    4    4    0    0  0.38849405234E+01  0.46465208268E+02 -0.13935509555E+03  0.19298046300E+03  0.12509000000E+03 0.  0.
         25    1    3    3    0    0  0.39733986466E+02 -0.47196163278E+02  0.32525306776E+02  0.14321896240E+03  0.12509000000E+03 0.  0.
         25    1    4    4    0    0 -0.43618926990E+02  0.73095500990E+00 -0.75826835323E+02  0.15264456146E+03  0.12509000000E+03 0.  0.
<mgrwt>
<rscale>  2 0.45343688E+03</rscale>
<asrwt>0</asrwt>
<pdfrwt beam="1">  1       21 0.22513777E-01 0.45343688E+03</pdfrwt>
<pdfrwt beam="2">  1       21 0.49375045E-01 0.45343688E+03</pdfrwt>
<totfact> 0.66887914E+04</totfact>
</mgrwt>
</event>
<event>
 6    0  0.4750554E-002  0.4524364E+03  0.7546771E-02  0.1026998E+00
         21   -1    0    0  502  501  0.00000000000E+00  0.00000000000E+00  0.33154910600E+03  0.33154910600E+03  0.00000000000E+00 0. -1.
         21   -1    0    0  501  502 -0.00000000000E+00 -0.00000000000E+00 -0.15435018101E+03  0.15435018101E+03  0.00000000000E+00 0. -1.
      99926    2    1    2    0    0  0.00000000000E+00  0.00000000000E+00  0.17719892499E+03  0.48589928702E+03  0.45243635807E+03 0.  0.
         25    1    3    3    0    0  0.73115134589E+02  0.79149831680E+02  0.63796887738E+02  0.17699737214E+03  0.12509000000E+03 0.  0.
         25    1    3    3    0    0 -0.59816265914E+02 -0.19832647636E+02  0.93497419749E+02  0.16840604259E+03  0.12509000000E+03 0.  0.
         25    1    3    3    0    0 -0.13298868675E+02 -0.59317184044E+02  0.19904617506E+02  0.14049587228E+03  0.12509000000E+03 0.  0.
<mgrwt>
<rscale>  2 0.45243636E+03</rscale>
<asrwt>0</asrwt>
<pdfrwt beam="1">  1       21 0.48757221E-01 0.45243636E+03</pdfrwt>
<pdfrwt beam="2">  1       21 0.22698556E-01 0.45243636E+03</pdfrwt>
<totfact> 0.67639246E+04</totfact>
</mgrwt>
</event>
<event>
 7    0  0.4750554E-002  0.4443282E+03  0.7546771E-02  0.1029427E+00
         21   -1    0    0  502  501  0.00000000000E+00  0.00000000000E+00  0.11059819026E+03  0.11059819026E+03  0.00000000000E+00 0.  1.
         21   -1    0    0  501  502 -0.00000000000E+00 -0.00000000000E+00 -0.44627204508E+03  0.44627204508E+03  0.00000000000E+00 0.  1.
      99926    2    1    2    0    0  0.00000000000E+00  0.00000000000E+00 -0.33567385483E+03  0.55687023534E+03  0.44432816949E+03 0.  0.
      99925    2    3    3    0    0 -0.55323093948E+02 -0.32911537130E+02 -0.11276350745E+03  0.29327898916E+03  0.26296985163E+03 0.  0.
         25    1    4    4    0    0 -0.32573736935E+02  0.11433967291E+01 -0.95089809790E+02  0.16047409673E+03  0.12509000000E+03 0.  0.
         25    1    3    3    0    0  0.55323093948E+02  0.32911537130E+02 -0.22291034737E+03  0.26359124619E+03  0.12509000000E+03 0.  0.
         25    1    4    4    0    0 -0.22749357013E+02 -0.34054933859E+02 -0.17673697663E+02  0.13280489243E+03  0.12509000000E+03 0.  0.
<mgrwt>
<rscale>  2 0.44432817E+03</rscale>
<asrwt>0</asrwt>
<pdfrwt beam="1">  1       21 0.16264440E-01 0.44432817E+03</pdfrwt>
<pdfrwt beam="2">  1       21 0.65628242E-01 0.44432817E+03</pdfrwt>
<totfact> 0.66884774E+04</totfact>
</mgrwt>
</event>
<event>
 7    0  0.4750554E-002  0.4512964E+03  0.7546771E-02  0.1027336E+00
         21   -1    0    0  502  501  0.00000000000E+00  0.00000000000E+00  0.42156850451E+02  0.42156850451E+02  0.00000000000E+00 0. -1.
         21   -1    0    0  501  502 -0.00000000000E+00 -0.00000000000E+00 -0.12078017587E+04  0.12078017587E+04  0.00000000000E+00 0. -1.
      99926    2    1    2    0    0  0.00000000000E+00 -0.14210854715E-13 -0.11656449082E+04  0.12499586092E+04  0.45129643524E+03 0.  0.
      99925    2    3    3    0    0  0.35397141803E+02 -0.85653416014E+02 -0.89814020537E+03  0.94044974097E+03  0.26305972983E+03 0.  0.
         25    1    4    4    0    0  0.45962009661E+02 -0.46521242033E+02 -0.56329694847E+03  0.58071308970E+03  0.12509000000E+03 0.  0.
         25    1    3    3    0    0 -0.35397141803E+02  0.85653416014E+02 -0.26750470288E+03  0.30950886818E+03  0.12509000000E+03 0.  0.
         25    1    4    4    0    0 -0.10564867857E+02 -0.39132173981E+02 -0.33484325690E+03  0.35973665127E+03  0.12509000000E+03 0.  0.
<mgrwt>
<rscale>  2 0.45129644E+03</rscale>
<asrwt>0</asrwt>
<pdfrwt beam="1">  1       21 0.61995369E-02 0.45129644E+03</pdfrwt>
<pdfrwt beam="2">  1       21 0.17761790E+00 0.45129644E+03</pdfrwt>
<totfact> 0.31501759E+04</totfact>
</mgrwt>
</event>
<event>
 7    0  0.4750554E-002  0.4480125E+03  0.7546771E-02  0.1028316E+00
         21   -1    0    0  502  501  0.00000000000E+00  0.00000000000E+00  0.91339784769E+03  0.91339784769E+03  0.00000000000E+00 0. -1.
         21   -1    0    0  501  502 -0.00000000000E+00 -0.00000000000E+00 -0.54936420805E+02  0.54936420805E+02  0.00000000000E+00 0. -1.
      99926    2    1    2    0    0  0.14210854715E-13 -0.14210854715E-13  0.85846142689E+03  0.96833426850E+03  0.44801253787E+03 0.  0.
      99925    2    3    3    0    0 -0.74776795245E+02  0.72563558441E+02  0.59074533291E+03  0.65500304727E+03  0.26304354099E+03 0.  0.
         25    1    4    4    0    0 -0.33401513470E+01  0.27947650410E+02  0.21803770987E+03  0.25294303469E+03  0.12509000000E+03 0.  0.
         25    1    4    4    0    0 -0.71436643898E+02  0.44615908031E+02  0.37270762304E+03  0.40206001258E+03  0.12509000000E+03 0.  0.
         25    1    3    3    0    0  0.74776795245E+02 -0.72563558441E+02  0.26771609398E+03  0.31333122123E+03  0.12509000000E+03 0.  0.
<mgrwt>
<rscale>  2 0.44801254E+03</rscale>
<asrwt>0</asrwt>
<pdfrwt beam="1">  1       21 0.13432320E+00 0.44801254E+03</pdfrwt>
<pdfrwt beam="2">  1       21 0.80788860E-02 0.44801254E+03</pdfrwt>
<totfact> 0.42692115E+04</totfact>
</mgrwt>
</event>
<event>
 7    0  0.4750554E-002  0.4527704E+03  0.7546771E-02  0.1026899E+00
         21   -1    0    0  502  501  0.00000000000E+00  0.00000000000E+00  0.32092941946E+02  0.32092941946E+02  0.00000000000E+00 0. -1.
         21   -1    0    0  501  502 -0.00000000000E+00 -0.00000000000E+00 -0.15969325675E+04  0.15969325675E+04  0.00000000000E+00 0. -1.
      99926    2    1    2    0    0  0.00000000000E+00  0.00000000000E+00 -0.15648396256E+04  0.16290255095E+04  0.45277042386E+03 0.  0.
      99925    2    3    3    0    0 -0.10597659703E+03 -0.32365614539E+02 -0.96101743581E+03  0.10025055041E+04  0.26302889913E+03 0.  0.
         25    1    3    3    0    0  0.10597659703E+03  0.32365614539E+02 -0.60382218978E+03  0.62652000534E+03  0.12509000000E+03 0.  0.
         25    1    4    4    0    0 -0.69643488283E+02 -0.40672543713E+02 -0.40817527931E+03  0.43446408138E+03  0.12509000000E+03 0.  0.
         25    1    4    4    0    0 -0.36333108752E+02  0.83069291740E+01 -0.55284215650E+03  0.56804142276E+03  0.12509000000E+03 0.  0.
<mgrwt>
<rscale>  2 0.45277042E+03</rscale>
<asrwt>0</asrwt>
<pdfrwt beam="1">  1       21 0.47195503E-02 0.45277042E+03</pdfrwt>
<pdfrwt beam="2">  1       21 0.23484302E+00 0.45277042E+03</pdfrwt>
<totfact> 0.21145448E+04</totfact>
</mgrwt>
</event>
<event>
 7    0  0.4750554E-002  0.4542387E+03  0.7546771E-02  0.1026466E+00
         21   -1    0    0  502  501  0.00000000000E+00  0.00000000000E+00  0.28197889003E+03  0.28197889003E+03  0.00000000000E+00 0. -1.
         21   -1    0    0  501  502 -0.00000000000E+00 -0.00000000000E+00 -0.18293283835E+03  0.18293283835E+03  0.00000000000E+00 0. -1.
      99926    2    1    2    0    0  0.00000000000E+00  0.00000000000E+00  0.99046051679E+02  0.46491172837E+03  0.45423869807E+03 0.  0.
      99925    2    3    3    0    0  0.79200080089E+02  0.79229511757E+02  0.72085520573E+02  0.29484013593E+03  0.26302930494E+03 0.  0.
         25    1    4    4    0    0  0.67874630039E+02  0.73453350115E+02  0.39821090021E+02  0.16503207978E+03  0.12509000000E+03 0.  0.
         25    1    3    3    0    0 -0.79200080089E+02 -0.79229511757E+02  0.26960531106E+02  0.17007159245E+03  0.12509000000E+03 0.  0.
         25    1    4    4    0    0  0.11325450050E+02  0.57761616421E+01  0.32264430551E+02  0.12980805615E+03  0.12509000000E+03 0.  0.
<mgrwt>
<rscale>  2 0.45423870E+03</rscale>
<asrwt>0</asrwt>
<pdfrwt beam="1">  1       21 0.41467484E-01 0.45423870E+03</pdfrwt>
<pdfrwt beam="2">  1       21 0.26901888E-01 0.45423870E+03</pdfrwt>
<totfact> 0.68227632E+04</totfact>
</mgrwt>
</event>
<event>
 7    0  0.4750554E-002  0.4521339E+03  0.7546771E-02  0.1027088E+00
         21   -1    0    0  502  501  0.00000000000E+00  0.00000000000E+00  0.62358104453E+03  0.62358104453E+03  0.00000000000E+00 0.  1.
         21   -1    0    0  501  502 -0.00000000000E+00 -0.00000000000E+00 -0.81956108362E+02  0.81956108362E+02  0.00000000000E+00 0.  1.
      99926    2    1    2    0    0  0.00000000000E+00 -0.35527136788E-14  0.54162493617E+03  0.70553715290E+03  0.45213394324E+03 0.  0.
      99925    2    3    3    0    0  0.73667283988E+02  0.10752363090E+02  0.46905448487E+03  0.54288273228E+03  0.26299632925E+03 0.  0.
         25    1    4    4    0    0  0.31360168869E+02  0.41183395538E+02  0.27061089503E+03  0.30258436322E+03  0.12509000000E+03 0.  0.
         25    1    3    3    0    0 -0.73667283988E+02 -0.10752363090E+02  0.72570451308E+02  0.16265442061E+03  0.12509000000E+03 0.  0.
         25    1    4    4    0    0  0.42307115119E+02 -0.30431032448E+02  0.19844358984E+03  0.24029836906E+03  0.12509000000E+03 0.  0.
<mgrwt>
<rscale>  2 0.45213394E+03</rscale>
<asrwt>0</asrwt>
<pdfrwt beam="1">  1       21 0.91703092E-01 0.45213394E+03</pdfrwt>
<pdfrwt beam="2">  1       21 0.12052369E-01 0.45213394E+03</pdfrwt>
<totfact> 0.53806558E+04</totfact>
</mgrwt>
</event>
<event>
 7    0  0.4750554E-002  0.4583656E+03  0.7546771E-02  0.1025256E+00
         21   -1    0    0  502  501  0.00000000000E+00  0.00000000000E+00  0.32221045970E+03  0.32221045970E+03  0.00000000000E+00 0.  1.
         21   -1    0    0  501  502 -0.00000000000E+00 -0.00000000000E+00 -0.16301380732E+03  0.16301380732E+03  0.00000000000E+00 0.  1.
      99926    2    1    2    0    0 -0.22204460493E-14  0.14210854715E-13  0.15919665238E+03  0.48522426701E+03  0.45836559117E+03 0.  0.
      99925    2    3    3    0    0 -0.20532824339E+01  0.73970331325E+02  0.19481294472E+03  0.33558518701E+03  0.26303898651E+03 0.  0.
         25    1    3    3    0    0  0.20532824339E+01 -0.73970331325E+02 -0.35616292339E+02  0.14963908001E+03  0.12509000000E+03 0.  0.
         25    1    4    4    0    0 -0.26030369926E+02  0.49090434516E+02  0.13651837971E+03  0.19331897739E+03  0.12509000000E+03 0.  0.
         25    1    4    4    0    0  0.23977087493E+02  0.24879896809E+02  0.58294565012E+02  0.14226620962E+03  0.12509000000E+03 0.  0.
<mgrwt>
<rscale>  2 0.45836559E+03</rscale>
<asrwt>0</asrwt>
<pdfrwt beam="1">  1       21 0.47383891E-01 0.45836559E+03</pdfrwt>
<pdfrwt beam="2">  1       21 0.23972619E-01 0.45836559E+03</pdfrwt>
<totfact> 0.64579092E+04</totfact>
</mgrwt>
</event>
<event>
 7    0  0.4750554E-002  0.4544215E+03  0.7546771E-02  0.1026412E+00
         21   -1    0    0  502  501  0.00000000000E+00  0.00000000000E+00  0.85651140432E+03  0.85651140432E+03  0.00000000000E+00 0. -1.
         21   -1    0    0  501  502 -0.00000000000E+00 -0.00000000000E+00 -0.60273244694E+02  0.60273244694E+02  0.00000000000E+00 0. -1.
      99926    2    1    2    0    0  0.00000000000E+00 -0.17763568394E-14  0.79623815963E+03  0.91678464902E+03  0.45442148478E+03 0.  0.
      99925    2    3    3    0    0 -0.91330198514E+02  0.10316043438E+02  0.36961169538E+03  0.46279646193E+03  0.26290708227E+03 0.  0.
         25    1    4    4    0    0 -0.15992735778E+02  0.33744173886E+02  0.17857944824E+03  0.22120706205E+03  0.12509000000E+03 0.  0.
         25    1    3    3    0    0  0.91330198514E+02 -0.10316043438E+02  0.42662646425E+03  0.45398818708E+03  0.12509000000E+03 0.  0.
         25    1    4    4    0    0 -0.75337462735E+02 -0.23428130447E+02  0.19103224714E+03  0.24158939988E+03  0.12509000000E+03 0.  0.
<mgrwt>
<rscale>  2 0.45442148E+03</rscale>
<asrwt>0</asrwt>
<pdfrwt beam="1">  1       21 0.12595755E+00 0.45442148E+03</pdfrwt>
<pdfrwt beam="2">  1       21 0.88637130E-02 0.45442148E+03</pdfrwt>
<totfact> 0.42708937E+04</totfact>
</mgrwt>
</event>
<event>
 7    0  0.4750554E-002  0.4580780E+03  0.7546771E-02  0.1025340E+00
         21   -1    0    0  502  501  0.00000000000E+00  0.00000000000E+00  0.17440992552E+03  0.17440992552E+03  0.00000000000E+00 0. -1.
         21   -1    0    0  501  502 -0.00000000000E+00 -0.00000000000E+00 -0.30077913925E+03  0.30077913925E+03  0.00000000000E+00 0. -1.
      99926    2    1    2    0    0 -0.71054273576E-14 -0.14210854715E-13 -0.12636921374E+03  0.47518906477E+03  0.45807801639E+03 0.  0.
      99925    2    3    3    0    0 -0.51983772662E+02 -0.83898745205E+02 -0.14277202223E+03  0.31500831595E+03  0.26287844476E+03 0.  0.
         25    1    4    4    0    0 -0.59948450709E+02 -0.20378616072E+02 -0.67680447685E+02  0.15568319060E+03  0.12509000000E+03 0.  0.
         25    1    3    3    0    0  0.51983772662E+02  0.83898745205E+02  0.16402808491E+02  0.16018074882E+03  0.12509000000E+03 0.  0.
         25    1    4    4    0    0  0.79646780472E+01 -0.63520129133E+02 -0.75091574543E+02  0.15932512535E+03  0.12509000000E+03 0.  0.
<mgrwt>
<rscale>  2 0.45807802E+03</rscale>
<asrwt>0</asrwt>
<pdfrwt beam="1">  1       21 0.25648519E-01 0.45807802E+03</pdfrwt>
<pdfrwt beam="2">  1       21 0.44232226E-01 0.45807802E+03</pdfrwt>
<totfact> 0.65439060E+04</totfact>
</mgrwt>
</event>
<event>
 7    0  0.4750554E-002  0.4607329E+03  0.7546771E-02  0.1024569E+00
         21   -1    0    0  502  501  0.00000000000E+00  0.00000000000E+00  0.29524319224E+02  0.29524319224E+02  0.00000000000E+00 0.  1.
         21   -1    0    0  501  502 -0.00000000000E+00 -0.00000000000E+00 -0.17974572491E+04  0.17974572491E+04  0.00000000000E+00 0.  1.
      99926    2    1    2    0    0  0.00000000000E+00  0.00000000000E+00 -0.17679329299E+04  0.18269815683E+04  0.46073290143E+03 0.  0.
      99925    2    3    3    0    0  0.57526006534E+02  0.10134914889E+03 -0.11922925053E+04  0.12264898549E+04  0.26293545695E+03 0.  0.
         25    1    4    4    0    0  0.92645090626E+00  0.18995499886E+02 -0.47673319776E+03  0.49323801280E+03  0.12509000000E+03 0.  0.
         25    1    3    3    0    0 -0.57526006534E+02 -0.10134914889E+03 -0.57564042456E+03  0.60049171342E+03  0.12509000000E+03 0.  0.
         25    1    4    4    0    0  0.56599555628E+02  0.82353649007E+02 -0.71555930757E+03  0.73325184210E+03  0.12509000000E+03 0.  0.
<mgrwt>
<rscale>  2 0.46073290E+03</rscale>
<asrwt>0</asrwt>
<pdfrwt beam="1">  1       21 0.43418117E-02 0.46073290E+03</pdfrwt>
<pdfrwt beam="2">  1       21 0.26433195E+00 0.46073290E+03</pdfrwt>
<totfact> 0.16021729E+04</totfact>
</mgrwt>
</event>
<event>
 7    0  0.4750554E-002  0.4553020E+03  0.7546771E-02  0.1026153E+00
         21   -1    0    0  502  501  0.00000000000E+00  0.00000000000E+00  0.15407542383E+03  0.15407542383E+03  0.00000000000E+00 0.  1.
         21   -1    0    0  501  502 -0.00000000000E+00 -0.00000000000E+00 -0.33636105987E+03  0.33636105987E+03  0.00000000000E+00 0.  1.
      99926    2    1    2    0    0  0.35527136788E-14  0.00000000000E+00 -0.18228563604E+03  0.49043648370E+03  0.45530197829E+03 0.  0.
      99925    2    3    3    0    0 -0.23762521108E+02  0.75018292047E+02 -0.26644109329E+02  0.27581077581E+03  0.26300052079E+03 0.  0.
         25    1    4    4    0    0 -0.17720878758E+02  0.55625079654E+02 -0.50247368972E+02  0.14690297893E+03  0.12509000000E+03 0.  0.
         25    1    3    3    0    0  0.23762521108E+02 -0.75018292047E+02 -0.15564152671E+03  0.21462570789E+03  0.12509000000E+03 0.  0.
         25    1    4    4    0    0 -0.60416423503E+01  0.19393212393E+02  0.23603259643E+02  0.12890779687E+03  0.12509000000E+03 0.  0.
<mgrwt>
<rscale>  2 0.45530198E+03</rscale>
<asrwt>0</asrwt>
<pdfrwt beam="1">  1       21 0.22658151E-01 0.45530198E+03</pdfrwt>
<pdfrwt beam="2">  1       21 0.49464861E-01 0.45530198E+03</pdfrwt>
<totfact> 0.65790027E+04</totfact>
</mgrwt>
</event>
<event>
 7    0  0.4750554E-002  0.4599057E+03  0.7546771E-02  0.1024809E+00
         21   -1    0    0  502  501  0.00000000000E+00  0.00000000000E+00  0.93665242818E+02  0.93665242818E+02  0.00000000000E+00 0.  1.
         21   -1    0    0  501  502 -0.00000000000E+00 -0.00000000000E+00 -0.56454565792E+03  0.56454565792E+03  0.00000000000E+00 0.  1.
      99926    2    1    2    0    0  0.00000000000E+00 -0.35527136788E-14 -0.47088041510E+03  0.65821090073E+03  0.45990566916E+03 0.  0.
      99925    2    3    3    0    0 -0.89476574770E+02  0.92281360008E+01 -0.18801090599E+03  0.33610240471E+03  0.26367690410E+03 0.  0.
         25    1    4    4    0    0 -0.31006195730E+02  0.42141081693E+02 -0.77238434188E+02  0.15604659162E+03  0.12509000000E+03 0.  0.
         25    1    4    4    0    0 -0.58470379040E+02 -0.32912945693E+02 -0.11077247180E+03  0.18005581309E+03  0.12509000000E+03 0.  0.
         25    1    3    3    0    0  0.89476574770E+02 -0.92281360008E+01 -0.28286950911E+03  0.32210849602E+03  0.12509000000E+03 0.  0.
<mgrwt>
<rscale>  2 0.45990567E+03</rscale>
<asrwt>0</asrwt>
<pdfrwt beam="1">  1       21 0.13774300E-01 0.45990567E+03</pdfrwt>
<pdfrwt beam="2">  1       21 0.83021420E-01 0.45990567E+03</pdfrwt>
<totfact> 0.53144626E+04</totfact>
</mgrwt>
</event>
<event>
 7    0  0.4750554E-002  0.4608271E+03  0.7546771E-02  0.1024542E+00
         21   -1    0    0  502  501  0.00000000000E+00  0.00000000000E+00  0.49189604901E+03  0.49189604901E+03  0.00000000000E+00 0. -1.
         21   -1    0    0  501  502 -0.00000000000E+00 -0.00000000000E+00 -0.10793013464E+03  0.10793013464E+03  0.00000000000E+00 0. -1.
      99926    2    1    2    0    0  0.17763568394E-14  0.00000000000E+00  0.38396591436E+03  0.59982618365E+03  0.46082711204E+03 0.  0.
      99925    2    3    3    0    0  0.15304664866E+02 -0.86916128951E+02  0.13732061031E+03  0.30953312422E+03  0.26299269712E+03 0.  0.
         25    1    4    4    0    0 -0.31557067299E+02 -0.41258196151E+02  0.55561396529E+02  0.14639898951E+03  0.12509000000E+03 0.  0.
         25    1    4    4    0    0  0.46861732164E+02 -0.45657932799E+02  0.81759213780E+02  0.16313413471E+03  0.12509000000E+03 0.  0.
         25    1    3    3    0    0 -0.15304664866E+02  0.86916128951E+02  0.24664530406E+03  0.29029305943E+03  0.12509000000E+03 0.  0.
<mgrwt>
<rscale>  2 0.46082711E+03</rscale>
<asrwt>0</asrwt>
<pdfrwt beam="1">  1       21 0.72337654E-01 0.46082711E+03</pdfrwt>
<pdfrwt beam="2">  1       21 0.15872079E-01 0.46082711E+03</pdfrwt>
<totfact> 0.56062733E+04</totfact>
</mgrwt>
</event>
<event>
 7    0  0.4750554E-002  0.4485053E+03  0.7546771E-02  0.1028169E+00
         21   -1    0    0  502  501  0.00000000000E+00  0.00000000000E+00  0.33901346054E+03  0.33901346054E+03  0.00000000000E+00 0. -1.
         21   -1    0    0  501  502 -0.00000000000E+00 -0.00000000000E+00 -0.14833998166E+03  0.14833998166E+03  0.00000000000E+00 0. -1.
      99926    2    1    2    0    0  0.00000000000E+00  0.00000000000E+00  0.19067347888E+03  0.48735344220E+03  0.44850529771E+03 0.  0.
      99925    2    3    3    0    0 -0.18170405850E+02  0.10002352526E+03  0.15713399980E+03  0.32271057411E+03  0.26289950836E+03 0.  0.
         25    1    4    4    0    0  0.13617454280E+02  0.79216250523E+02  0.62342543161E+02  0.16122887519E+03  0.12509000000E+03 0.  0.
         25    1    3    3    0    0  0.18170405850E+02 -0.10002352526E+03  0.33539479084E+02  0.16464286809E+03  0.12509000000E+03 0.  0.
         25    1    4    4    0    0 -0.31787860130E+02  0.20807274738E+02  0.94791456638E+02  0.16148169892E+03  0.12509000000E+03 0.  0.
<mgrwt>
<rscale>  2 0.44850530E+03</rscale>
<asrwt>0</asrwt>
<pdfrwt beam="1">  1       21 0.49854921E-01 0.44850530E+03</pdfrwt>
<pdfrwt beam="2">  1       21 0.21814703E-01 0.44850530E+03</pdfrwt>
<totfact> 0.69693206E+04</totfact>
</mgrwt>
</event>
<event>
 7    0  0.4750554E-002  0.4552744E+03  0.7546771E-02  0.1026161E+00
         21   -1    0    0  502  501  0.00000000000E+00  0.00000000000E+00  0.20104981176E+03  0.20104981176E+03  0.00000000000E+00 0.  1.
         21   -1    0    0  501  502 -0.00000000000E+00 -0.00000000000E+00 -0.25774057806E+03  0.25774057806E+03  0.00000000000E+00 0.  1.
      99926    2    1    2    0    0 -0.14210854715E-13  0.00000000000E+00 -0.56690766300E+02  0.45879038983E+03  0.45527439947E+03 0.  0.
      99925    2    3    3    0    0 -0.63348729332E+02  0.10535726310E+01  0.59343430980E+02  0.27678595427E+03  0.26282056647E+03 0.  0.
         25    1    4    4    0    0  0.94155713900E+01 -0.12581689153E+01  0.32404750083E+02  0.12956778883E+03  0.12509000000E+03 0.  0.
         25    1    3    3    0    0  0.63348729332E+02 -0.10535726310E+01 -0.11603419728E+03  0.18200443556E+03  0.12509000000E+03 0.  0.
         25    1    4    4    0    0 -0.72764300722E+02  0.23117415463E+01  0.26938680897E+02  0.14721816545E+03  0.12509000000E+03 0.  0.
<mgrwt>
<rscale>  2 0.45527440E+03</rscale>
<asrwt>0</asrwt>
<pdfrwt beam="1">  1       21 0.29566149E-01 0.45527440E+03</pdfrwt>
<pdfrwt beam="2">  1       21 0.37903026E-01 0.45527440E+03</pdfrwt>
<totfact> 0.68119589E+04</totfact>
</mgrwt>
</event>
<event>
 7    0  0.4750554E-002  0.4551860E+03  0.7546771E-02  0.1026187E+00
         21   -1    0    0  502  501  0.00000000000E+00  0.00000000000E+00  0.33392260347E+03  0.33392260347E+03  0.00000000000E+00 0.  1.
         21   -1    0    0  501  502 -0.00000000000E+00 -0.00000000000E+00 -0.15512146603E+03  0.15512146603E+03  0.00000000000E+00 0.  1.
      99926    2    1    2    0    0  0.00000000000E+00  0.00000000000E+00  0.17880113744E+03  0.48904406950E+03  0.45518595669E+03 0.  0.
      99925    2    3    3    0    0  0.10031989643E+03 -0.39061562331E+02  0.74347861687E+02  0.29372924111E+03  0.26298170141E+03 0.  0.
         25    1    4    4    0    0  0.77123323002E+02  0.86078158323E+01  0.51540747407E+02  0.15596813196E+03  0.12509000000E+03 0.  0.
         25    1    4    4    0    0  0.23196573432E+02 -0.47669378163E+02  0.22807114280E+02  0.13776110915E+03  0.12509000000E+03 0.  0.
         25    1    3    3    0    0 -0.10031989643E+03  0.39061562331E+02  0.10445327575E+03  0.19531482838E+03  0.12509000000E+03 0.  0.
<mgrwt>
<rscale>  2 0.45518596E+03</rscale>
<asrwt>0</asrwt>
<pdfrwt beam="1">  1       21 0.49106265E-01 0.45518596E+03</pdfrwt>
<pdfrwt beam="2">  1       21 0.22811980E-01 0.45518596E+03</pdfrwt>
<totfact> 0.65950005E+04</totfact>
</mgrwt>
</event>
<event>
 7    0  0.4750554E-002  0.4536771E+03  0.7546771E-02  0.1026631E+00
         21   -1    0    0  502  501  0.00000000000E+00  0.00000000000E+00  0.90872346916E+02  0.90872346916E+02  0.00000000000E+00 0.  1.
         21   -1    0    0  501  502 -0.00000000000E+00 -0.00000000000E+00 -0.56624190658E+03  0.56624190658E+03  0.00000000000E+00 0.  1.
      99926    2    1    2    0    0  0.00000000000E+00  0.00000000000E+00 -0.47536955966E+03  0.65711425349E+03  0.45367711414E+03 0.  0.
      99925    2    3    3    0    0  0.98908835082E+02 -0.47322995920E+02 -0.26900932549E+03  0.39205864056E+03  0.26328983428E+03 0.  0.
         25    1    4    4    0    0  0.22754242212E+02 -0.55064590589E+02 -0.13004607782E+03  0.19002461717E+03  0.12509000000E+03 0.  0.
         25    1    3    3    0    0 -0.98908835082E+02  0.47322995920E+02 -0.20636023417E+03  0.26505561293E+03  0.12509000000E+03 0.  0.
         25    1    4    4    0    0  0.76154592870E+02  0.77415946691E+01 -0.13896324767E+03  0.20203402339E+03  0.12509000000E+03 0.  0.
<mgrwt>
<rscale>  2 0.45367711E+03</rscale>
<asrwt>0</asrwt>
<pdfrwt beam="1">  1       21 0.13363580E-01 0.45367711E+03</pdfrwt>
<pdfrwt beam="2">  1       21 0.83270870E-01 0.45367711E+03</pdfrwt>
<totfact> 0.55874020E+04</totfact>
</mgrwt>
</event>
<event>
 7    0  0.4750554E-002  0.4384681E+03  0.7546771E-02  0.1031218E+00
         21   -1    0    0  502  501  0.00000000000E+00  0.00000000000E+00  0.56558854614E+02  0.56558854614E+02  0.00000000000E+00 0.  1.
         21   -1    0    0  501  502 -0.00000000000E+00 -0.00000000000E+00 -0.84979752351E+03  0.84979752351E+03  0.00000000000E+00 0.  1.
      99926    2    1    2    0    0  0.00000000000E+00  0.35527136788E-14 -0.79323866890E+03  0.90635637813E+03  0.43846812693E+03 0.  0.
      99925    2    3    3    0    0  0.73374014259E+02 -0.22023060998E+02 -0.62951978070E+03  0.68653794479E+03  0.26300272651E+03 0.  0.
         25    1    4    4    0    0  0.46796398632E+02  0.26054166160E+02 -0.34672605480E+03  0.37247172735E+03  0.12509000000E+03 0.  0.
         25    1    3    3    0    0 -0.73374014259E+02  0.22023060998E+02 -0.16371888820E+03  0.21981843334E+03  0.12509000000E+03 0.  0.
         25    1    4    4    0    0  0.26577615627E+02 -0.48077227158E+02 -0.28279372590E+03  0.31406621744E+03  0.12509000000E+03 0.  0.
<mgrwt>
<rscale>  2 0.43846813E+03</rscale>
<asrwt>0</asrwt>
<pdfrwt beam="1">  1       21 0.83174786E-02 0.43846813E+03</pdfrwt>
<pdfrwt beam="2">  1       21 0.12497022E+00 0.43846813E+03</pdfrwt>
<totfact> 0.48997339E+04</totfact>
</mgrwt>
</event>
<event>
 6    0  0.5172009E-002  0.4343897E+03  0.7546771E-02  0.1032482E+00
         21   -1    0    0  502  501  0.00000000000E+00  0.00000000000E+00  0.80100745775E+03  0.80100745775E+03  0.00000000000E+00 0. -1.
         21   -1    0    0  501  502 -0.00000000000E+00 -0.00000000000E+00 -0.58892835693E+02  0.58892835693E+02  0.00000000000E+00 0. -1.
      99926    2    1    2    0    0 -0.88817841970E-15  0.00000000000E+00  0.74211462205E+03  0.85990029344E+03  0.43438968956E+03 0.  0.
         25    1    3    3    0    0 -0.56418387540E+01  0.76317647437E+02  0.25660670851E+03  0.29555155999E+03  0.12509000000E+03 0.  0.
         25    1    3    3    0    0  0.70938911181E+01 -0.61598645960E+02  0.14499663225E+03  0.20128648226E+03  0.12509000000E+03 0.  0.
         25    1    3    3    0    0 -0.14520523641E+01 -0.14719001477E+02  0.34051128129E+03  0.36306225120E+03  0.12509000000E+03 0.  0.
<mgrwt>
<rscale>  2 0.43438969E+03</rscale>
<asrwt>0</asrwt>
<pdfrwt beam="1">  1       21 0.11779521E+00 0.43438969E+03</pdfrwt>
<pdfrwt beam="2">  1       21 0.86607116E-02 0.43438969E+03</pdfrwt>
<totfact> 0.53071020E+04</totfact>
</mgrwt>
</event>
<event>
 7    0  0.4750554E-002  0.4273563E+03  0.7546771E-02  0.1034698E+00
         21   -1    0    0  502  501  0.00000000000E+00  0.00000000000E+00  0.61019532711E+03  0.61019532711E+03  0.00000000000E+00 0. -1.
         21   -1    0    0  501  502 -0.00000000000E+00 -0.00000000000E+00 -0.74825801896E+02  0.74825801896E+02  0.00000000000E+00 0. -1.
      99926    2    1    2    0    0  0.35527136788E-14  0.00000000000E+00  0.53536952521E+03  0.68502112900E+03  0.42735631346E+03 0.  0.
      99925    2    3    3    0    0  0.14993874924E+02 -0.81422290760E+02  0.37452265246E+03  0.46508106832E+03  0.26301858716E+03 0.  0.
         25    1    4    4    0    0 -0.11451893064E+02 -0.35280241020E+02  0.12368102125E+03  0.17977859822E+03  0.12509000000E+03 0.  0.
         25    1    4    4    0    0  0.26445767988E+02 -0.46142049740E+02  0.25084163121E+03  0.28530247010E+03  0.12509000000E+03 0.  0.
         25    1    3    3    0    0 -0.14993874924E+02  0.81422290760E+02  0.16084687275E+03  0.21994006068E+03  0.12509000000E+03 0.  0.
<mgrwt>
<rscale>  2 0.42735631E+03</rscale>
<asrwt>0</asrwt>
<pdfrwt beam="1">  1       21 0.89734605E-01 0.42735631E+03</pdfrwt>
<pdfrwt beam="2">  1       21 0.11003795E-01 0.42735631E+03</pdfrwt>
<totfact> 0.67197186E+04</totfact>
</mgrwt>
</event>
<event>
 7    0  0.4750554E-002  0.4566498E+03  0.7546771E-02  0.1025757E+00
         21   -1    0    0  502  501  0.00000000000E+00  0.00000000000E+00  0.96261458917E+02  0.96261458917E+02  0.00000000000E+00 0. -1.
         21   -1    0    0  501  502 -0.00000000000E+00 -0.00000000000E+00 -0.54156941979E+03  0.54156941979E+03  0.00000000000E+00 0. -1.
      99926    2    1    2    0    0  0.14210854715E-13  0.00000000000E+00 -0.44530796087E+03  0.63783087871E+03  0.45664981092E+03 0.  0.
      99925    2    3    3    0    0 -0.81153084791E+02  0.81001190021E+02 -0.27793036077E+03  0.39948284521E+03  0.26304798464E+03 0.  0.
         25    1    3    3    0    0  0.81153084791E+02 -0.81001190021E+02 -0.16737760010E+03  0.23834803350E+03  0.12509000000E+03 0.  0.
         25    1    4    4    0    0 -0.14531579357E+02  0.41899120284E+02 -0.17666123031E+03  0.22096018075E+03  0.12509000000E+03 0.  0.
         25    1    4    4    0    0 -0.66621505434E+02  0.39102069737E+02 -0.10126913046E+03  0.17852266446E+03  0.12509000000E+03 0.  0.
<mgrwt>
<rscale>  2 0.45664981E+03</rscale>
<asrwt>0</asrwt>
<pdfrwt beam="1">  1       21 0.14156097E-01 0.45664981E+03</pdfrwt>
<pdfrwt beam="2">  1       21 0.79642559E-01 0.45664981E+03</pdfrwt>
<totfact> 0.55679522E+04</totfact>
</mgrwt>
</event>
<event>
 7    0  0.4750554E-002  0.4704800E+03  0.7546771E-02  0.1021785E+00
         21   -1    0    0  502  501  0.00000000000E+00  0.00000000000E+00  0.53941636930E+02  0.53941636930E+02  0.00000000000E+00 0. -1.
         21   -1    0    0  501  502 -0.00000000000E+00 -0.00000000000E+00 -0.10258839927E+04  0.10258839927E+04  0.00000000000E+00 0. -1.
      99926    2    1    2    0    0  0.00000000000E+00  0.00000000000E+00 -0.97194235577E+03  0.10798256296E+04  0.47048001814E+03 0.  0.
      99925    2    3    3    0    0 -0.44548171929E+02 -0.72955218572E+02 -0.38733030074E+03  0.47590033084E+03  0.26296265795E+03 0.  0.
         25    1    4    4    0    0 -0.60303921793E+02 -0.34370898833E+02 -0.17593152426E+03  0.22675389964E+03  0.12509000000E+03 0.  0.
         25    1    4    4    0    0  0.15755749864E+02 -0.38584319739E+02 -0.21139877648E+03  0.24914643120E+03  0.12509000000E+03 0.  0.
         25    1    3    3    0    0  0.44548171929E+02  0.72955218572E+02 -0.58461205502E+03  0.60392529879E+03  0.12509000000E+03 0.  0.
<mgrwt>
<rscale>  2 0.47048002E+03</rscale>
<asrwt>0</asrwt>
<pdfrwt beam="1">  1       21 0.79325945E-02 0.47048002E+03</pdfrwt>
<pdfrwt beam="2">  1       21 0.15086528E+00 0.47048002E+03</pdfrwt>
<totfact> 0.32140336E+04</totfact>
</mgrwt>
</event>
<event>
 7    0  0.4750554E-002  0.4497600E+03  0.7546771E-02  0.1027794E+00
         21   -1    0    0  502  501  0.00000000000E+00  0.00000000000E+00  0.53406115494E+02  0.53406115494E+02  0.00000000000E+00 0.  1.
         21   -1    0    0  501  502 -0.00000000000E+00 -0.00000000000E+00 -0.94691423792E+03  0.94691423792E+03  0.00000000000E+00 0.  1.
      99926    2    1    2    0    0  0.88817841970E-15  0.88817841970E-15 -0.89350812243E+03  0.10003203534E+04  0.44975998556E+03 0.  0.
      99925    2    3    3    0    0 -0.69326481269E+01  0.26190428662E+01 -0.80493688293E+03  0.84686907919E+03  0.26307590310E+03 0.  0.
         25    1    3    3    0    0  0.69326481269E+01 -0.26190428662E+01 -0.88571239504E+02  0.15345127423E+03  0.12509000000E+03 0.  0.
         25    1    4    4    0    0 -0.15763349037E+02 -0.22987274223E+02 -0.30548049216E+03  0.33127441365E+03  0.12509000000E+03 0.  0.
         25    1    4    4    0    0  0.88307009103E+01  0.25606317089E+02 -0.49945639077E+03  0.51559466554E+03  0.12509000000E+03 0.  0.
<mgrwt>
<rscale>  2 0.44975999E+03</rscale>
<asrwt>0</asrwt>
<pdfrwt beam="1">  1       21 0.78538402E-02 0.44975999E+03</pdfrwt>
<pdfrwt beam="2">  1       21 0.13925210E+00 0.44975999E+03</pdfrwt>
<totfact> 0.40798535E+04</totfact>
</mgrwt>
</event>
<event>
 7    0  0.4750554E-002  0.4497664E+03  0.7546771E-02  0.1027792E+00
         21   -1    0    0  502  501  0.00000000000E+00  0.00000000000E+00  0.22532628640E+04  0.22532628640E+04  0.00000000000E+00 0. -1.
         21   -1    0    0  501  502 -0.00000000000E+00 -0.00000000000E+00 -0.22444099160E+02  0.22444099160E+02  0.00000000000E+00 0. -1.
      99926    2    1    2    0    0  0.00000000000E+00  0.00000000000E+00  0.22308187648E+04  0.22757069631E+04  0.44976640671E+03 0.  0.
      99925    2    3    3    0    0 -0.34514577977E+02  0.42304476902E+02  0.18831763527E+04  0.19022318238E+04  0.26296732016E+03 0.  0.
         25    1    4    4    0    0 -0.23256635150E+02  0.14390483977E+02  0.12191632207E+04  0.12258688445E+04  0.12509000000E+03 0.  0.
         25    1    4    4    0    0 -0.11257942827E+02  0.27913992925E+02  0.66401313196E+03  0.67636297932E+03  0.12509000000E+03 0.  0.
         25    1    3    3    0    0  0.34514577977E+02 -0.42304476902E+02  0.34764241217E+03  0.37347513933E+03  0.12509000000E+03 0.  0.
<mgrwt>
<rscale>  2 0.44976641E+03</rscale>
<asrwt>0</asrwt>
<pdfrwt beam="1">  1       21 0.33136203E+00 0.44976641E+03</pdfrwt>
<pdfrwt beam="2">  1       21 0.33006044E-02 0.44976641E+03</pdfrwt>
<totfact> 0.10112949E+04</totfact>
</mgrwt>
</event>
<event>
 7    0  0.4750554E-002  0.4516363E+03  0.7546771E-02  0.1027235E+00
         21   -1    0    0  502  501  0.00000000000E+00  0.00000000000E+00  0.88495401949E+03  0.88495401949E+03  0.00000000000E+00 0.  1.
         21   -1    0    0  501  502 -0.00000000000E+00 -0.00000000000E+00 -0.57623157791E+02  0.57623157791E+02  0.00000000000E+00 0.  1.
      99926    2    1    2    0    0 -0.14210854715E-13  0.00000000000E+00  0.82733086170E+03  0.94257717729E+03  0.45163633646E+03 0.  0.
      99925    2    3    3    0    0  0.64474322173E+02  0.42615852761E+02  0.35884856535E+03  0.45156167934E+03  0.26298784814E+03 0.  0.
         25    1    4    4    0    0 -0.63241454753E+01  0.34698877207E+02  0.16192613759E+03  0.20763330424E+03  0.12509000000E+03 0.  0.
         25    1    3    3    0    0 -0.64474322173E+02 -0.42615852761E+02  0.46848229635E+03  0.49101549794E+03  0.12509000000E+03 0.  0.
         25    1    4    4    0    0  0.70798467649E+02  0.79169755548E+01  0.19692242777E+03  0.24392837510E+03  0.12509000000E+03 0.  0.
<mgrwt>
<rscale>  2 0.45163634E+03</rscale>
<asrwt>0</asrwt>
<pdfrwt beam="1">  1       21 0.13014029E+00 0.45163634E+03</pdfrwt>
<pdfrwt beam="2">  1       21 0.84739943E-02 0.45163634E+03</pdfrwt>
<totfact> 0.42551177E+04</totfact>
</mgrwt>
</event>
<event>
 7    0  0.4750554E-002  0.4255938E+03  0.7546771E-02  0.1035261E+00
         21   -1    0    0  502  501  0.00000000000E+00  0.00000000000E+00  0.15938730164E+03  0.15938730164E+03  0.00000000000E+00 0.  1.
         21   -1    0    0  501  502 -0.00000000000E+00 -0.00000000000E+00 -0.28410373285E+03  0.28410373285E+03  0.00000000000E+00 0.  1.
      99926    2    1    2    0    0  0.00000000000E+00  0.14210854715E-13 -0.12471643121E+03  0.44349103449E+03  0.42559383156E+03 0.  0.
      99925    2    3    3    0    0 -0.35564967292E+02 -0.73146927171E+02 -0.65631096409E+02  0.28301074056E+03  0.26300627103E+03 0.  0.
         25    1    4    4    0    0 -0.22622741965E+02 -0.78514096544E+02 -0.36934911155E+02  0.15390889374E+03  0.12509000000E+03 0.  0.
         25    1    3    3    0    0  0.35564967292E+02  0.73146927171E+02 -0.59085334804E+02  0.16048029394E+03  0.12509000000E+03 0.  0.
         25    1    4    4    0    0 -0.12942225328E+02  0.53671693732E+01 -0.28696185253E+02  0.12910184682E+03  0.12509000000E+03 0.  0.
<mgrwt>
<rscale>  2 0.42559383E+03</rscale>
<asrwt>0</asrwt>
<pdfrwt beam="1">  1       21 0.23439309E-01 0.42559383E+03</pdfrwt>
<pdfrwt beam="2">  1       21 0.41779960E-01 0.42559383E+03</pdfrwt>
<totfact> 0.88335246E+04</totfact>
</mgrwt>
</event>
<event>
 7    0  0.4750554E-002  0.4493763E+03  0.7546771E-02  0.1027908E+00
         21   -1    0    0  502  501  0.00000000000E+00  0.00000000000E+00  0.29607890188E+02  0.29607890188E+02  0.00000000000E+00 0.  1.
         21   -1    0    0  501  502 -0.00000000000E+00 -0.00000000000E+00 -0.17051118217E+04  0.17051118217E+04  0.00000000000E+00 0.  1.
      99926    2    1    2    0    0  0.00000000000E+00  0.00000000000E+00 -0.16755039315E+04  0.17347197118E+04  0.44937629476E+03 0.  0.
      99925    2    3    3    0    0 -0.27759212037E+02  0.10216770222E+03 -0.98076423759E+03  0.10209133210E+04  0.26297662647E+03 0.  0.
         25    1    3    3    0    0  0.27759212037E+02 -0.10216770222E+03 -0.69473969388E+03  0.71380639082E+03  0.12509000000E+03 0.  0.
         25    1    4    4    0    0  0.12171521513E+02  0.32409349129E+02 -0.55358098418E+03  0.56859293523E+03  0.12509000000E+03 0.  0.
         25    1    4    4    0    0 -0.39930733550E+02  0.69758353095E+02 -0.42718325341E+03  0.45232038579E+03  0.12509000000E+03 0.  0.
<mgrwt>
<rscale>  2 0.44937629E+03</rscale>
<asrwt>0</asrwt>
<pdfrwt beam="1">  1       21 0.43541015E-02 0.44937629E+03</pdfrwt>
<pdfrwt beam="2">  1       21 0.25075174E+00 0.44937629E+03</pdfrwt>
<totfact> 0.19380659E+04</totfact>
</mgrwt>
</event>
<event>
 7    0  0.4750554E-002  0.4708583E+03  0.7546771E-02  0.1021678E+00
         21   -1    0    0  502  501  0.00000000000E+00  0.00000000000E+00  0.45297108659E+03  0.45297108659E+03  0.00000000000E+00 0.  1.
         21   -1    0    0  501  502 -0.00000000000E+00 -0.00000000000E+00 -0.12236298278E+03  0.12236298278E+03  0.00000000000E+00 0.  1.
      99926    2    1    2    0    0  0.00000000000E+00  0.00000000000E+00  0.33060810381E+03  0.57533406936E+03  0.47085833651E+03 0.  0.
      99925    2    3    3    0    0  0.42411654965E+02  0.11771382051E+03  0.23507204930E+03  0.37426209760E+03  0.26297900548E+03 0.  0.
         25    1    3    3    0    0 -0.42411654965E+02 -0.11771382051E+03  0.95536054513E+02  0.20107197176E+03  0.12509000000E+03 0.  0.
         25    1    4    4    0    0 -0.11563660441E+02  0.29982013226E+02  0.10145657706E+03  0.16423636774E+03  0.12509000000E+03 0.  0.
         25    1    4    4    0    0  0.53975315406E+02  0.87731807283E+02  0.13361547224E+03  0.21002572986E+03  0.12509000000E+03 0.  0.
<mgrwt>
<rscale>  2 0.47085834E+03</rscale>
<asrwt>0</asrwt>
<pdfrwt beam="1">  1       21 0.66613395E-01 0.47085834E+03</pdfrwt>
<pdfrwt beam="2">  1       21 0.17994556E-01 0.47085834E+03</pdfrwt>
<totfact> 0.53227695E+04</totfact>
</mgrwt>
</event>
<event>
 7    0  0.4750554E-002  0.4522770E+03  0.7546771E-02  0.1027045E+00
         21   -1    0    0  502  501  0.00000000000E+00  0.00000000000E+00  0.66676916374E+03  0.66676916374E+03  0.00000000000E+00 0.  1.
         21   -1    0    0  501  502 -0.00000000000E+00 -0.00000000000E+00 -0.76696135067E+02  0.76696135067E+02  0.00000000000E+00 0.  1.
      99926    2    1    2    0    0  0.00000000000E+00 -0.14210854715E-13  0.59007302867E+03  0.74346529881E+03  0.45227698522E+03 0.  0.
      99925    2    3    3    0    0 -0.10771530682E+02  0.95279060347E+02  0.46278135584E+03  0.54087012787E+03  0.26302050623E+03 0.  0.
         25    1    3    3    0    0  0.10771530682E+02 -0.95279060347E+02  0.12729167283E+03  0.20259517093E+03  0.12509000000E+03 0.  0.
         25    1    4    4    0    0 -0.84488730141E+01  0.50596847545E+02  0.31126419448E+03  0.33935870594E+03  0.12509000000E+03 0.  0.
         25    1    4    4    0    0 -0.23226576677E+01  0.44682212801E+02  0.15151716137E+03  0.20151142193E+03  0.12509000000E+03 0.  0.
<mgrwt>
<rscale>  2 0.45227699E+03</rscale>
<asrwt>0</asrwt>
<pdfrwt beam="1">  1       21 0.98054286E-01 0.45227699E+03</pdfrwt>
<pdfrwt beam="2">  1       21 0.11278844E-01 0.45227699E+03</pdfrwt>
<totfact> 0.51703645E+04</totfact>
</mgrwt>
</event>
<event>
 7    0  0.4750554E-002  0.4587566E+03  0.7546771E-02  0.1025142E+00
         21   -1    0    0  502  501  0.00000000000E+00  0.00000000000E+00  0.53888719576E+02  0.53888719576E+02  0.00000000000E+00 0. -1.
         21   -1    0    0  501  502 -0.00000000000E+00 -0.00000000000E+00 -0.97635287742E+03  0.97635287742E+03  0.00000000000E+00 0. -1.
      99926    2    1    2    0    0  0.00000000000E+00  0.00000000000E+00 -0.92246415784E+03  0.10302415970E+04  0.45875660832E+03 0.  0.
      99925    2    3    3    0    0  0.41443016514E+02  0.10093616408E+03 -0.67120550110E+03  0.72910366593E+03  0.26300132724E+03 0.  0.
         25    1    4    4    0    0  0.20361335559E+02  0.28645665453E+02 -0.40701981249E+03  0.42725612225E+03  0.12509000000E+03 0.  0.
         25    1    4    4    0    0  0.21081680956E+02  0.72290498628E+02 -0.26418568861E+03  0.30184754369E+03  0.12509000000E+03 0.  0.
         25    1    3    3    0    0 -0.41443016514E+02 -0.10093616408E+03 -0.25125865674E+03  0.30113793106E+03  0.12509000000E+03 0.  0.
<mgrwt>
<rscale>  2 0.45875661E+03</rscale>
<asrwt>0</asrwt>
<pdfrwt beam="1">  1       21 0.79248122E-02 0.45875661E+03</pdfrwt>
<pdfrwt beam="2">  1       21 0.14358130E+00 0.45875661E+03</pdfrwt>
<totfact> 0.36916243E+04</totfact>
</mgrwt>
</event>
<event>
 7    0  0.4750554E-002  0.4625262E+03  0.7546771E-02  0.1024051E+00
         21   -1    0    0  502  501  0.00000000000E+00  0.00000000000E+00  0.20901743535E+03  0.20901743535E+03  0.00000000000E+00 0.  1.
         21   -1    0    0  501  502 -0.00000000000E+00 -0.00000000000E+00 -0.25587640686E+03  0.25587640686E+03  0.00000000000E+00 0.  1.
      99926    2    1    2    0    0  0.14210854715E-13  0.00000000000E+00 -0.46858971512E+02  0.46489384221E+03  0.46252623851E+03 0.  0.
      99925    2    3    3    0    0 -0.61334781282E+02  0.91685947632E+02  0.18119215976E+02  0.28590238616E+03  0.26314178695E+03 0.  0.
         25    1    4    4    0    0 -0.63278136867E+00  0.15594856850E+02 -0.23824238560E+01  0.12608244928E+03  0.12509000000E+03 0.  0.
         25    1    3    3    0    0  0.61334781282E+02 -0.91685947632E+02 -0.64978187488E+02  0.17899145605E+03  0.12509000000E+03 0.  0.
         25    1    4    4    0    0 -0.60701999913E+02  0.76091090782E+02  0.20501639832E+02  0.15981993688E+03  0.12509000000E+03 0.  0.
<mgrwt>
<rscale>  2 0.46252624E+03</rscale>
<asrwt>0</asrwt>
<pdfrwt beam="1">  1       21 0.30737858E-01 0.46252624E+03</pdfrwt>
<pdfrwt beam="2">  1       21 0.37628883E-01 0.46252624E+03</pdfrwt>
<totfact> 0.63902620E+04</totfact>
</mgrwt>
</event>
<event>
 7    0  0.4750554E-002  0.4626706E+03  0.7546771E-02  0.1024010E+00
         21   -1    0    0  502  501  0.00000000000E+00  0.00000000000E+00  0.89870872772E+02  0.89870872772E+02  0.00000000000E+00 0.  1.
         21   -1    0    0  501  502 -0.00000000000E+00 -0.00000000000E+00 -0.59547677038E+03  0.59547677038E+03  0.00000000000E+00 0.  1.
      99926    2    1    2    0    0  0.00000000000E+00  0.71054273576E-14 -0.50560589761E+03  0.68534764315E+03  0.46267058290E+03 0.  0.
      99925    2    3    3    0    0  0.10315101299E+03 -0.60242581064E+02 -0.33268239111E+03  0.44076770274E+03  0.26330456580E+03 0.  0.
         25    1    4    4    0    0  0.71156199496E+02 -0.75217705693E+01 -0.21196686829E+03  0.25631473448E+03  0.12509000000E+03 0.  0.
         25    1    3    3    0    0 -0.10315101299E+03  0.60242581064E+02 -0.17292350650E+03  0.24457994042E+03  0.12509000000E+03 0.  0.
         25    1    4    4    0    0  0.31994813490E+02 -0.52720810495E+02 -0.12071552282E+03  0.18445296826E+03  0.12509000000E+03 0.  0.
<mgrwt>
<rscale>  2 0.46267058E+03</rscale>
<asrwt>0</asrwt>
<pdfrwt beam="1">  1       21 0.13216305E-01 0.46267058E+03</pdfrwt>
<pdfrwt beam="2">  1       21 0.87570112E-01 0.46267058E+03</pdfrwt>
<totfact> 0.50579828E+04</totfact>
</mgrwt>
</event>
<event>
 7    0  0.4750554E-002  0.4573555E+03  0.7546771E-02  0.1025551E+00
         21   -1    0    0  502  501  0.00000000000E+00  0.00000000000E+00  0.45170018600E+03  0.45170018600E+03  0.00000000000E+00 0.  1.
         21   -1    0    0  501  502 -0.00000000000E+00 -0.00000000000E+00 -0.11577039944E+03  0.11577039944E+03  0.00000000000E+00 0.  1.
      99926    2    1    2    0    0  0.24841240176E-14  0.14210854715E-13  0.33592978656E+03  0.56747058544E+03  0.45735548958E+03 0.  0.
      99925    2    3    3    0    0 -0.78639394106E-01 -0.11130355668E+03  0.17309680403E+03  0.33390993762E+03  0.26295409288E+03 0.  0.
         25    1    4    4    0    0 -0.37736678554E+02 -0.61363139923E+02  0.71785364781E+02  0.16121457300E+03  0.12509000000E+03 0.  0.
         25    1    3    3    0    0  0.78639394106E-01  0.11130355668E+03  0.16283298252E+03  0.23356064782E+03  0.12509000000E+03 0.  0.
         25    1    4    4    0    0  0.37658039160E+02 -0.49940416758E+02  0.10131143925E+03  0.17269536462E+03  0.12509000000E+03 0.  0.
<mgrwt>
<rscale>  2 0.45735549E+03</rscale>
<asrwt>0</asrwt>
<pdfrwt beam="1">  1       21 0.66426497E-01 0.45735549E+03</pdfrwt>
<pdfrwt beam="2">  1       21 0.17025059E-01 0.45735549E+03</pdfrwt>
<totfact> 0.59608412E+04</totfact>
</mgrwt>
</event>
<event>
 7    0  0.4750554E-002  0.4562253E+03  0.7546771E-02  0.1025882E+00
         21   -1    0    0  502  501  0.00000000000E+00  0.00000000000E+00  0.22720375048E+03  0.22720375048E+03  0.00000000000E+00 0. -1.
         21   -1    0    0  501  502 -0.00000000000E+00 -0.00000000000E+00 -0.22902516434E+03  0.22902516434E+03  0.00000000000E+00 0. -1.
      99926    2    1    2    0    0  0.88817841970E-15  0.00000000000E+00 -0.18214138592E+01  0.45622891482E+03  0.45622527896E+03 0.  0.
      99925    2    3    3    0    0  0.21109707646E+01 -0.80983991571E+02 -0.81473318235E+02  0.28724726771E+03  0.26326835764E+03 0.  0.
         25    1    4    4    0    0 -0.28020087023E+02 -0.63642377180E+02 -0.23396939642E+02  0.14501862754E+03  0.12509000000E+03 0.  0.
         25    1    4    4    0    0  0.30131057788E+02 -0.17341614391E+02 -0.58076378593E+02  0.14222864017E+03  0.12509000000E+03 0.  0.
         25    1    3    3    0    0 -0.21109707646E+01  0.80983991571E+02  0.79651904376E+02  0.16898164711E+03  0.12509000000E+03 0.  0.
<mgrwt>
<rscale>  2 0.45622528E+03</rscale>
<asrwt>0</asrwt>
<pdfrwt beam="1">  1       21 0.33412316E-01 0.45622528E+03</pdfrwt>
<pdfrwt beam="2">  1       21 0.33680171E-01 0.45622528E+03</pdfrwt>
<totfact> 0.67790673E+04</totfact>
</mgrwt>
</event>
<event>
 7    0  0.4750554E-002  0.4307337E+03  0.7546771E-02  0.1033628E+00
         21   -1    0    0  502  501  0.00000000000E+00  0.00000000000E+00  0.84607769201E+02  0.84607769201E+02  0.00000000000E+00 0.  1.
         21   -1    0    0  501  502 -0.00000000000E+00 -0.00000000000E+00 -0.54821076694E+03  0.54821076694E+03  0.00000000000E+00 0.  1.
      99926    2    1    2    0    0 -0.14210854715E-13 -0.35527136788E-14 -0.46360299774E+03  0.63281853614E+03  0.43073374627E+03 0.  0.
      99925    2    3    3    0    0 -0.67220709660E+02 -0.24221231205E+02 -0.37550934012E+03  0.46395974170E+03  0.26295643280E+03 0.  0.
         25    1    3    3    0    0  0.67220709660E+02  0.24221231205E+02 -0.88093657625E+02  0.16885879445E+03  0.12509000000E+03 0.  0.
         25    1    4    4    0    0 -0.68840696758E+02  0.84104934801E+01 -0.18889820886E+03  0.23693842943E+03  0.12509000000E+03 0.  0.
         25    1    4    4    0    0  0.16199870981E+01 -0.32631724685E+02 -0.18661113126E+03  0.22702131227E+03  0.12509000000E+03 0.  0.
<mgrwt>
<rscale>  2 0.43073375E+03</rscale>
<asrwt>0</asrwt>
<pdfrwt beam="1">  1       21 0.12442319E-01 0.43073375E+03</pdfrwt>
<pdfrwt beam="2">  1       21 0.80619232E-01 0.43073375E+03</pdfrwt>
<totfact> 0.68993305E+04</totfact>
</mgrwt>
</event>
<event>
 7    0  0.4750554E-002  0.4564248E+03  0.7546771E-02  0.1025823E+00
         21   -1    0    0  502  501  0.00000000000E+00  0.00000000000E+00  0.73193234082E+03  0.73193234082E+03  0.00000000000E+00 0.  1.
         21   -1    0    0  501  502 -0.00000000000E+00 -0.00000000000E+00 -0.71155358630E+02  0.71155358630E+02  0.00000000000E+00 0.  1.
      99926    2    1    2    0    0  0.00000000000E+00  0.14210854715E-13  0.66077698219E+03  0.80308769945E+03  0.45642483808E+03 0.  0.
      99925    2    3    3    0    0  0.37952149941E+02 -0.10759983961E+03  0.40085747827E+03  0.49288817046E+03  0.26312343020E+03 0.  0.
         25    1    3    3    0    0 -0.37952149941E+02  0.10759983961E+03  0.25991950392E+03  0.31019952900E+03  0.12509000000E+03 0.  0.
         25    1    4    4    0    0  0.11663005455E+02 -0.95585236103E+02  0.20582483333E+03  0.25939146704E+03  0.12509000000E+03 0.  0.
         25    1    4    4    0    0  0.26289144486E+02 -0.12014603508E+02  0.19503264494E+03  0.23349670342E+03  0.12509000000E+03 0.  0.
<mgrwt>
<rscale>  2 0.45642484E+03</rscale>
<asrwt>0</asrwt>
<pdfrwt beam="1">  1       21 0.10763710E+00 0.45642484E+03</pdfrwt>
<pdfrwt beam="2">  1       21 0.10464024E-01 0.45642484E+03</pdfrwt>
<totfact> 0.47087101E+04</totfact>
</mgrwt>
</event>
<event>
 7    0  0.4750554E-002  0.4588245E+03  0.7546771E-02  0.1025123E+00
         21   -1    0    0  502  501  0.00000000000E+00  0.00000000000E+00  0.89795285846E+02  0.89795285846E+02  0.00000000000E+00 0.  1.
         21   -1    0    0  501  502 -0.00000000000E+00 -0.00000000000E+00 -0.58611084929E+03  0.58611084929E+03  0.00000000000E+00 0.  1.
      99926    2    1    2    0    0  0.35527136788E-14  0.00000000000E+00 -0.49631556345E+03  0.67590613514E+03  0.45882454707E+03 0.  0.
      99925    2    3    3    0    0 -0.18564076582E+02 -0.58785159449E+02 -0.16521964020E+03  0.31663974595E+03  0.26298836342E+03 0.  0.
         25    1    4    4    0    0 -0.40279960506E+02 -0.35968823356E+02 -0.54861257313E+02  0.14687919228E+03  0.12509000000E+03 0.  0.
         25    1    3    3    0    0  0.18564076582E+02  0.58785159449E+02 -0.33109592325E+03  0.35926638919E+03  0.12509000000E+03 0.  0.
         25    1    4    4    0    0  0.21715883924E+02 -0.22816336092E+02 -0.11035838289E+03  0.16976055366E+03  0.12509000000E+03 0.  0.
<mgrwt>
<rscale>  2 0.45882455E+03</rscale>
<asrwt>0</asrwt>
<pdfrwt beam="1">  1       21 0.13205190E-01 0.45882455E+03</pdfrwt>
<pdfrwt beam="2">  1       21 0.86192768E-01 0.45882455E+03</pdfrwt>
<totfact> 0.52626766E+04</totfact>
</mgrwt>
</event>
<event>
 7    0  0.4750554E-002  0.4547419E+03  0.7546771E-02  0.1026317E+00
         21   -1    0    0  502  501  0.00000000000E+00  0.00000000000E+00  0.80298143332E+02  0.80298143332E+02  0.00000000000E+00 0.  1.
         21   -1    0    0  501  502 -0.00000000000E+00 -0.00000000000E+00 -0.64381996503E+03  0.64381996503E+03  0.00000000000E+00 0.  1.
      99926    2    1    2    0    0  0.00000000000E+00  0.35527136788E-14 -0.56352182169E+03  0.72411810836E+03  0.45474189528E+03 0.  0.
      99925    2    3    3    0    0 -0.67468562479E+01 -0.23680396465E+02 -0.17936721120E+03  0.31936070681E+03  0.26308246493E+03 0.  0.
         25    1    4    4    0    0 -0.20444806936E+02 -0.38736641114E+02 -0.12240254438E+03  0.18041177475E+03  0.12509000000E+03 0.  0.
         25    1    3    3    0    0  0.67468562479E+01  0.23680396465E+02 -0.38415461049E+03  0.40475740155E+03  0.12509000000E+03 0.  0.
         25    1    4    4    0    0  0.13697950688E+02  0.15056244649E+02 -0.56964666818E+02  0.13894893206E+03  0.12509000000E+03 0.  0.
<mgrwt>
<rscale>  2 0.45474190E+03</rscale>
<asrwt>0</asrwt>
<pdfrwt beam="1">  1       21 0.11808551E-01 0.45474190E+03</pdfrwt>
<pdfrwt beam="2">  1       21 0.94679404E-01 0.45474190E+03</pdfrwt>
<totfact> 0.51717933E+04</totfact>
</mgrwt>
</event>
<event>
 7    0  0.4750554E-002  0.4561483E+03  0.7546771E-02  0.1025904E+00
         21   -1    0    0  502  501  0.00000000000E+00  0.00000000000E+00  0.13669366825E+04  0.13669366825E+04  0.00000000000E+00 0. -1.
         21   -1    0    0  501  502 -0.00000000000E+00 -0.00000000000E+00 -0.38054302083E+02  0.38054302083E+02  0.00000000000E+00 0. -1.
      99926    2    1    2    0    0  0.88817841970E-15  0.00000000000E+00  0.13288823804E+04  0.14049909846E+04  0.45614831555E+03 0.  0.
      99925    2    3    3    0    0 -0.43191800932E+01  0.11365544188E+03  0.87077841058E+03  0.91668475888E+03  0.26290624191E+03 0.  0.
         25    1    4    4    0    0 -0.31035887558E+02  0.59652374159E+02  0.35000267601E+03  0.37771816659E+03  0.12509000000E+03 0.  0.
         25    1    3    3    0    0  0.43191800932E+01 -0.11365544188E+03  0.45810396984E+03  0.48830622571E+03  0.12509000000E+03 0.  0.
         25    1    4    4    0    0  0.26716707465E+02  0.54003067717E+02  0.52077573457E+03  0.53896659229E+03  0.12509000000E+03 0.  0.
<mgrwt>
<rscale>  2 0.45614832E+03</rscale>
<asrwt>0</asrwt>
<pdfrwt beam="1">  1       21 0.20102007E+00 0.45614832E+03</pdfrwt>
<pdfrwt beam="2">  1       21 0.55962218E-02 0.45614832E+03</pdfrwt>
<totfact> 0.25966818E+04</totfact>
</mgrwt>
</event>
<event>
 7    0  0.4750554E-002  0.4523178E+03  0.7546771E-02  0.1027033E+00
         21   -1    0    0  502  501  0.00000000000E+00  0.00000000000E+00  0.10134699617E+03  0.10134699617E+03  0.00000000000E+00 0. -1.
         21   -1    0    0  501  502 -0.00000000000E+00 -0.00000000000E+00 -0.50468047595E+03  0.50468047595E+03  0.00000000000E+00 0. -1.
      99926    2    1    2    0    0  0.00000000000E+00 -0.35527136788E-14 -0.40333347978E+03  0.60602747213E+03  0.45231780980E+03 0.  0.
      99925    2    3    3    0    0  0.98109583015E+02  0.31780112373E+02 -0.30813773739E+03  0.41802427192E+03  0.26298281481E+03 0.  0.
         25    1    4    4    0    0  0.28357265363E+02 -0.10958462563E+02 -0.10676045338E+03  0.16724091876E+03  0.12509000000E+03 0.  0.
         25    1    4    4    0    0  0.69752317651E+02  0.42738574936E+02 -0.20137728401E+03  0.25078335316E+03  0.12509000000E+03 0.  0.
         25    1    3    3    0    0 -0.98109583015E+02 -0.31780112373E+02 -0.95195742386E+02  0.18800320021E+03  0.12509000000E+03 0.  0.
<mgrwt>
<rscale>  2 0.45231781E+03</rscale>
<asrwt>0</asrwt>
<pdfrwt beam="1">  1       21 0.14903970E-01 0.45231781E+03</pdfrwt>
<pdfrwt beam="2">  1       21 0.74217716E-01 0.45231781E+03</pdfrwt>
<totfact> 0.59560803E+04</totfact>
</mgrwt>
</event>
<event>
 7    0  0.4750554E-002  0.4503931E+03  0.7546771E-02  0.1027605E+00
         21   -1    0    0  502  501  0.00000000000E+00  0.00000000000E+00  0.31723407607E+03  0.31723407607E+03  0.00000000000E+00 0. -1.
         21   -1    0    0  501  502 -0.00000000000E+00 -0.00000000000E+00 -0.15986141029E+03  0.15986141029E+03  0.00000000000E+00 0. -1.
      99926    2    1    2    0    0  0.71054273576E-14 -0.14210854715E-13  0.15737266579E+03  0.47709548636E+03  0.45039310293E+03 0.  0.
      99925    2    3    3    0    0  0.58857041159E+02 -0.72105618351E+02  0.40417692596E+02  0.28218692999E+03  0.26331065700E+03 0.  0.
         25    1    3    3    0    0 -0.58857041159E+02  0.72105618351E+02  0.11695497319E+03  0.19490855637E+03  0.12509000000E+03 0.  0.
         25    1    4    4    0    0  0.45689789102E+02 -0.26967302102E+02 -0.16619437549E+02  0.13688866284E+03  0.12509000000E+03 0.  0.
         25    1    4    4    0    0  0.13167252057E+02 -0.45138316248E+02  0.57037130145E+02  0.14529826715E+03  0.12509000000E+03 0.  0.
<mgrwt>
<rscale>  2 0.45039310E+03</rscale>
<asrwt>0</asrwt>
<pdfrwt beam="1">  1       21 0.46652070E-01 0.45039310E+03</pdfrwt>
<pdfrwt beam="2">  1       21 0.23509031E-01 0.45039310E+03</pdfrwt>
<totfact> 0.69415929E+04</totfact>
</mgrwt>
</event>
<event>
 7    0  0.4750554E-002  0.4819838E+03  0.7546771E-02  0.1018591E+00
         21   -1    0    0  502  501  0.00000000000E+00  0.00000000000E+00  0.30935500992E+03  0.30935500992E+03  0.00000000000E+00 0. -1.
         21   -1    0    0  501  502 -0.00000000000E+00 -0.00000000000E+00 -0.18773607451E+03  0.18773607451E+03  0.00000000000E+00 0. -1.
      99926    2    1    2    0    0  0.71054273576E-14  0.14210854715E-13  0.12161893541E+03  0.49709108443E+03  0.48198379721E+03 0.  0.
      99925    2    3    3    0    0 -0.46482780052E+02 -0.11756721703E+03  0.20687721869E+02  0.29259825490E+03  0.26306474027E+03 0.  0.
         25    1    4    4    0    0 -0.37856414006E+02 -0.10031325698E+03  0.20553408656E+02  0.16602954049E+03  0.12509000000E+03 0.  0.
         25    1    4    4    0    0 -0.86263660459E+01 -0.17253960045E+02  0.13431321319E+00  0.12656871441E+03  0.12509000000E+03 0.  0.
         25    1    3    3    0    0  0.46482780052E+02  0.11756721703E+03  0.10093121354E+03  0.20449282953E+03  0.12509000000E+03 0.  0.
<mgrwt>
<rscale>  2 0.48198380E+03</rscale>
<asrwt>0</asrwt>
<pdfrwt beam="1">  1       21 0.45493384E-01 0.48198380E+03</pdfrwt>
<pdfrwt beam="2">  1       21 0.27608246E-01 0.48198380E+03</pdfrwt>
<totfact> 0.53145944E+04</totfact>
</mgrwt>
</event>
<event>
 7    0  0.4750554E-002  0.4541852E+03  0.7546771E-02  0.1026481E+00
         21   -1    0    0  502  501  0.00000000000E+00  0.00000000000E+00  0.62005804453E+03  0.62005804453E+03  0.00000000000E+00 0.  1.
         21   -1    0    0  501  502 -0.00000000000E+00 -0.00000000000E+00 -0.83171321452E+02  0.83171321452E+02  0.00000000000E+00 0.  1.
      99926    2    1    2    0    0  0.00000000000E+00  0.00000000000E+00  0.53688672307E+03  0.70322936598E+03  0.45418519104E+03 0.  0.
      99925    2    3    3    0    0  0.81443262268E+01  0.84465671838E+02  0.45244737931E+03  0.53008696608E+03  0.26283603404E+03 0.  0.
         25    1    4    4    0    0  0.39083166211E+01  0.77179168951E+02  0.28732125341E+03  0.32275828389E+03  0.12509000000E+03 0.  0.
         25    1    3    3    0    0 -0.81443262268E+01 -0.84465671838E+02  0.84439343762E+02  0.17314239990E+03  0.12509000000E+03 0.  0.
         25    1    4    4    0    0  0.42360096057E+01  0.72865028875E+01  0.16512612590E+03  0.20732868219E+03  0.12509000000E+03 0.  0.
<mgrwt>
<rscale>  2 0.45418519E+03</rscale>
<asrwt>0</asrwt>
<pdfrwt beam="1">  1       21 0.91185004E-01 0.45418519E+03</pdfrwt>
<pdfrwt beam="2">  1       21 0.12231077E-01 0.45418519E+03</pdfrwt>
<totfact> 0.53067411E+04</totfact>
</mgrwt>
</event>
<event>
 7    0  0.4750554E-002  0.4521629E+03  0.7546771E-02  0.1027079E+00
         21   -1    0    0  502  501  0.00000000000E+00  0.00000000000E+00  0.36673592284E+03  0.36673592284E+03  0.00000000000E+00 0. -1.
         21   -1    0    0  501  502 -0.00000000000E+00 -0.00000000000E+00 -0.13937230349E+03  0.13937230349E+03  0.00000000000E+00 0. -1.
      99926    2    1    2    0    0  0.00000000000E+00  0.71054273576E-14  0.22736361935E+03  0.50610822633E+03  0.45216293674E+03 0.  0.
      99925    2    3    3    0    0  0.34158638711E+02 -0.33368541564E+02  0.31855609081E+02  0.26914586151E+03  0.26295330911E+03 0.  0.
         25    1    3    3    0    0 -0.34158638711E+02  0.33368541564E+02  0.19550801027E+03  0.23696236482E+03  0.12509000000E+03 0.  0.
         25    1    4    4    0    0  0.16483384118E+02 -0.13391178055E+01 -0.22081712047E+02  0.12809607838E+03  0.12509000000E+03 0.  0.
         25    1    4    4    0    0  0.17675254593E+02 -0.32029423759E+02  0.53937321128E+02  0.14104978313E+03  0.12509000000E+03 0.  0.
<mgrwt>
<rscale>  2 0.45216294E+03</rscale>
<asrwt>0</asrwt>
<pdfrwt beam="1">  1       21 0.53931753E-01 0.45216294E+03</pdfrwt>
<pdfrwt beam="2">  1       21 0.20495927E-01 0.45216294E+03</pdfrwt>
<totfact> 0.66324537E+04</totfact>
</mgrwt>
</event>
<event>
 7    0  0.4750554E-002  0.4463567E+03  0.7546771E-02  0.1028814E+00
         21   -1    0    0  502  501  0.00000000000E+00  0.00000000000E+00  0.23710714267E+04  0.23710714267E+04  0.00000000000E+00 0. -1.
         21   -1    0    0  501  502 -0.00000000000E+00 -0.00000000000E+00 -0.21006783630E+02  0.21006783630E+02  0.00000000000E+00 0. -1.
      99926    2    1    2    0    0  0.00000000000E+00  0.00000000000E+00  0.23500646430E+04  0.23920782103E+04  0.44635673819E+03 0.  0.
      99925    2    3    3    0    0  0.91076167538E+02  0.51310855848E+02  0.14403221210E+04  0.14678452111E+04  0.26289556751E+03 0.  0.
         25    1    3    3    0    0 -0.91076167538E+02 -0.51310855848E+02  0.90974252208E+03  0.92423299919E+03  0.12509000000E+03 0.  0.
         25    1    4    4    0    0  0.27310778505E+02  0.60415708306E+02  0.77179217469E+03  0.78466974292E+03  0.12509000000E+03 0.  0.
         25    1    4    4    0    0  0.63765389032E+02 -0.91048524571E+01  0.66852994626E+03  0.68317546818E+03  0.12509000000E+03 0.  0.
<mgrwt>
<rscale>  2 0.44635674E+03</rscale>
<asrwt>0</asrwt>
<pdfrwt beam="1">  1       21 0.34868679E+00 0.44635674E+03</pdfrwt>
<pdfrwt beam="2">  1       21 0.30892345E-02 0.44635674E+03</pdfrwt>
<totfact> 0.88817270E+03</totfact>
</mgrwt>
</event>
<event>
 7    0  0.4750554E-002  0.4468308E+03  0.7546771E-02  0.1028671E+00
         21   -1    0    0  502  501  0.00000000000E+00  0.00000000000E+00  0.80157101125E+03  0.80157101125E+03  0.00000000000E+00 0.  1.
         21   -1    0    0  501  502 -0.00000000000E+00 -0.00000000000E+00 -0.62270765378E+02  0.62270765378E+02  0.00000000000E+00 0.  1.
      99926    2    1    2    0    0  0.35527136788E-14  0.00000000000E+00  0.73930024588E+03  0.86384177663E+03  0.44683079740E+03 0.  0.
      99925    2    3    3    0    0  0.19318679305E+02 -0.66566691506E+02  0.31566388839E+03  0.41671807197E+03  0.26307019079E+03 0.  0.
         25    1    4    4    0    0  0.56579222853E+01 -0.36234114385E+02  0.22017245708E+03  0.25586782152E+03  0.12509000000E+03 0.  0.
         25    1    3    3    0    0 -0.19318679305E+02  0.66566691506E+02  0.42363635748E+03  0.44712370466E+03  0.12509000000E+03 0.  0.
         25    1    4    4    0    0  0.13660757019E+02 -0.30332577122E+02  0.95491431309E+02  0.16085025045E+03  0.12509000000E+03 0.  0.
<mgrwt>
<rscale>  2 0.44683080E+03</rscale>
<asrwt>0</asrwt>
<pdfrwt beam="1">  1       21 0.11787808E+00 0.44683080E+03</pdfrwt>
<pdfrwt beam="2">  1       21 0.91574660E-02 0.44683080E+03</pdfrwt>
<totfact> 0.47817133E+04</totfact>
</mgrwt>
</event>
<event>
 7    0  0.4750554E-002  0.4577096E+03  0.7546771E-02  0.1025448E+00
         21   -1    0    0  502  501  0.00000000000E+00  0.00000000000E+00  0.31134217366E+03  0.31134217366E+03  0.00000000000E+00 0.  1.
         21   -1    0    0  501  502 -0.00000000000E+00 -0.00000000000E+00 -0.16822174531E+03  0.16822174531E+03  0.00000000000E+00 0.  1.
      99926    2    1    2    0    0  0.00000000000E+00  0.00000000000E+00  0.14312042835E+03  0.47956391896E+03  0.45770961904E+03 0.  0.
      99925    2    3    3    0    0 -0.87522633656E+02  0.74138436177E+02  0.74012958304E+02  0.29631526375E+03  0.26299828595E+03 0.  0.
         25    1    4    4    0    0 -0.53235628409E+02  0.50022650271E+02 -0.38132046611E+00  0.14485838318E+03  0.12509000000E+03 0.  0.
         25    1    4    4    0    0 -0.34287005247E+02  0.24115785906E+02  0.74394278770E+02  0.15145688057E+03  0.12509000000E+03 0.  0.
         25    1    3    3    0    0  0.87522633656E+02 -0.74138436177E+02  0.69107470047E+02  0.18324865521E+03  0.12509000000E+03 0.  0.
<mgrwt>
<rscale>  2 0.45770962E+03</rscale>
<asrwt>0</asrwt>
<pdfrwt beam="1">  1       21 0.45785614E-01 0.45770962E+03</pdfrwt>
<pdfrwt beam="2">  1       21 0.24738492E-01 0.45770962E+03</pdfrwt>
<totfact> 0.65315833E+04</totfact>
</mgrwt>
</event>
<event>
 7    0  0.4750554E-002  0.4539264E+03  0.7546771E-02  0.1026558E+00
         21   -1    0    0  502  501  0.00000000000E+00  0.00000000000E+00  0.39701809628E+03  0.39701809628E+03  0.00000000000E+00 0.  1.
         21   -1    0    0  501  502 -0.00000000000E+00 -0.00000000000E+00 -0.12974795274E+03  0.12974795274E+03  0.00000000000E+00 0.  1.
      99926    2    1    2    0    0  0.71054273576E-14 -0.71054273576E-14  0.26727014354E+03  0.52676604902E+03  0.45392636052E+03 0.  0.
      99925    2    3    3    0    0  0.34825499955E+02 -0.48735206790E+02  0.58223529587E+02  0.27589570256E+03  0.26294585653E+03 0.  0.
         25    1    3    3    0    0 -0.34825499955E+02  0.48735206790E+02  0.20904661395E+03  0.25087034646E+03  0.12509000000E+03 0.  0.
         25    1    4    4    0    0  0.34221206277E+02 -0.43737376868E+02 -0.22099266544E+01  0.13688111985E+03  0.12509000000E+03 0.  0.
         25    1    4    4    0    0  0.60429367833E+00 -0.49978299224E+01  0.60433456242E+02  0.13901458272E+03  0.12509000000E+03 0.  0.
<mgrwt>
<rscale>  2 0.45392636E+03</rscale>
<asrwt>0</asrwt>
<pdfrwt beam="1">  1       21 0.58385014E-01 0.45392636E+03</pdfrwt>
<pdfrwt beam="2">  1       21 0.19080581E-01 0.45392636E+03</pdfrwt>
<totfact> 0.63968653E+04</totfact>
</mgrwt>
</event>
<event>
 7    0  0.4750554E-002  0.4762858E+03  0.7546771E-02  0.1020161E+00
         21   -1    0    0  502  501  0.00000000000E+00  0.00000000000E+00  0.23104189291E+02  0.23104189291E+02  0.00000000000E+00 0. -1.
         21   -1    0    0  501  502 -0.00000000000E+00 -0.00000000000E+00 -0.24546212986E+04  0.24546212986E+04  0.00000000000E+00 0. -1.
      99926    2    1    2    0    0  0.00000000000E+00  0.00000000000E+00 -0.24315171093E+04  0.24777254879E+04  0.47628577607E+03 0.  0.
      99925    2    3    3    0    0  0.12416435258E+03  0.16113410927E+02 -0.17218703715E+04  0.17463415743E+04  0.26304921489E+03 0.  0.
         25    1    3    3    0    0 -0.12416435258E+03 -0.16113410927E+02 -0.70964673783E+03  0.73138391360E+03  0.12509000000E+03 0.  0.
         25    1    4    4    0    0  0.10293034016E+03  0.72049867313E+01 -0.10644637331E+04  0.10767437550E+04  0.12509000000E+03 0.  0.
         25    1    4    4    0    0  0.21234012413E+02  0.89084241952E+01 -0.65740663841E+03  0.66959781931E+03  0.12509000000E+03 0.  0.
<mgrwt>
<rscale>  2 0.47628578E+03</rscale>
<asrwt>0</asrwt>
<pdfrwt beam="1">  1       21 0.33976741E-02 0.47628578E+03</pdfrwt>
<pdfrwt beam="2">  1       21 0.36097381E+00 0.47628578E+03</pdfrwt>
<totfact> 0.62606327E+03</totfact>
</mgrwt>
</event>
<event>
 7    0  0.4750554E-002  0.4779212E+03  0.7546771E-02  0.1019708E+00
         21   -1    0    0  502  501  0.00000000000E+00  0.00000000000E+00  0.11626948131E+03  0.11626948131E+03  0.00000000000E+00 0. -1.
         21   -1    0    0  501  502 -0.00000000000E+00 -0.00000000000E+00 -0.49111919586E+03  0.49111919586E+03  0.00000000000E+00 0. -1.
      99926    2    1    2    0    0  0.00000000000E+00  0.00000000000E+00 -0.37484971455E+03  0.60738867717E+03  0.47792122432E+03 0.  0.
      99925    2    3    3    0    0  0.69190584445E+02  0.11045075607E+03 -0.26889512979E+03  0.39795948001E+03  0.26283160086E+03 0.  0.
         25    1    4    4    0    0  0.23187432537E+02  0.68028128084E+02 -0.86871568113E+02  0.16840326803E+03  0.12509000000E+03 0.  0.
         25    1    3    3    0    0 -0.69190584445E+02 -0.11045075607E+03 -0.10595458476E+03  0.20942919716E+03  0.12509000000E+03 0.  0.
         25    1    4    4    0    0  0.46003151908E+02  0.42422627984E+02 -0.18202356167E+03  0.22955621197E+03  0.12509000000E+03 0.  0.
<mgrwt>
<rscale>  2 0.47792122E+03</rscale>
<asrwt>0</asrwt>
<pdfrwt beam="1">  1       21 0.17098453E-01 0.47792122E+03</pdfrwt>
<pdfrwt beam="2">  1       21 0.72223412E-01 0.47792122E+03</pdfrwt>
<totfact> 0.48774608E+04</totfact>
</mgrwt>
</event>
<event>
 7    0  0.4750554E-002  0.4524660E+03  0.7546771E-02  0.1026989E+00
         21   -1    0    0  502  501  0.00000000000E+00  0.00000000000E+00  0.10982705200E+03  0.10982705200E+03  0.00000000000E+00 0. -1.
         21   -1    0    0  501  502 -0.00000000000E+00 -0.00000000000E+00 -0.46601784597E+03  0.46601784597E+03  0.00000000000E+00 0. -1.
      99926    2    1    2    0    0  0.71054273576E-14  0.17763568394E-14 -0.35619079397E+03  0.57584489796E+03  0.45246598193E+03 0.  0.
      99925    2    3    3    0    0 -0.40078058566E+02 -0.10787239892E+02 -0.35533602599E+03  0.44404636212E+03  0.26304156519E+03 0.  0.
         25    1    3    3    0    0  0.40078058566E+02  0.10787239892E+02 -0.85476797744E+00  0.13179853585E+03  0.12509000000E+03 0.  0.
         25    1    4    4    0    0 -0.17897549339E+02 -0.49906674066E+01 -0.24485914386E+03  0.27558798498E+03  0.12509000000E+03 0.  0.
         25    1    4    4    0    0 -0.22180509228E+02 -0.57965724856E+01 -0.11047688213E+03  0.16845837713E+03  0.12509000000E+03 0.  0.
<mgrwt>
<rscale>  2 0.45246598E+03</rscale>
<asrwt>0</asrwt>
<pdfrwt beam="1">  1       21 0.16151037E-01 0.45246598E+03</pdfrwt>
<pdfrwt beam="2">  1       21 0.68532036E-01 0.45246598E+03</pdfrwt>
<totfact> 0.61411448E+04</totfact>
</mgrwt>
</event>
<event>
 7    0  0.4750554E-002  0.4656039E+03  0.7546771E-02  0.1023168E+00
         21   -1    0    0  502  501  0.00000000000E+00  0.00000000000E+00  0.22041117700E+04  0.22041117700E+04  0.00000000000E+00 0.  1.
         21   -1    0    0  501  502 -0.00000000000E+00 -0.00000000000E+00 -0.24588924481E+02  0.24588924481E+02  0.00000000000E+00 0.  1.
      99926    2    1    2    0    0 -0.17763568394E-14 -0.88817841970E-15  0.21795228455E+04  0.22287006945E+04  0.46560385677E+03 0.  0.
      99925    2    3    3    0    0  0.12215194050E+02 -0.63981490260E+01  0.77434190023E+03  0.81789555401E+03  0.26297834804E+03 0.  0.
         25    1    3    3    0    0 -0.12215194050E+02  0.63981490260E+01  0.14051809453E+04  0.14108051405E+04  0.12509000000E+03 0.  0.
         25    1    4    4    0    0  0.33947841618E+02  0.25946508650E+02  0.37582266259E+03  0.39839159012E+03  0.12509000000E+03 0.  0.
         25    1    4    4    0    0 -0.21732647568E+02 -0.32344657676E+02  0.39851923765E+03  0.41950396390E+03  0.12509000000E+03 0.  0.
<mgrwt>
<rscale>  2 0.46560386E+03</rscale>
<asrwt>0</asrwt>
<pdfrwt beam="1">  1       21 0.32413395E+00 0.46560386E+03</pdfrwt>
<pdfrwt beam="2">  1       21 0.36160198E-02 0.46560386E+03</pdfrwt>
<totfact> 0.95143191E+03</totfact>
</mgrwt>
</event>
<event>
 7    0  0.4750554E-002  0.4551149E+03  0.7546771E-02  0.1026208E+00
         21   -1    0    0  502  501  0.00000000000E+00  0.00000000000E+00  0.58541212673E+03  0.58541212673E+03  0.00000000000E+00 0. -1.
         21   -1    0    0  501  502 -0.00000000000E+00 -0.00000000000E+00 -0.88454596261E+02  0.88454596261E+02  0.00000000000E+00 0. -1.
      99926    2    1    2    0    0  0.00000000000E+00  0.00000000000E+00  0.49695753047E+03  0.67386672299E+03  0.45511490117E+03 0.  0.
      99925    2    3    3    0    0  0.29393678128E+02  0.68310852936E+02  0.18860109133E+03  0.33289522477E+03  0.26404260656E+03 0.  0.
         25    1    4    4    0    0 -0.13621345877E+02  0.33374821502E+02  0.53896967469E+02  0.14089645480E+03  0.12509000000E+03 0.  0.
         25    1    4    4    0    0  0.43015024005E+02  0.34936031434E+02  0.13470412386E+03  0.19199876997E+03  0.12509000000E+03 0.  0.
         25    1    3    3    0    0 -0.29393678128E+02 -0.68310852936E+02  0.30835643914E+03  0.34097149822E+03  0.12509000000E+03 0.  0.
<mgrwt>
<rscale>  2 0.45511490E+03</rscale>
<asrwt>0</asrwt>
<pdfrwt beam="1">  1       21 0.86090017E-01 0.45511490E+03</pdfrwt>
<pdfrwt beam="2">  1       21 0.13008029E-01 0.45511490E+03</pdfrwt>
<totfact> 0.54296056E+04</totfact>
</mgrwt>
</event>
<event>
 7    0  0.4750554E-002  0.4551137E+03  0.7546771E-02  0.1026208E+00
         21   -1    0    0  502  501  0.00000000000E+00  0.00000000000E+00  0.39986838502E+03  0.39986838502E+03  0.00000000000E+00 0. -1.
         21   -1    0    0  501  502 -0.00000000000E+00 -0.00000000000E+00 -0.12949789987E+03  0.12949789987E+03  0.00000000000E+00 0. -1.
      99926    2    1    2    0    0  0.14210854715E-13 -0.14210854715E-13  0.27037048515E+03  0.52936628488E+03  0.45511368287E+03 0.  0.
      99925    2    3    3    0    0  0.88415609941E+02 -0.70517719830E+02  0.17882609304E+03  0.33748623715E+03  0.26292226955E+03 0.  0.
         25    1    3    3    0    0 -0.88415609941E+02  0.70517719830E+02  0.91544392104E+02  0.19188004773E+03  0.12509000000E+03 0.  0.
         25    1    4    4    0    0  0.23435028620E+02  0.87642322477E+00  0.93386310735E+02  0.15785588306E+03  0.12509000000E+03 0.  0.
         25    1    4    4    0    0  0.64980581321E+02 -0.71394143055E+02  0.85439782307E+02  0.17963035409E+03  0.12509000000E+03 0.  0.
<mgrwt>
<rscale>  2 0.45511368E+03</rscale>
<asrwt>0</asrwt>
<pdfrwt beam="1">  1       21 0.58804174E-01 0.45511368E+03</pdfrwt>
<pdfrwt beam="2">  1       21 0.19043809E-01 0.45511368E+03</pdfrwt>
<totfact> 0.63192495E+04</totfact>
</mgrwt>
</event>
<event>
 7    0  0.4750554E-002  0.3970269E+03  0.7546771E-02  0.1044814E+00
         21   -1    0    0  502  501  0.00000000000E+00  0.00000000000E+00  0.14240032373E+03  0.14240032373E+03  0.00000000000E+00 0. -1.
         21   -1    0    0  501  502 -0.00000000000E+00 -0.00000000000E+00 -0.27673808445E+03  0.27673808445E+03  0.00000000000E+00 0. -1.
      99926    2    1    2    0    0  0.00000000000E+00  0.00000000000E+00 -0.13433776072E+03  0.41913840818E+03  0.39702691502E+03 0.  0.
      99925    2    3    3    0    0  0.35503089119E+02 -0.16393270272E+02 -0.86527949036E+02  0.27963036238E+03  0.26301491394E+03 0.  0.
         25    1    3    3    0    0 -0.35503089119E+02  0.16393270272E+02 -0.47809811688E+02  0.13950804579E+03  0.12509000000E+03 0.  0.
         25    1    4    4    0    0  0.47865749273E+02  0.21867940945E+01 -0.71039627052E+02  0.15162469698E+03  0.12509000000E+03 0.  0.
         25    1    4    4    0    0 -0.12362660154E+02 -0.18580064366E+02 -0.15488321984E+02  0.12800566541E+03  0.12509000000E+03 0.  0.
<mgrwt>
<rscale>  2 0.39702692E+03</rscale>
<asrwt>0</asrwt>
<pdfrwt beam="1">  1       21 0.20941224E-01 0.39702692E+03</pdfrwt>
<pdfrwt beam="2">  1       21 0.40696777E-01 0.39702692E+03</pdfrwt>
<totfact> 0.11643725E+05</totfact>
</mgrwt>
</event>
<event>
 7    0  0.4750554E-002  0.4629340E+03  0.7546771E-02  0.1023934E+00
         21   -1    0    0  502  501  0.00000000000E+00  0.00000000000E+00  0.76221502599E+03  0.76221502599E+03  0.00000000000E+00 0. -1.
         21   -1    0    0  501  502 -0.00000000000E+00 -0.00000000000E+00 -0.70291154678E+02  0.70291154678E+02  0.00000000000E+00 0. -1.
      99926    2    1    2    0    0 -0.35527136788E-14  0.00000000000E+00  0.69192387131E+03  0.83250618066E+03  0.46293400951E+03 0.  0.
      99925    2    3    3    0    0  0.21288615644E+02 -0.11774367604E+03  0.40707071084E+03  0.49918109980E+03  0.26297990107E+03 0.  0.
         25    1    4    4    0    0 -0.82458694063E+01 -0.23043393114E+02  0.15328498571E+03  0.19935593112E+03  0.12509000000E+03 0.  0.
         25    1    3    3    0    0 -0.21288615644E+02  0.11774367604E+03  0.28485316047E+03  0.33332508087E+03  0.12509000000E+03 0.  0.
         25    1    4    4    0    0  0.29534485051E+02 -0.94700282931E+02  0.25378572513E+03  0.29982516868E+03  0.12509000000E+03 0.  0.
<mgrwt>
<rscale>  2 0.46293401E+03</rscale>
<asrwt>0</asrwt>
<pdfrwt beam="1">  1       21 0.11209044E+00 0.46293401E+03</pdfrwt>
<pdfrwt beam="2">  1       21 0.10336935E-01 0.46293401E+03</pdfrwt>
<totfact> 0.43462964E+04</totfact>
</mgrwt>
</event>
<event>
 7    0  0.4750554E-002  0.4620002E+03  0.7546771E-02  0.1024203E+00
         21   -1    0    0  502  501  0.00000000000E+00  0.00000000000E+00  0.10244486982E+03  0.10244486982E+03  0.00000000000E+00 0.  1.
         21   -1    0    0  501  502 -0.00000000000E+00 -0.00000000000E+00 -0.52087564004E+03  0.52087564004E+03  0.00000000000E+00 0.  1.
      99926    2    1    2    0    0  0.00000000000E+00  0.00000000000E+00 -0.41843077022E+03  0.62332050986E+03  0.46200016076E+03 0.  0.
      99925    2    3    3    0    0 -0.38756703974E+02 -0.10359023584E+03 -0.19885569252E+03  0.34746956838E+03  0.26259949627E+03 0.  0.
         25    1    4    4    0    0 -0.58080016907E+02 -0.42586394488E+02 -0.10519028436E+03  0.17860401279E+03  0.12509000000E+03 0.  0.
         25    1    3    3    0    0  0.38756703974E+02  0.10359023584E+03 -0.21957507770E+03  0.27585094148E+03  0.12509000000E+03 0.  0.
         25    1    4    4    0    0  0.19323312933E+02 -0.61003841351E+02 -0.93665408156E+02  0.16886555560E+03  0.12509000000E+03 0.  0.
<mgrwt>
<rscale>  2 0.46200016E+03</rscale>
<asrwt>0</asrwt>
<pdfrwt beam="1">  1       21 0.15065423E-01 0.46200016E+03</pdfrwt>
<pdfrwt beam="2">  1       21 0.76599356E-01 0.46200016E+03</pdfrwt>
<totfact> 0.54206401E+04</totfact>
</mgrwt>
</event>
<event>
 7    0  0.4750554E-002  0.4481456E+03  0.7546771E-02  0.1028276E+00
         21   -1    0    0  502  501  0.00000000000E+00  0.00000000000E+00  0.58013758770E+02  0.58013758770E+02  0.00000000000E+00 0. -1.
         21   -1    0    0  501  502 -0.00000000000E+00 -0.00000000000E+00 -0.86546039875E+03  0.86546039875E+03  0.00000000000E+00 0. -1.
      99926    2    1    2    0    0  0.00000000000E+00  0.71054273576E-14 -0.80744663998E+03  0.92347415752E+03  0.44814556027E+03 0.  0.
      99925    2    3    3    0    0  0.82416563189E+02  0.62564305156E+02 -0.56393726658E+03  0.63081205680E+03  0.26304339602E+03 0.  0.
         25    1    4    4    0    0  0.25399709817E+02  0.66284560076E+02 -0.25785750808E+03  0.29525716035E+03  0.12509000000E+03 0.  0.
         25    1    3    3    0    0 -0.82416563189E+02 -0.62564305156E+02 -0.24350937339E+03  0.29266210072E+03  0.12509000000E+03 0.  0.
         25    1    4    4    0    0  0.57016853372E+02 -0.37202549203E+01 -0.30607975850E+03  0.33555489645E+03  0.12509000000E+03 0.  0.
<mgrwt>
<rscale>  2 0.44814556E+03</rscale>
<asrwt>0</asrwt>
<pdfrwt beam="1">  1       21 0.85314358E-02 0.44814556E+03</pdfrwt>
<pdfrwt beam="2">  1       21 0.12727358E+00 0.44814556E+03</pdfrwt>
<totfact> 0.44576483E+04</totfact>
</mgrwt>
</event>
<event>
 7    0  0.4750554E-002  0.4421070E+03  0.7546771E-02  0.1030102E+00
         21   -1    0    0  502  501  0.00000000000E+00  0.00000000000E+00  0.25227589477E+03  0.25227589477E+03  0.00000000000E+00 0. -1.
         21   -1    0    0  501  502 -0.00000000000E+00 -0.00000000000E+00 -0.19369527587E+03  0.19369527587E+03  0.00000000000E+00 0. -1.
      99926    2    1    2    0    0  0.00000000000E+00  0.00000000000E+00  0.58580618901E+02  0.44597117065E+03  0.44210699625E+03 0.  0.
      99925    2    3    3    0    0  0.56260363277E+02  0.60404780665E+02  0.95211736000E+02  0.29168794783E+03  0.26306390523E+03 0.  0.
         25    1    4    4    0    0  0.60321778077E+02  0.99436138781E+01  0.32975146406E+02  0.14308200707E+03  0.12509000000E+03 0.  0.
         25    1    4    4    0    0 -0.40614147998E+01  0.50461166787E+02  0.62236589594E+02  0.14860594076E+03  0.12509000000E+03 0.  0.
         25    1    3    3    0    0 -0.56260363277E+02 -0.60404780665E+02 -0.36631117099E+02  0.15428322282E+03  0.12509000000E+03 0.  0.
<mgrwt>
<rscale>  2 0.44210700E+03</rscale>
<asrwt>0</asrwt>
<pdfrwt beam="1">  1       21 0.37099396E-01 0.44210700E+03</pdfrwt>
<pdfrwt beam="2">  1       21 0.28484599E-01 0.44210700E+03</pdfrwt>
<totfact> 0.76814640E+04</totfact>
</mgrwt>
</event>
<event>
 7    0  0.4750554E-002  0.4522843E+03  0.7546771E-02  0.1027043E+00
         21   -1    0    0  502  501  0.00000000000E+00  0.00000000000E+00  0.21254935419E+03  0.21254935419E+03  0.00000000000E+00 0.  1.
         21   -1    0    0  501  502 -0.00000000000E+00 -0.00000000000E+00 -0.24060420407E+03  0.24060420407E+03  0.00000000000E+00 0.  1.
      99926    2    1    2    0    0  0.71054273576E-14  0.35527136788E-14 -0.28054849879E+02  0.45315355826E+03  0.45228428313E+03 0.  0.
      99925    2    3    3    0    0  0.33565958664E+02  0.10070966235E+02 -0.12310198052E+03  0.29218908055E+03  0.26266378365E+03 0.  0.
         25    1    4    4    0    0 -0.84483250370E+01 -0.19026064187E+02 -0.81745881427E+02  0.15087498979E+03  0.12509000000E+03 0.  0.
         25    1    4    4    0    0  0.42014283701E+02  0.29097030422E+02 -0.41356099097E+02  0.14131409076E+03  0.12509000000E+03 0.  0.
         25    1    3    3    0    0 -0.33565958664E+02 -0.10070966235E+02  0.95047130645E+02  0.16096447771E+03  0.12509000000E+03 0.  0.
<mgrwt>
<rscale>  2 0.45228428E+03</rscale>
<asrwt>0</asrwt>
<pdfrwt beam="1">  1       21 0.31257258E-01 0.45228428E+03</pdfrwt>
<pdfrwt beam="2">  1       21 0.35382971E-01 0.45228428E+03</pdfrwt>
<totfact> 0.70189910E+04</totfact>
</mgrwt>
</event>
<event>
 7    0  0.4750554E-002  0.4564029E+03  0.7546771E-02  0.1025830E+00
         21   -1    0    0  502  501  0.00000000000E+00  0.00000000000E+00  0.16851507688E+03  0.16851507688E+03  0.00000000000E+00 0.  1.
         21   -1    0    0  501  502 -0.00000000000E+00 -0.00000000000E+00 -0.30902809727E+03  0.30902809727E+03  0.00000000000E+00 0.  1.
      99926    2    1    2    0    0 -0.71054273576E-14 -0.35527136788E-14 -0.14051302039E+03  0.47754317415E+03  0.45640286401E+03 0.  0.
      99925    2    3    3    0    0 -0.48510730942E+02 -0.25692078306E+02 -0.19347966345E+03  0.33102919092E+03  0.26293073454E+03 0.  0.
         25    1    4    4    0    0 -0.69734074708E+01 -0.21783381442E+02 -0.13889272631E+03  0.18831314782E+03  0.12509000000E+03 0.  0.
         25    1    3    3    0    0  0.48510730942E+02  0.25692078306E+02  0.52966643061E+02  0.14651398323E+03  0.12509000000E+03 0.  0.
         25    1    4    4    0    0 -0.41537323471E+02 -0.39086968645E+01 -0.54586937140E+02  0.14271604310E+03  0.12509000000E+03 0.  0.
<mgrwt>
<rscale>  2 0.45640286E+03</rscale>
<asrwt>0</asrwt>
<pdfrwt beam="1">  1       21 0.24781629E-01 0.45640286E+03</pdfrwt>
<pdfrwt beam="2">  1       21 0.45445308E-01 0.45640286E+03</pdfrwt>
<totfact> 0.66139913E+04</totfact>
</mgrwt>
</event>
<event>
 7    0  0.4750554E-002  0.4565989E+03  0.7546771E-02  0.1025772E+00
         21   -1    0    0  502  501  0.00000000000E+00  0.00000000000E+00  0.13486052764E+04  0.13486052764E+04  0.00000000000E+00 0. -1.
         21   -1    0    0  501  502 -0.00000000000E+00 -0.00000000000E+00 -0.38647815536E+02  0.38647815536E+02  0.00000000000E+00 0. -1.
      99926    2    1    2    0    0  0.00000000000E+00 -0.71054273576E-14  0.13099574609E+04  0.13872530920E+04  0.45659893979E+03 0.  0.
      99925    2    3    3    0    0 -0.22411779030E+02  0.49461425967E+02  0.11299268265E+04  0.11614052274E+04  0.26301853273E+03 0.  0.
         25    1    3    3    0    0  0.22411779030E+02 -0.49461425967E+02  0.18003063443E+03  0.22584786457E+03  0.12509000000E+03 0.  0.
         25    1    4    4    0    0  0.11504123407E+02  0.56770023260E+02  0.62937714926E+03  0.64429673637E+03  0.12509000000E+03 0.  0.
         25    1    4    4    0    0 -0.33915902437E+02 -0.73085972931E+01  0.50054967722E+03  0.51710849103E+03  0.12509000000E+03 0.  0.
<mgrwt>
<rscale>  2 0.45659894E+03</rscale>
<asrwt>0</asrwt>
<pdfrwt beam="1">  1       21 0.19832427E+00 0.45659894E+03</pdfrwt>
<pdfrwt beam="2">  1       21 0.56835032E-02 0.45659894E+03</pdfrwt>
<totfact> 0.26344783E+04</totfact>
</mgrwt>
</event>
<event>
 7    0  0.4750554E-002  0.4521428E+03  0.7546771E-02  0.1027085E+00
         21   -1    0    0  502  501  0.00000000000E+00  0.00000000000E+00  0.31148122765E+03  0.31148122765E+03  0.00000000000E+00 0.  1.
         21   -1    0    0  501  502 -0.00000000000E+00 -0.00000000000E+00 -0.16408143948E+03  0.16408143948E+03  0.00000000000E+00 0.  1.
      99926    2    1    2    0    0  0.00000000000E+00 -0.35527136788E-14  0.14739978817E+03  0.47556266714E+03  0.45214284559E+03 0.  0.
      99925    2    3    3    0    0  0.66271573996E+02  0.26102598682E+02  0.18195076846E+03  0.32752704468E+03  0.26285854690E+03 0.  0.
         25    1    4    4    0    0  0.29014258382E+02 -0.24152611216E+02  0.10678199655E+03  0.16874560351E+03  0.12509000000E+03 0.  0.
         25    1    4    4    0    0  0.37257315614E+02  0.50255209898E+02  0.75168771908E+02  0.15878144117E+03  0.12509000000E+03 0.  0.
         25    1    3    3    0    0 -0.66271573996E+02 -0.26102598682E+02 -0.34550980286E+02  0.14803562246E+03  0.12509000000E+03 0.  0.
<mgrwt>
<rscale>  2 0.45214285E+03</rscale>
<asrwt>0</asrwt>
<pdfrwt beam="1">  1       21 0.45806063E-01 0.45214285E+03</pdfrwt>
<pdfrwt beam="2">  1       21 0.24129623E-01 0.45214285E+03</pdfrwt>
<totfact> 0.68566225E+04</totfact>
</mgrwt>
</event>
<event>
 7    0  0.4750554E-002  0.4554589E+03  0.7546771E-02  0.1026107E+00
         21   -1    0    0  502  501  0.00000000000E+00  0.00000000000E+00  0.23162640961E+03  0.23162640961E+03  0.00000000000E+00 0. -1.
         21   -1    0    0  501  502 -0.00000000000E+00 -0.00000000000E+00 -0.22389808748E+03  0.22389808748E+03  0.00000000000E+00 0. -1.
      99926    2    1    2    0    0  0.71054273576E-14  0.00000000000E+00  0.77283221281E+01  0.45552449710E+03  0.45545893393E+03 0.  0.
      99925    2    3    3    0    0  0.57262066223E+02 -0.13246126394E+02 -0.92435146913E+02  0.28483579588E+03  0.26293111291E+03 0.  0.
         25    1    4    4    0    0  0.19417037346E+02 -0.37112552650E+02 -0.19706006988E+02  0.13337989997E+03  0.12509000000E+03 0.  0.
         25    1    3    3    0    0 -0.57262066223E+02  0.13246126394E+02  0.10016346904E+03  0.17068870122E+03  0.12509000000E+03 0.  0.
         25    1    4    4    0    0  0.37845028878E+02  0.23866426256E+02 -0.72729139925E+02  0.15145589591E+03  0.12509000000E+03 0.  0.
<mgrwt>
<rscale>  2 0.45545893E+03</rscale>
<asrwt>0</asrwt>
<pdfrwt beam="1">  1       21 0.34062707E-01 0.45545893E+03</pdfrwt>
<pdfrwt beam="2">  1       21 0.32926189E-01 0.45545893E+03</pdfrwt>
<totfact> 0.68257099E+04</totfact>
</mgrwt>
</event>
<event>
 7    0  0.4750554E-002  0.4722578E+03  0.7546771E-02  0.1021285E+00
         21   -1    0    0  502  501  0.00000000000E+00  0.00000000000E+00  0.14388600280E+03  0.14388600280E+03  0.00000000000E+00 0.  1.
         21   -1    0    0  501  502 -0.00000000000E+00 -0.00000000000E+00 -0.38750724695E+03  0.38750724695E+03  0.00000000000E+00 0.  1.
      99926    2    1    2    0    0 -0.71054273576E-14 -0.14210854715E-13 -0.24362124415E+03  0.53139324975E+03  0.47225784830E+03 0.  0.
      99925    2    3    3    0    0 -0.47361777637E+02 -0.11958310222E+03 -0.15668982362E+03  0.33202465570E+03  0.26295515749E+03 0.  0.
         25    1    4    4    0    0  0.89760183955E+01 -0.31962266999E+02 -0.59594865369E+02  0.14248231994E+03  0.12509000000E+03 0.  0.
         25    1    4    4    0    0 -0.56337796032E+02 -0.87620835221E+02 -0.97094958253E+02  0.18954233576E+03  0.12509000000E+03 0.  0.
         25    1    3    3    0    0  0.47361777637E+02  0.11958310222E+03 -0.86931420531E+02  0.19936859405E+03  0.12509000000E+03 0.  0.
<mgrwt>
<rscale>  2 0.47225785E+03</rscale>
<asrwt>0</asrwt>
<pdfrwt beam="1">  1       21 0.21159706E-01 0.47225785E+03</pdfrwt>
<pdfrwt beam="2">  1       21 0.56986360E-01 0.47225785E+03</pdfrwt>
<totfact> 0.55168216E+04</totfact>
</mgrwt>
</event>
<event>
 7    0  0.4750554E-002  0.4653782E+03  0.7546771E-02  0.1023233E+00
         21   -1    0    0  502  501  0.00000000000E+00  0.00000000000E+00  0.15077121688E+03  0.15077121688E+03  0.00000000000E+00 0.  1.
         21   -1    0    0  501  502 -0.00000000000E+00 -0.00000000000E+00 -0.35911501990E+03  0.35911501990E+03  0.00000000000E+00 0.  1.
      99926    2    1    2    0    0  0.71054273576E-14 -0.14210854715E-13 -0.20834380302E+03  0.50988623678E+03  0.46537816257E+03 0.  0.
      99925    2    3    3    0    0  0.55735986795E+02 -0.10854753418E+03 -0.11641408885E+03  0.31243333645E+03  0.26300814102E+03 0.  0.
         25    1    4    4    0    0  0.10147800940E+02 -0.24994668818E+02 -0.24317332461E+02  0.13025571808E+03  0.12509000000E+03 0.  0.
         25    1    4    4    0    0  0.45588185854E+02 -0.83552865363E+02 -0.92096756392E+02  0.18217761838E+03  0.12509000000E+03 0.  0.
         25    1    3    3    0    0 -0.55735986795E+02  0.10854753418E+03 -0.91929714169E+02  0.19745290033E+03  0.12509000000E+03 0.  0.
<mgrwt>
<rscale>  2 0.46537816E+03</rscale>
<asrwt>0</asrwt>
<pdfrwt beam="1">  1       21 0.22172238E-01 0.46537816E+03</pdfrwt>
<pdfrwt beam="2">  1       21 0.52811033E-01 0.46537816E+03</pdfrwt>
<totfact> 0.59524922E+04</totfact>
</mgrwt>
</event>
<event>
 7    0  0.4750554E-002  0.4533713E+03  0.7546771E-02  0.1026721E+00
         21   -1    0    0  502  501  0.00000000000E+00  0.00000000000E+00  0.59878476618E+03  0.59878476618E+03  0.00000000000E+00 0. -1.
         21   -1    0    0  501  502 -0.00000000000E+00 -0.00000000000E+00 -0.85817800313E+02  0.85817800313E+02  0.00000000000E+00 0. -1.
      99926    2    1    2    0    0 -0.71054273576E-14  0.00000000000E+00  0.51296696587E+03  0.68460256649E+03  0.45337133343E+03 0.  0.
      99925    2    3    3    0    0 -0.37638563259E+02  0.10280309746E+03  0.28761640056E+03  0.40457484701E+03  0.26262611194E+03 0.  0.
         25    1    4    4    0    0  0.74306240847E+01  0.45081437101E+02  0.18064078157E+03  0.22442404107E+03  0.12509000000E+03 0.  0.
         25    1    3    3    0    0  0.37638563259E+02 -0.10280309746E+03  0.22535056531E+03  0.28002771948E+03  0.12509000000E+03 0.  0.
         25    1    4    4    0    0 -0.45069187343E+02  0.57721660362E+02  0.10697561899E+03  0.18015080594E+03  0.12509000000E+03 0.  0.
<mgrwt>
<rscale>  2 0.45337133E+03</rscale>
<asrwt>0</asrwt>
<pdfrwt beam="1">  1       21 0.88056581E-01 0.45337133E+03</pdfrwt>
<pdfrwt beam="2">  1       21 0.12620265E-01 0.45337133E+03</pdfrwt>
<totfact> 0.54441921E+04</totfact>
</mgrwt>
</event>
<event>
 7    0  0.4750554E-002  0.4501168E+03  0.7546771E-02  0.1027687E+00
         21   -1    0    0  502  501  0.00000000000E+00  0.00000000000E+00  0.16242812855E+03  0.16242812855E+03  0.00000000000E+00 0. -1.
         21   -1    0    0  501  502 -0.00000000000E+00 -0.00000000000E+00 -0.31183813936E+03  0.31183813936E+03  0.00000000000E+00 0. -1.
      99926    2    1    2    0    0  0.00000000000E+00  0.14210854715E-13 -0.14941001081E+03  0.47426626791E+03  0.45011680878E+03 0.  0.
      99925    2    3    3    0    0 -0.75525505334E+01 -0.10655238121E+03 -0.74148482186E+02  0.29337332511E+03  0.26298186157E+03 0.  0.
         25    1    4    4    0    0  0.12591324784E+02 -0.13523858016E+02 -0.38730583268E+02  0.13224599191E+03  0.12509000000E+03 0.  0.
         25    1    3    3    0    0  0.75525505334E+01  0.10655238121E+03 -0.75261528624E+02  0.18089294279E+03  0.12509000000E+03 0.  0.
         25    1    4    4    0    0 -0.20143875317E+02 -0.93028523199E+02 -0.35417898918E+02  0.16112733320E+03  0.12509000000E+03 0.  0.
<mgrwt>
<rscale>  2 0.45011681E+03</rscale>
<asrwt>0</asrwt>
<pdfrwt beam="1">  1       21 0.23886490E-01 0.45011681E+03</pdfrwt>
<pdfrwt beam="2">  1       21 0.45858549E-01 0.45011681E+03</pdfrwt>
<totfact> 0.69785531E+04</totfact>
</mgrwt>
</event>
<event>
 7    0  0.4750554E-002  0.4517696E+03  0.7546771E-02  0.1027196E+00
         21   -1    0    0  502  501  0.00000000000E+00  0.00000000000E+00  0.17776412504E+03  0.17776412504E+03  0.00000000000E+00 0.  1.
         21   -1    0    0  501  502 -0.00000000000E+00 -0.00000000000E+00 -0.28703176948E+03  0.28703176948E+03  0.00000000000E+00 0.  1.
      99926    2    1    2    0    0  0.00000000000E+00  0.00000000000E+00 -0.10926764444E+03  0.46479589452E+03  0.45176963759E+03 0.  0.
      99925    2    3    3    0    0 -0.56970959191E+02 -0.70040876059E+01 -0.16561877322E+03  0.31607566978E+03  0.26301996796E+03 0.  0.
         25    1    4    4    0    0 -0.46525558220E+02  0.10545165111E+01 -0.12765831584E+03  0.18468863873E+03  0.12509000000E+03 0.  0.
         25    1    3    3    0    0  0.56970959191E+02  0.70040876059E+01  0.56351128782E+02  0.14872022475E+03  0.12509000000E+03 0.  0.
         25    1    4    4    0    0 -0.10445400971E+02 -0.80586041170E+01 -0.37960457380E+02  0.13138703104E+03  0.12509000000E+03 0.  0.
<mgrwt>
<rscale>  2 0.45176964E+03</rscale>
<asrwt>0</asrwt>
<pdfrwt beam="1">  1       21 0.26141783E-01 0.45176964E+03</pdfrwt>
<pdfrwt beam="2">  1       21 0.42210554E-01 0.45176964E+03</pdfrwt>
<totfact> 0.69591080E+04</totfact>
</mgrwt>
</event>
<event>
 7    0  0.4750554E-002  0.4545620E+03  0.7546771E-02  0.1026370E+00
         21   -1    0    0  502  501  0.00000000000E+00  0.00000000000E+00  0.30230587038E+03  0.30230587038E+03  0.00000000000E+00 0.  1.
         21   -1    0    0  501  502 -0.00000000000E+00 -0.00000000000E+00 -0.17087548268E+03  0.17087548268E+03  0.00000000000E+00 0.  1.
      99926    2    1    2    0    0  0.00000000000E+00  0.00000000000E+00  0.13143038770E+03  0.47318135307E+03  0.45456203766E+03 0.  0.
      99925    2    3    3    0    0 -0.48364103732E+02  0.89702751087E+02  0.13329453746E+03  0.31182258127E+03  0.26283115947E+03 0.  0.
         25    1    3    3    0    0  0.48364103732E+02 -0.89702751087E+02 -0.18641497633E+01  0.16135877180E+03  0.12509000000E+03 0.  0.
         25    1    4    4    0    0 -0.24098775976E+01  0.79263283013E+02  0.65580036949E+02  0.16197754440E+03  0.12509000000E+03 0.  0.
         25    1    4    4    0    0 -0.45954226134E+02  0.10439468074E+02  0.67714500512E+02  0.14984503686E+03  0.12509000000E+03 0.  0.
<mgrwt>
<rscale>  2 0.45456204E+03</rscale>
<asrwt>0</asrwt>
<pdfrwt beam="1">  1       21 0.44456746E-01 0.45456204E+03</pdfrwt>
<pdfrwt beam="2">  1       21 0.25128747E-01 0.45456204E+03</pdfrwt>
<totfact> 0.67433975E+04</totfact>
</mgrwt>
</event>
<event>
 7    0  0.4750554E-002  0.4442103E+03  0.7546771E-02  0.1029463E+00
         21   -1    0    0  502  501  0.00000000000E+00  0.00000000000E+00  0.26232402893E+03  0.26232402893E+03  0.00000000000E+00 0.  1.
         21   -1    0    0  501  502 -0.00000000000E+00 -0.00000000000E+00 -0.18805255154E+03  0.18805255154E+03  0.00000000000E+00 0.  1.
      99926    2    1    2    0    0  0.00000000000E+00  0.00000000000E+00  0.74271477390E+02  0.45037658048E+03  0.44421032393E+03 0.  0.
      99925    2    3    3    0    0 -0.20912558330E+02 -0.10044644349E+03  0.39715496071E+02  0.28494246352E+03  0.26284608383E+03 0.  0.
         25    1    4    4    0    0 -0.23037872325E+02 -0.72985119556E+02 -0.11276462646E+02  0.14707901940E+03  0.12509000000E+03 0.  0.
         25    1    3    3    0    0  0.20912558330E+02  0.10044644349E+03  0.34555981319E+02  0.16543411695E+03  0.12509000000E+03 0.  0.
         25    1    4    4    0    0  0.21253139950E+01 -0.27461323938E+02  0.50991958717E+02  0.13786344412E+03  0.12509000000E+03 0.  0.
<mgrwt>
<rscale>  2 0.44421032E+03</rscale>
<asrwt>0</asrwt>
<pdfrwt beam="1">  1       21 0.38577063E-01 0.44421032E+03</pdfrwt>
<pdfrwt beam="2">  1       21 0.27654787E-01 0.44421032E+03</pdfrwt>
<totfact> 0.75148268E+04</totfact>
</mgrwt>
</event>
<event>
 7    0  0.4750554E-002  0.4541493E+03  0.7546771E-02  0.1026492E+00
         21   -1    0    0  502  501  0.00000000000E+00  0.00000000000E+00  0.21082548836E+03  0.21082548836E+03  0.00000000000E+00 0.  1.
         21   -1    0    0  501  502 -0.00000000000E+00 -0.00000000000E+00 -0.24457623986E+03  0.24457623986E+03  0.00000000000E+00 0.  1.
      99926    2    1    2    0    0  0.00000000000E+00  0.14210854715E-13 -0.33750751497E+02  0.45540172823E+03  0.45414933760E+03 0.  0.
      99925    2    3    3    0    0 -0.90190764350E+02  0.64525544941E+02 -0.44525261874E+02  0.28788600330E+03  0.26191206926E+03 0.  0.
         25    1    3    3    0    0  0.90190764350E+02 -0.64525544941E+02  0.10774510377E+02  0.16751572493E+03  0.12509000000E+03 0.  0.
         25    1    4    4    0    0 -0.52472876124E+02  0.59646737454E+02  0.45000364149E+01  0.14825280586E+03  0.12509000000E+03 0.  0.
         25    1    4    4    0    0 -0.37717888227E+02  0.48788074864E+01 -0.49025298289E+02  0.13963319744E+03  0.12509000000E+03 0.  0.
<mgrwt>
<rscale>  2 0.45414934E+03</rscale>
<asrwt>0</asrwt>
<pdfrwt beam="1">  1       21 0.31003748E-01 0.45414934E+03</pdfrwt>
<pdfrwt beam="2">  1       21 0.35967094E-01 0.45414934E+03</pdfrwt>
<totfact> 0.68983425E+04</totfact>
</mgrwt>
</event>
<event>
 7    0  0.4750554E-002  0.4521198E+03  0.7546771E-02  0.1027092E+00
         21   -1    0    0  502  501  0.00000000000E+00  0.00000000000E+00  0.20422381637E+03  0.20422381637E+03  0.00000000000E+00 0. -1.
         21   -1    0    0  501  502 -0.00000000000E+00 -0.00000000000E+00 -0.25023075072E+03  0.25023075072E+03  0.00000000000E+00 0. -1.
      99926    2    1    2    0    0  0.00000000000E+00  0.00000000000E+00 -0.46006934358E+02  0.45445456709E+03  0.45211980220E+03 0.  0.
      99925    2    3    3    0    0 -0.68997795791E+02 -0.76767100995E+02 -0.68320876371E+02  0.29074963825E+03  0.26308501739E+03 0.  0.
         25    1    3    3    0    0  0.68997795791E+02  0.76767100995E+02  0.22313942013E+02  0.16370492884E+03  0.12509000000E+03 0.  0.
         25    1    4    4    0    0 -0.25499952295E+02 -0.55515907825E+02 -0.71669176922E+02  0.15657663494E+03  0.12509000000E+03 0.  0.
         25    1    4    4    0    0 -0.43497843495E+02 -0.21251193171E+02  0.33483005507E+01  0.13417300331E+03  0.12509000000E+03 0.  0.
<mgrwt>
<rscale>  2 0.45211980E+03</rscale>
<asrwt>0</asrwt>
<pdfrwt beam="1">  1       21 0.30032914E-01 0.45211980E+03</pdfrwt>
<pdfrwt beam="2">  1       21 0.36798640E-01 0.45211980E+03</pdfrwt>
<totfact> 0.70184771E+04</totfact>
</mgrwt>
</event>
<event>
 7    0  0.4750554E-002  0.4532280E+03  0.7546771E-02  0.1026764E+00
         21   -1    0    0  502  501  0.00000000000E+00  0.00000000000E+00  0.14841626496E+04  0.14841626496E+04  0.00000000000E+00 0.  1.
         21   -1    0    0  501  502 -0.00000000000E+00 -0.00000000000E+00 -0.34601262950E+02  0.34601262950E+02  0.00000000000E+00 0.  1.
      99926    2    1    2    0    0  0.00000000000E+00  0.00000000000E+00  0.14495613866E+04  0.15187639125E+04  0.45322798721E+03 0.  0.
      99925    2    3    3    0    0 -0.46112995255E+01 -0.66880912787E+02  0.61392488951E+03  0.67116130282E+03  0.26279155971E+03 0.  0.
         25    1    4    4    0    0 -0.28973739647E+02 -0.64557530453E+02  0.33026653973E+03  0.36018140942E+03  0.12509000000E+03 0.  0.
         25    1    4    4    0    0  0.24362440121E+02 -0.23233823336E+01  0.28365834978E+03  0.31097989339E+03  0.12509000000E+03 0.  0.
         25    1    3    3    0    0  0.46112995255E+01  0.66880912787E+02  0.83563649710E+03  0.84760260969E+03  0.12509000000E+03 0.  0.
<mgrwt>
<rscale>  2 0.45322799E+03</rscale>
<asrwt>0</asrwt>
<pdfrwt beam="1">  1       21 0.21825917E+00 0.45322799E+03</pdfrwt>
<pdfrwt beam="2">  1       21 0.50884220E-02 0.45322799E+03</pdfrwt>
<totfact> 0.23646757E+04</totfact>
</mgrwt>
</event>
<event>
 7    0  0.4750554E-002  0.4569721E+03  0.7546771E-02  0.1025663E+00
         21   -1    0    0  502  501  0.00000000000E+00  0.00000000000E+00  0.10054969078E+03  0.10054969078E+03  0.00000000000E+00 0.  1.
         21   -1    0    0  501  502 -0.00000000000E+00 -0.00000000000E+00 -0.51920461822E+03  0.51920461822E+03  0.00000000000E+00 0.  1.
      99926    2    1    2    0    0  0.17763568394E-14 -0.14210854715E-13 -0.41865492743E+03  0.61975430900E+03  0.45697205085E+03 0.  0.
      99925    2    3    3    0    0  0.34405441851E+01 -0.11494350523E+03 -0.26813161296E+03  0.39275513931E+03  0.26294142094E+03 0.  0.
         25    1    4    4    0    0  0.40096560301E+02 -0.67817394037E+02 -0.15048936159E+03  0.21095376065E+03  0.12509000000E+03 0.  0.
         25    1    4    4    0    0 -0.36656016116E+02 -0.47126111198E+02 -0.11764225137E+03  0.18180137866E+03  0.12509000000E+03 0.  0.
         25    1    3    3    0    0 -0.34405441851E+01  0.11494350523E+03 -0.15052331447E+03  0.22699916969E+03  0.12509000000E+03 0.  0.
<mgrwt>
<rscale>  2 0.45697205E+03</rscale>
<asrwt>0</asrwt>
<pdfrwt beam="1">  1       21 0.14786719E-01 0.45697205E+03</pdfrwt>
<pdfrwt beam="2">  1       21 0.76353619E-01 0.45697205E+03</pdfrwt>
<totfact> 0.56592071E+04</totfact>
</mgrwt>
</event>
<event>
 7    0  0.4750554E-002  0.4592718E+03  0.7546771E-02  0.1024993E+00
         21   -1    0    0  502  501  0.00000000000E+00  0.00000000000E+00  0.75728491495E+02  0.75728491495E+02  0.00000000000E+00 0.  1.
         21   -1    0    0  501  502 -0.00000000000E+00 -0.00000000000E+00 -0.69633813196E+03  0.69633813196E+03  0.00000000000E+00 0.  1.
      99926    2    1    2    0    0  0.00000000000E+00 -0.71054273576E-14 -0.62060964046E+03  0.77206662345E+03  0.45927175530E+03 0.  0.
      99925    2    3    3    0    0 -0.31851650935E+02  0.31276639484E+02 -0.20737411616E+03  0.33801148583E+03  0.26316341816E+03 0.  0.
         25    1    4    4    0    0  0.13175386257E+02 -0.13363902324E+02 -0.10473590937E+03  0.16422333422E+03  0.12509000000E+03 0.  0.
         25    1    4    4    0    0 -0.45027037192E+02  0.44640541808E+02 -0.10263820678E+03  0.17378815162E+03  0.12509000000E+03 0.  0.
         25    1    3    3    0    0  0.31851650935E+02 -0.31276639484E+02 -0.41323552431E+03  0.43405513762E+03  0.12509000000E+03 0.  0.
<mgrwt>
<rscale>  2 0.45927176E+03</rscale>
<asrwt>0</asrwt>
<pdfrwt beam="1">  1       21 0.11136543E-01 0.45927176E+03</pdfrwt>
<pdfrwt beam="2">  1       21 0.10240266E+00 0.45927176E+03</pdfrwt>
<totfact> 0.47531555E+04</totfact>
</mgrwt>
</event>
<event>
 6    0  0.6902289E-002  0.4260958E+03  0.7546771E-02  0.1035100E+00
         21   -1    0    0  502  501  0.00000000000E+00  0.00000000000E+00  0.12243535118E+03  0.12243535118E+03  0.00000000000E+00 0. -1.
         21   -1    0    0  501  502 -0.00000000000E+00 -0.00000000000E+00 -0.37072133846E+03  0.37072133846E+03  0.00000000000E+00 0. -1.
      99926    2    1    2    0    0  0.57731597281E-14 -0.35527136788E-14 -0.24828598728E+03  0.49315668965E+03  0.42609575105E+03 0.  0.
         25    1    3    3    0    0  0.32407713096E+02  0.22868749677E+02 -0.15331752963E+02  0.13212043872E+03  0.12509000000E+03 0.  0.
         25    1    3    3    0    0  0.26608703844E+01  0.18664506816E+02 -0.16708856699E+03  0.20957466776E+03  0.12509000000E+03 0.  0.
         25    1    3    3    0    0 -0.35068583481E+02 -0.41533256493E+02 -0.65865667326E+02  0.15146158316E+03  0.12509000000E+03 0.  0.
<mgrwt>
<rscale>  2 0.42609575E+03</rscale>
<asrwt>0</asrwt>
<pdfrwt beam="1">  1       21 0.18005199E-01 0.42609575E+03</pdfrwt>
<pdfrwt beam="2">  1       21 0.54517844E-01 0.42609575E+03</pdfrwt>
<totfact> 0.83274719E+04</totfact>
</mgrwt>
</event>
<event>
 7    0  0.4750554E-002  0.4565778E+03  0.7546771E-02  0.1025778E+00
         21   -1    0    0  502  501  0.00000000000E+00  0.00000000000E+00  0.93876574258E+03  0.93876574258E+03  0.00000000000E+00 0. -1.
         21   -1    0    0  501  502 -0.00000000000E+00 -0.00000000000E+00 -0.55515259818E+02  0.55515259818E+02  0.00000000000E+00 0. -1.
      99926    2    1    2    0    0 -0.71054273576E-14  0.00000000000E+00  0.88325048276E+03  0.99428100240E+03  0.45657780983E+03 0.  0.
      99925    2    3    3    0    0 -0.46521013807E+02  0.10272392793E+03  0.59959345814E+03  0.66439431608E+03  0.26304197782E+03 0.  0.
         25    1    4    4    0    0 -0.16900309156E+02  0.93934977571E+02  0.32832641295E+03  0.36408122995E+03  0.12509000000E+03 0.  0.
         25    1    4    4    0    0 -0.29620704651E+02  0.87889503588E+01  0.27126704519E+03  0.30031308612E+03  0.12509000000E+03 0.  0.
         25    1    3    3    0    0  0.46521013807E+02 -0.10272392793E+03  0.28365702462E+03  0.32988668632E+03  0.12509000000E+03 0.  0.
<mgrwt>
<rscale>  2 0.45657781E+03</rscale>
<asrwt>0</asrwt>
<pdfrwt beam="1">  1       21 0.13805378E+00 0.45657781E+03</pdfrwt>
<pdfrwt beam="2">  1       21 0.81640094E-02 0.45657781E+03</pdfrwt>
<totfact> 0.38908267E+04</totfact>
</mgrwt>
</event>
<event>
 7    0  0.4750554E-002  0.4502573E+03  0.7546771E-02  0.1027645E+00
         21   -1    0    0  502  501  0.00000000000E+00  0.00000000000E+00  0.50328172502E+03  0.50328172502E+03  0.00000000000E+00 0. -1.
         21   -1    0    0  501  502 -0.00000000000E+00 -0.00000000000E+00 -0.10070483213E+03  0.10070483213E+03  0.00000000000E+00 0. -1.
      99926    2    1    2    0    0  0.00000000000E+00  0.22204460493E-15  0.40257689289E+03  0.60398655714E+03  0.45025726704E+03 0.  0.
      99925    2    3    3    0    0  0.10817534424E+03  0.10177948643E+01  0.24085923065E+03  0.37267929096E+03  0.26300901869E+03 0.  0.
         25    1    3    3    0    0 -0.10817534424E+03 -0.10177948643E+01  0.16171766224E+03  0.23130726618E+03  0.12509000000E+03 0.  0.
         25    1    4    4    0    0  0.60066272100E+02  0.14185258249E+02  0.72866986810E+02  0.15737307413E+03  0.12509000000E+03 0.  0.
         25    1    4    4    0    0  0.48109072142E+02 -0.13167463384E+02  0.16799224384E+03  0.21530621683E+03  0.12509000000E+03 0.  0.
<mgrwt>
<rscale>  2 0.45025727E+03</rscale>
<asrwt>0</asrwt>
<pdfrwt beam="1">  1       21 0.74012017E-01 0.45025727E+03</pdfrwt>
<pdfrwt beam="2">  1       21 0.14809534E-01 0.45025727E+03</pdfrwt>
<totfact> 0.60675191E+04</totfact>
</mgrwt>
</event>
<event>
 7    0  0.4750554E-002  0.4800123E+03  0.7546771E-02  0.1019132E+00
         21   -1    0    0  502  501  0.00000000000E+00  0.00000000000E+00  0.84460045784E+03  0.84460045784E+03  0.00000000000E+00 0. -1.
         21   -1    0    0  501  502 -0.00000000000E+00 -0.00000000000E+00 -0.68201411586E+02  0.68201411586E+02  0.00000000000E+00 0. -1.
      99926    2    1    2    0    0  0.00000000000E+00  0.00000000000E+00  0.77639904625E+03  0.91280186942E+03  0.48001226422E+03 0.  0.
      99925    2    3    3    0    0  0.10133374234E+03 -0.71920775328E+02  0.37661042837E+03  0.47585842646E+03  0.26299182880E+03 0.  0.
         25    1    3    3    0    0 -0.10133374234E+03  0.71920775328E+02  0.39978861788E+03  0.43694344296E+03  0.12509000000E+03 0.  0.
         25    1    4    4    0    0  0.51656400699E+02 -0.63385918304E+02  0.24772474481E+03  0.28931162380E+03  0.12509000000E+03 0.  0.
         25    1    4    4    0    0  0.49677341645E+02 -0.85348570233E+01  0.12888568356E+03  0.18654680266E+03  0.12509000000E+03 0.  0.
<mgrwt>
<rscale>  2 0.48001226E+03</rscale>
<asrwt>0</asrwt>
<pdfrwt beam="1">  1       21 0.12420594E+00 0.48001226E+03</pdfrwt>
<pdfrwt beam="2">  1       21 0.10029620E-01 0.48001226E+03</pdfrwt>
<totfact> 0.35257350E+04</totfact>
</mgrwt>
</event>
<event>
 7    0  0.4750554E-002  0.4513040E+03  0.7546771E-02  0.1027334E+00
         21   -1    0    0  502  501  0.00000000000E+00  0.00000000000E+00  0.10332704160E+03  0.10332704160E+03  0.00000000000E+00 0.  1.
         21   -1    0    0  501  502 -0.00000000000E+00 -0.00000000000E+00 -0.49279286202E+03  0.49279286202E+03  0.00000000000E+00 0.  1.
      99926    2    1    2    0    0  0.71054273576E-14  0.00000000000E+00 -0.38946582042E+03  0.59611990362E+03  0.45130401530E+03 0.  0.
      99925    2    3    3    0    0  0.51238722727E+02 -0.88680069399E+02 -0.29896388092E+03  0.41084262340E+03  0.26253132706E+03 0.  0.
         25    1    4    4    0    0  0.52140858367E+02 -0.47134319336E+02 -0.19937683716E+03  0.24563986742E+03  0.12509000000E+03 0.  0.
         25    1    4    4    0    0 -0.90213564029E+00 -0.41545750063E+02 -0.99587043755E+02  0.16520275597E+03  0.12509000000E+03 0.  0.
         25    1    3    3    0    0 -0.51238722727E+02  0.88680069399E+02 -0.90501939500E+02  0.18527728023E+03  0.12509000000E+03 0.  0.
<mgrwt>
<rscale>  2 0.45130402E+03</rscale>
<asrwt>0</asrwt>
<pdfrwt beam="1">  1       21 0.15195153E-01 0.45130402E+03</pdfrwt>
<pdfrwt beam="2">  1       21 0.72469539E-01 0.45130402E+03</pdfrwt>
<totfact> 0.60670334E+04</totfact>
</mgrwt>
</event>
<event>
 7    0  0.4750554E-002  0.4460795E+03  0.7546771E-02  0.1028898E+00
         21   -1    0    0  502  501  0.00000000000E+00  0.00000000000E+00  0.88967920638E+02  0.88967920638E+02  0.00000000000E+00 0. -1.
         21   -1    0    0  501  502 -0.00000000000E+00 -0.00000000000E+00 -0.55915365077E+03  0.55915365077E+03  0.00000000000E+00 0. -1.
      99926    2    1    2    0    0  0.00000000000E+00  0.00000000000E+00 -0.47018573013E+03  0.64812157141E+03  0.44607953383E+03 0.  0.
      99925    2    3    3    0    0 -0.48536647854E+02 -0.75513951303E+02 -0.22035590599E+03  0.35465843547E+03  0.26299756181E+03 0.  0.
         25    1    4    4    0    0 -0.26922032454E+01 -0.49502049186E+01 -0.79405363537E+02  0.14827161679E+03  0.12509000000E+03 0.  0.
         25    1    3    3    0    0  0.48536647854E+02  0.75513951303E+02 -0.24982982414E+03  0.29346313594E+03  0.12509000000E+03 0.  0.
         25    1    4    4    0    0 -0.45844444609E+02 -0.70563746384E+02 -0.14095054245E+03  0.20638681868E+03  0.12509000000E+03 0.  0.
<mgrwt>
<rscale>  2 0.44607953E+03</rscale>
<asrwt>0</asrwt>
<pdfrwt beam="1">  1       21 0.13083517E-01 0.44607953E+03</pdfrwt>
<pdfrwt beam="2">  1       21 0.82228480E-01 0.44607953E+03</pdfrwt>
<totfact> 0.59916252E+04</totfact>
</mgrwt>
</event>
<event>
 7    0  0.4750554E-002  0.4583366E+03  0.7546771E-02  0.1025265E+00
         21   -1    0    0  502  501  0.00000000000E+00  0.00000000000E+00  0.10330231787E+04  0.10330231787E+04  0.00000000000E+00 0. -1.
         21   -1    0    0  501  502 -0.00000000000E+00 -0.00000000000E+00 -0.50839230868E+02  0.50839230868E+02  0.00000000000E+00 0. -1.
      99926    2    1    2    0    0 -0.14210854715E-13  0.00000000000E+00  0.98218394781E+03  0.10838624095E+04  0.45833657446E+03 0.  0.
      99925    2    3    3    0    0 -0.91402039016E+02 -0.19035851283E+02  0.45274389323E+03  0.53189232352E+03  0.26308879603E+03 0.  0.
         25    1    4    4    0    0 -0.28369663755E+02 -0.67319564239E+00  0.14704059738E+03  0.19512492509E+03  0.12509000000E+03 0.  0.
         25    1    3    3    0    0  0.91402039016E+02  0.19035851283E+02  0.52944005458E+03  0.55197008602E+03  0.12509000000E+03 0.  0.
         25    1    4    4    0    0 -0.63032375261E+02 -0.18362655641E+02  0.30570329585E+03  0.33676739843E+03  0.12509000000E+03 0.  0.
<mgrwt>
<rscale>  2 0.45833657E+03</rscale>
<asrwt>0</asrwt>
<pdfrwt beam="1">  1       21 0.15191516E+00 0.45833657E+03</pdfrwt>
<pdfrwt beam="2">  1       21 0.74763581E-02 0.45833657E+03</pdfrwt>
<totfact> 0.35135214E+04</totfact>
</mgrwt>
</event>
<event>
 7    0  0.4750554E-002  0.4498457E+03  0.7546771E-02  0.1027768E+00
         21   -1    0    0  502  501  0.00000000000E+00  0.00000000000E+00  0.44887774211E+02  0.44887774211E+02  0.00000000000E+00 0.  1.
         21   -1    0    0  501  502 -0.00000000000E+00 -0.00000000000E+00 -0.11270395423E+04  0.11270395423E+04  0.00000000000E+00 0.  1.
      99926    2    1    2    0    0  0.44408920985E-15  0.00000000000E+00 -0.10821517681E+04  0.11719273165E+04  0.44984573579E+03 0.  0.
      99925    2    3    3    0    0  0.19590899460E+01  0.59682612851E+02 -0.91982348009E+03  0.95847045085E+03  0.26272517642E+03 0.  0.
         25    1    3    3    0    0 -0.19590899460E+01 -0.59682612851E+02 -0.16232828798E+03  0.21345686564E+03  0.12509000000E+03 0.  0.
         25    1    4    4    0    0 -0.12348738708E+02 -0.85570480714E+01 -0.41087773398E+03  0.42976008982E+03  0.12509000000E+03 0.  0.
         25    1    4    4    0    0  0.14307828654E+02  0.68239660923E+02 -0.50894574611E+03  0.52871036104E+03  0.12509000000E+03 0.  0.
<mgrwt>
<rscale>  2 0.44984574E+03</rscale>
<asrwt>0</asrwt>
<pdfrwt beam="1">  1       21 0.66011429E-02 0.44984574E+03</pdfrwt>
<pdfrwt beam="2">  1       21 0.16574112E+00 0.44984574E+03</pdfrwt>
<totfact> 0.34420386E+04</totfact>
</mgrwt>
</event>
<event>
 7    0  0.4750554E-002  0.4687871E+03  0.7546771E-02  0.1022263E+00
         21   -1    0    0  502  501  0.00000000000E+00  0.00000000000E+00  0.11127225906E+03  0.11127225906E+03  0.00000000000E+00 0.  1.
         21   -1    0    0  501  502 -0.00000000000E+00 -0.00000000000E+00 -0.49374690495E+03  0.49374690495E+03  0.00000000000E+00 0.  1.
      99926    2    1    2    0    0  0.00000000000E+00  0.00000000000E+00 -0.38247464588E+03  0.60501916401E+03  0.46878708821E+03 0.  0.
      99925    2    3    3    0    0  0.36700045852E+02  0.11905847807E+03 -0.25905748635E+03  0.38960997680E+03  0.26298923595E+03 0.  0.
         25    1    4    4    0    0 -0.21810165513E+02  0.64057027721E+02 -0.13270185804E+03  0.19451549385E+03  0.12509000000E+03 0.  0.
         25    1    3    3    0    0 -0.36700045852E+02 -0.11905847807E+03 -0.12341715954E+03  0.21540918721E+03  0.12509000000E+03 0.  0.
         25    1    4    4    0    0  0.58510211365E+02  0.55001450344E+02 -0.12635562830E+03  0.19509448295E+03  0.12509000000E+03 0.  0.
<mgrwt>
<rscale>  2 0.46878709E+03</rscale>
<asrwt>0</asrwt>
<pdfrwt beam="1">  1       21 0.16363567E-01 0.46878709E+03</pdfrwt>
<pdfrwt beam="2">  1       21 0.72609839E-01 0.46878709E+03</pdfrwt>
<totfact> 0.52422489E+04</totfact>
</mgrwt>
</event>
<event>
 7    0  0.4750554E-002  0.4411078E+03  0.7546771E-02  0.1030407E+00
         21   -1    0    0  502  501  0.00000000000E+00  0.00000000000E+00  0.36176297317E+03  0.36176297317E+03  0.00000000000E+00 0.  1.
         21   -1    0    0  501  502 -0.00000000000E+00 -0.00000000000E+00 -0.13446377325E+03  0.13446377325E+03  0.00000000000E+00 0.  1.
      99926    2    1    2    0    0  0.00000000000E+00  0.00000000000E+00  0.22729919992E+03  0.49622674643E+03  0.44110776188E+03 0.  0.
      99925    2    3    3    0    0 -0.24848750041E+02  0.67679372447E+02  0.22066950279E+03  0.35169502390E+03  0.26419008789E+03 0.  0.
         25    1    4    4    0    0 -0.18322798006E+02 -0.40033241944E+01  0.77147896851E+02  0.14815889315E+03  0.12509000000E+03 0.  0.
         25    1    4    4    0    0 -0.65259520349E+01  0.71682696641E+02  0.14352160594E+03  0.20353613075E+03  0.12509000000E+03 0.  0.
         25    1    3    3    0    0  0.24848750041E+02 -0.67679372447E+02  0.66296971268E+01  0.14453172253E+03  0.12509000000E+03 0.  0.
<mgrwt>
<rscale>  2 0.44110776E+03</rscale>
<asrwt>0</asrwt>
<pdfrwt beam="1">  1       21 0.53200437E-01 0.44110776E+03</pdfrwt>
<pdfrwt beam="2">  1       21 0.19774084E-01 0.44110776E+03</pdfrwt>
<totfact> 0.73290836E+04</totfact>
</mgrwt>
</event>
<event>
 7    0  0.4750554E-002  0.4542685E+03  0.7546771E-02  0.1026457E+00
         21   -1    0    0  502  501  0.00000000000E+00  0.00000000000E+00  0.20623716991E+03  0.20623716991E+03  0.00000000000E+00 0.  1.
         21   -1    0    0  501  502 -0.00000000000E+00 -0.00000000000E+00 -0.25014871760E+03  0.25014871760E+03  0.00000000000E+00 0.  1.
      99926    2    1    2    0    0  0.00000000000E+00 -0.35527136788E-14 -0.43911547689E+02  0.45638588751E+03  0.45426848262E+03 0.  0.
      99925    2    3    3    0    0  0.10864517647E+03  0.25102509439E+02 -0.41874988732E+02  0.28879839985E+03  0.26309141135E+03 0.  0.
         25    1    4    4    0    0  0.24048077701E+02  0.39837367121E+02 -0.28570674799E+02  0.13648852486E+03  0.12509000000E+03 0.  0.
         25    1    3    3    0    0 -0.10864517647E+03 -0.25102509439E+02 -0.20365589570E+01  0.16758748766E+03  0.12509000000E+03 0.  0.
         25    1    4    4    0    0  0.84597098764E+02 -0.14734857682E+02 -0.13304313934E+02  0.15230987499E+03  0.12509000000E+03 0.  0.
<mgrwt>
<rscale>  2 0.45426848E+03</rscale>
<asrwt>0</asrwt>
<pdfrwt beam="1">  1       21 0.30328996E-01 0.45426848E+03</pdfrwt>
<pdfrwt beam="2">  1       21 0.36786576E-01 0.45426848E+03</pdfrwt>
<totfact> 0.68845322E+04</totfact>
</mgrwt>
</event>
<event>
 7    0  0.4750554E-002  0.4567503E+03  0.7546771E-02  0.1025728E+00
         21   -1    0    0  502  501  0.00000000000E+00  0.00000000000E+00  0.62061624194E+02  0.62061624194E+02  0.00000000000E+00 0. -1.
         21   -1    0    0  501  502 -0.00000000000E+00 -0.00000000000E+00 -0.84037781659E+03  0.84037781659E+03  0.00000000000E+00 0. -1.
      99926    2    1    2    0    0  0.00000000000E+00  0.71054273576E-14 -0.77831619240E+03  0.90243944078E+03  0.45675031356E+03 0.  0.
      99925    2    3    3    0    0 -0.41097092918E+02 -0.60506897572E+02 -0.31473633642E+03  0.41674010306E+03  0.26317920954E+03 0.  0.
         25    1    3    3    0    0  0.41097092918E+02  0.60506897572E+02 -0.46357985597E+03  0.48569933772E+03  0.12509000000E+03 0.  0.
         25    1    4    4    0    0 -0.46115111557E+02 -0.37278484729E+00 -0.13681222419E+03  0.19102836248E+03  0.12509000000E+03 0.  0.
         25    1    4    4    0    0  0.50180186390E+01 -0.60134112725E+02 -0.17792411223E+03  0.22571174058E+03  0.12509000000E+03 0.  0.
<mgrwt>
<rscale>  2 0.45675031E+03</rscale>
<asrwt>0</asrwt>
<pdfrwt beam="1">  1       21 0.91267093E-02 0.45675031E+03</pdfrwt>
<pdfrwt beam="2">  1       21 0.12358498E+00 0.45675031E+03</pdfrwt>
<totfact> 0.42542402E+04</totfact>
</mgrwt>
</event>
<event>
 7    0  0.4750554E-002  0.4377980E+03  0.7546771E-02  0.1031425E+00
         21   -1    0    0  502  501  0.00000000000E+00  0.00000000000E+00  0.28006564998E+02  0.28006564998E+02  0.00000000000E+00 0. -1.
         21   -1    0    0  501  502 -0.00000000000E+00 -0.00000000000E+00 -0.17109119412E+04  0.17109119412E+04  0.00000000000E+00 0. -1.
      99926    2    1    2    0    0  0.00000000000E+00  0.00000000000E+00 -0.16829053762E+04  0.17389185062E+04  0.43779797390E+03 0.  0.
      99925    2    3    3    0    0  0.80356265933E+02  0.47564683187E+02 -0.11650309436E+04  0.11980294560E+04  0.26316905096E+03 0.  0.
         25    1    4    4    0    0  0.32559948363E+02  0.13092039289E+02 -0.73252825940E+03  0.74396015394E+03  0.12509000000E+03 0.  0.
         25    1    3    3    0    0 -0.80356265933E+02 -0.47564683187E+02 -0.51787443267E+03  0.54088905024E+03  0.12509000000E+03 0.  0.
         25    1    4    4    0    0  0.47796317570E+02  0.34472643898E+02 -0.43250268417E+03  0.45406930205E+03  0.12509000000E+03 0.  0.
<mgrwt>
<rscale>  2 0.43779797E+03</rscale>
<asrwt>0</asrwt>
<pdfrwt beam="1">  1       21 0.41186132E-02 0.43779797E+03</pdfrwt>
<pdfrwt beam="2">  1       21 0.25160465E+00 0.43779797E+03</pdfrwt>
<totfact> 0.21149510E+04</totfact>
</mgrwt>
</event>
<event>
 7    0  0.4750554E-002  0.4587188E+03  0.7546771E-02  0.1025153E+00
         21   -1    0    0  502  501  0.00000000000E+00  0.00000000000E+00  0.91166157307E+02  0.91166157307E+02  0.00000000000E+00 0.  1.
         21   -1    0    0  501  502 -0.00000000000E+00 -0.00000000000E+00 -0.57703148796E+03  0.57703148796E+03  0.00000000000E+00 0.  1.
      99926    2    1    2    0    0  0.00000000000E+00  0.00000000000E+00 -0.48586533065E+03  0.66819764527E+03  0.45871883939E+03 0.  0.
      99925    2    3    3    0    0  0.26044790776E+02  0.15083656450E+02 -0.46879408062E+03  0.53841019019E+03  0.26308134684E+03 0.  0.
         25    1    4    4    0    0 -0.10665494415E+02  0.25444520297E+02 -0.28870162639E+03  0.31584381197E+03  0.12509000000E+03 0.  0.
         25    1    4    4    0    0  0.36710285191E+02 -0.10360863847E+02 -0.18009245423E+03  0.22256637821E+03  0.12509000000E+03 0.  0.
         25    1    3    3    0    0 -0.26044790776E+02 -0.15083656450E+02 -0.17071250032E+02  0.12978745508E+03  0.12509000000E+03 0.  0.
<mgrwt>
<rscale>  2 0.45871884E+03</rscale>
<asrwt>0</asrwt>
<pdfrwt beam="1">  1       21 0.13406787E-01 0.45871884E+03</pdfrwt>
<pdfrwt beam="2">  1       21 0.84857574E-01 0.45871884E+03</pdfrwt>
<totfact> 0.53090116E+04</totfact>
</mgrwt>
</event>
<event>
 7    0  0.4750554E-002  0.4613422E+03  0.7546771E-02  0.1024393E+00
         21   -1    0    0  502  501  0.00000000000E+00  0.00000000000E+00  0.13199664567E+03  0.13199664567E+03  0.00000000000E+00 0.  1.
         21   -1    0    0  501  502 -0.00000000000E+00 -0.00000000000E+00 -0.40310995971E+03  0.40310995971E+03  0.00000000000E+00 0.  1.
      99926    2    1    2    0    0  0.71054273576E-14  0.00000000000E+00 -0.27111331404E+03  0.53510660538E+03  0.46134222663E+03 0.  0.
      99925    2    3    3    0    0  0.52300697631E+02  0.15397679760E+02 -0.29232179780E+03  0.39701330577E+03  0.26304957703E+03 0.  0.
         25    1    3    3    0    0 -0.52300697631E+02 -0.15397679760E+02  0.21208483754E+02  0.13809329961E+03  0.12509000000E+03 0.  0.
         25    1    4    4    0    0  0.65591518635E+02  0.68442791076E+00 -0.16881346863E+03  0.22010954330E+03  0.12509000000E+03 0.  0.
         25    1    4    4    0    0 -0.13290821003E+02  0.14713251850E+02 -0.12350832916E+03  0.17690376247E+03  0.12509000000E+03 0.  0.
<mgrwt>
<rscale>  2 0.46134223E+03</rscale>
<asrwt>0</asrwt>
<pdfrwt beam="1">  1       21 0.19411272E-01 0.46134223E+03</pdfrwt>
<pdfrwt beam="2">  1       21 0.59280876E-01 0.46134223E+03</pdfrwt>
<totfact> 0.59799226E+04</totfact>
</mgrwt>
</event>
<event>
 7    0  0.4750554E-002  0.4511562E+03  0.7546771E-02  0.1027378E+00
         21   -1    0    0  502  501  0.00000000000E+00  0.00000000000E+00  0.29771488903E+03  0.29771488903E+03  0.00000000000E+00 0.  1.
         21   -1    0    0  501  502 -0.00000000000E+00 -0.00000000000E+00 -0.17092018357E+03  0.17092018357E+03  0.00000000000E+00 0.  1.
      99926    2    1    2    0    0  0.00000000000E+00  0.00000000000E+00  0.12679470546E+03  0.46863507260E+03  0.45115621900E+03 0.  0.
      99925    2    3    3    0    0  0.79577015340E+02 -0.68006077757E+02  0.11342852464E+03  0.30497844771E+03  0.26303706085E+03 0.  0.
         25    1    4    4    0    0  0.55934964865E+02 -0.15039052683E+02  0.91269146810E+02  0.16532531161E+03  0.12509000000E+03 0.  0.
         25    1    3    3    0    0 -0.79577015340E+02  0.68006077757E+02  0.13366180817E+02  0.16365662489E+03  0.12509000000E+03 0.  0.
         25    1    4    4    0    0  0.23642050476E+02 -0.52967025074E+02  0.22159377832E+02  0.13965313610E+03  0.12509000000E+03 0.  0.
<mgrwt>
<rscale>  2 0.45115622E+03</rscale>
<asrwt>0</asrwt>
<pdfrwt beam="1">  1       21 0.43781601E-01 0.45115622E+03</pdfrwt>
<pdfrwt beam="2">  1       21 0.25135321E-01 0.45115622E+03</pdfrwt>
<totfact> 0.69636821E+04</totfact>
</mgrwt>
</event>
<event>
 7    0  0.4750554E-002  0.4578337E+03  0.7546771E-02  0.1025411E+00
         21   -1    0    0  502  501  0.00000000000E+00  0.00000000000E+00  0.19049064716E+03  0.19049064716E+03  0.00000000000E+00 0.  1.
         21   -1    0    0  501  502 -0.00000000000E+00 -0.00000000000E+00 -0.27509444680E+03  0.27509444680E+03  0.00000000000E+00 0.  1.
      99926    2    1    2    0    0  0.00000000000E+00  0.00000000000E+00 -0.84603799636E+02  0.46558509395E+03  0.45783367810E+03 0.  0.
      99925    2    3    3    0    0  0.60280378177E+02 -0.18397349708E+02 -0.15183093267E+03  0.31021720157E+03  0.26307773293E+03 0.  0.
         25    1    4    4    0    0  0.16970281050E+02  0.23850231826E+02 -0.96399906773E+02  0.16061529853E+03  0.12509000000E+03 0.  0.
         25    1    3    3    0    0 -0.60280378177E+02  0.18397349708E+02  0.67227133035E+02  0.15536789239E+03  0.12509000000E+03 0.  0.
         25    1    4    4    0    0  0.43310097127E+02 -0.42247581535E+02 -0.55431025898E+02  0.14960190303E+03  0.12509000000E+03 0.  0.
<mgrwt>
<rscale>  2 0.45783368E+03</rscale>
<asrwt>0</asrwt>
<pdfrwt beam="1">  1       21 0.28013330E-01 0.45783368E+03</pdfrwt>
<pdfrwt beam="2">  1       21 0.40455066E-01 0.45783368E+03</pdfrwt>
<totfact> 0.66261523E+04</totfact>
</mgrwt>
</event>
<event>
 7    0  0.4750554E-002  0.4555263E+03  0.7546771E-02  0.1026087E+00
         21   -1    0    0  502  501  0.00000000000E+00  0.00000000000E+00  0.15500828035E+03  0.15500828035E+03  0.00000000000E+00 0.  1.
         21   -1    0    0  501  502 -0.00000000000E+00 -0.00000000000E+00 -0.33466629139E+03  0.33466629139E+03  0.00000000000E+00 0.  1.
      99926    2    1    2    0    0  0.00000000000E+00  0.00000000000E+00 -0.17965801105E+03  0.48967457174E+03  0.45552627287E+03 0.  0.
      99925    2    3    3    0    0 -0.67519156368E+02  0.78532030700E+02 -0.62560962399E+02  0.28946132736E+03  0.26295982525E+03 0.  0.
         25    1    4    4    0    0 -0.32020227852E+02  0.60703266611E+02 -0.68098618684E+02  0.15809842357E+03  0.12509000000E+03 0.  0.
         25    1    4    4    0    0 -0.35498928515E+02  0.17828764089E+02  0.55376562849E+01  0.13136290379E+03  0.12509000000E+03 0.  0.
         25    1    3    3    0    0  0.67519156368E+02 -0.78532030700E+02 -0.11709704865E+03  0.20021324438E+03  0.12509000000E+03 0.  0.
<mgrwt>
<rscale>  2 0.45552627E+03</rscale>
<asrwt>0</asrwt>
<pdfrwt beam="1">  1       21 0.22795335E-01 0.45552627E+03</pdfrwt>
<pdfrwt beam="2">  1       21 0.49215631E-01 0.45552627E+03</pdfrwt>
<totfact> 0.65727287E+04</totfact>
</mgrwt>
</event>
<event>
 7    0  0.4750554E-002  0.4562017E+03  0.7546771E-02  0.1025889E+00
         21   -1    0    0  502  501  0.00000000000E+00  0.00000000000E+00  0.68910813931E+02  0.68910813931E+02  0.00000000000E+00 0. -1.
         21   -1    0    0  501  502 -0.00000000000E+00 -0.00000000000E+00 -0.75503372900E+03  0.75503372900E+03  0.00000000000E+00 0. -1.
      99926    2    1    2    0    0  0.35527136788E-14  0.00000000000E+00 -0.68612291507E+03  0.82394454293E+03  0.45620166072E+03 0.  0.
      99925    2    3    3    0    0 -0.17629411449E+02 -0.60090686600E+02 -0.60396688024E+03  0.66171381550E+03  0.26299713769E+03 0.  0.
         25    1    3    3    0    0  0.17629411449E+02  0.60090686600E+02 -0.82156034827E+02  0.16223072743E+03  0.12509000000E+03 0.  0.
         25    1    4    4    0    0  0.23806693903E+01 -0.63385508839E+01 -0.21145132040E+03  0.24577431480E+03  0.12509000000E+03 0.  0.
         25    1    4    4    0    0 -0.20010080840E+02 -0.53752135716E+02 -0.39251555984E+03  0.41593950071E+03  0.12509000000E+03 0.  0.
<mgrwt>
<rscale>  2 0.45620166E+03</rscale>
<asrwt>0</asrwt>
<pdfrwt beam="1">  1       21 0.10133944E-01 0.45620166E+03</pdfrwt>
<pdfrwt beam="2">  1       21 0.11103437E+00 0.45620166E+03</pdfrwt>
<totfact> 0.46191288E+04</totfact>
</mgrwt>
</event>
<event>
 7    0  0.4750554E-002  0.4544897E+03  0.7546771E-02  0.1026392E+00
         21   -1    0    0  502  501  0.00000000000E+00  0.00000000000E+00  0.32707481168E+03  0.32707481168E+03  0.00000000000E+00 0. -1.
         21   -1    0    0  501  502 -0.00000000000E+00 -0.00000000000E+00 -0.15788502967E+03  0.15788502967E+03  0.00000000000E+00 0. -1.
      99926    2    1    2    0    0  0.00000000000E+00 -0.35527136788E-14  0.16918978202E+03  0.48495984135E+03  0.45448967577E+03 0.  0.
      99925    2    3    3    0    0 -0.10701583110E+03  0.30387487055E+02  0.89006551121E+02  0.29934560134E+03  0.26326761180E+03 0.  0.
         25    1    3    3    0    0  0.10701583110E+03 -0.30387487055E+02  0.80183230896E+02  0.18561424001E+03  0.12509000000E+03 0.  0.
         25    1    4    4    0    0 -0.88436508474E+02  0.41022791227E+02  0.56317317393E+02  0.16829448526E+03  0.12509000000E+03 0.  0.
         25    1    4    4    0    0 -0.18579322631E+02 -0.10635304172E+02  0.32689233728E+02  0.13105111608E+03  0.12509000000E+03 0.  0.
<mgrwt>
<rscale>  2 0.45448968E+03</rscale>
<asrwt>0</asrwt>
<pdfrwt beam="1">  1       21 0.48099237E-01 0.45448968E+03</pdfrwt>
<pdfrwt beam="2">  1       21 0.23218387E-01 0.45448968E+03</pdfrwt>
<totfact> 0.66610238E+04</totfact>
</mgrwt>
</event>
<event>
 7    0  0.4750554E-002  0.4617191E+03  0.7546771E-02  0.1024284E+00
         21   -1    0    0  502  501  0.00000000000E+00  0.00000000000E+00  0.30304577372E+03  0.30304577372E+03  0.00000000000E+00 0. -1.
         21   -1    0    0  501  502 -0.00000000000E+00 -0.00000000000E+00 -0.17586828979E+03  0.17586828979E+03  0.00000000000E+00 0. -1.
      99926    2    1    2    0    0  0.35527136788E-14 -0.14210854715E-13  0.12717748393E+03  0.47891406352E+03  0.46171914387E+03 0.  0.
      99925    2    3    3    0    0 -0.27861942469E+02  0.10809924716E+03  0.12368805908E+03  0.31121964125E+03  0.26286345137E+03 0.  0.
         25    1    3    3    0    0  0.27861942469E+02 -0.10809924716E+03  0.34894248494E+01  0.16769442227E+03  0.12509000000E+03 0.  0.
         25    1    4    4    0    0 -0.20202083601E+02  0.25780080093E+02  0.89986698510E+02  0.15753682338E+03  0.12509000000E+03 0.  0.
         25    1    4    4    0    0 -0.76598588680E+01  0.82319167064E+02  0.33701360569E+02  0.15368281787E+03  0.12509000000E+03 0.  0.
<mgrwt>
<rscale>  2 0.46171914E+03</rscale>
<asrwt>0</asrwt>
<pdfrwt beam="1">  1       21 0.44565555E-01 0.46171914E+03</pdfrwt>
<pdfrwt beam="2">  1       21 0.25862984E-01 0.46171914E+03</pdfrwt>
<totfact> 0.63334195E+04</totfact>
</mgrwt>
</event>
<event>
 7    0  0.4750554E-002  0.4534458E+03  0.7546771E-02  0.1026699E+00
         21   -1    0    0  502  501  0.00000000000E+00  0.00000000000E+00  0.51194113052E+03  0.51194113052E+03  0.00000000000E+00 0. -1.
         21   -1    0    0  501  502 -0.00000000000E+00 -0.00000000000E+00 -0.10040855910E+03  0.10040855910E+03  0.00000000000E+00 0. -1.
      99926    2    1    2    0    0  0.71054273576E-14 -0.14210854715E-13  0.41153257142E+03  0.61234968963E+03  0.45344579064E+03 0.  0.
      99925    2    3    3    0    0 -0.44647040103E+02 -0.92759244589E+02  0.20059605711E+03  0.34638097565E+03  0.26295126263E+03 0.  0.
         25    1    4    4    0    0 -0.41067698769E+02 -0.76049669365E+02  0.13856610486E+03  0.20571383427E+03  0.12509000000E+03 0.  0.
         25    1    4    4    0    0 -0.35793413340E+01 -0.16709575224E+02  0.62029952249E+02  0.14066714138E+03  0.12509000000E+03 0.  0.
         25    1    3    3    0    0  0.44647040103E+02  0.92759244589E+02  0.21093651431E+03  0.26596871398E+03  0.12509000000E+03 0.  0.
<mgrwt>
<rscale>  2 0.45344579E+03</rscale>
<asrwt>0</asrwt>
<pdfrwt beam="1">  1       21 0.75285459E-01 0.45344579E+03</pdfrwt>
<pdfrwt beam="2">  1       21 0.14765965E-01 0.45344579E+03</pdfrwt>
<totfact> 0.58641028E+04</totfact>
</mgrwt>
</event>
<event>
 7    0  0.4750554E-002  0.4572069E+03  0.7546771E-02  0.1025594E+00
         21   -1    0    0  502  501  0.00000000000E+00  0.00000000000E+00  0.22373254674E+03  0.22373254674E+03  0.00000000000E+00 0. -1.
         21   -1    0    0  501  502 -0.00000000000E+00 -0.00000000000E+00 -0.23358037280E+03  0.23358037280E+03  0.00000000000E+00 0. -1.
      99926    2    1    2    0    0  0.14210854715E-13  0.83266726847E-15 -0.98478260640E+01  0.45731291954E+03  0.45720687517E+03 0.  0.
      99925    2    3    3    0    0  0.11344669016E+03 -0.41959162556E+00  0.14077327313E+02  0.28675428261E+03  0.26298197635E+03 0.  0.
         25    1    4    4    0    0  0.49528955976E+02 -0.14000443331E+02  0.44474040531E+02  0.14238882777E+03  0.12509000000E+03 0.  0.
         25    1    3    3    0    0 -0.11344669016E+03  0.41959162556E+00 -0.23925153377E+02  0.17055863693E+03  0.12509000000E+03 0.  0.
         25    1    4    4    0    0  0.63917734188E+02  0.13580851706E+02 -0.30396713217E+02  0.14436545484E+03  0.12509000000E+03 0.  0.
<mgrwt>
<rscale>  2 0.45720688E+03</rscale>
<asrwt>0</asrwt>
<pdfrwt beam="1">  1       21 0.32901845E-01 0.45720688E+03</pdfrwt>
<pdfrwt beam="2">  1       21 0.34350055E-01 0.45720688E+03</pdfrwt>
<totfact> 0.67185825E+04</totfact>
</mgrwt>
</event>
<event>
 7    0  0.4750554E-002  0.4554642E+03  0.7546771E-02  0.1026105E+00
         21   -1    0    0  502  501  0.00000000000E+00  0.00000000000E+00  0.35166328360E+03  0.35166328360E+03  0.00000000000E+00 0.  1.
         21   -1    0    0  501  502 -0.00000000000E+00 -0.00000000000E+00 -0.14747606279E+03  0.14747606279E+03  0.00000000000E+00 0.  1.
      99926    2    1    2    0    0  0.00000000000E+00  0.71054273576E-14  0.20418722081E+03  0.49913934639E+03  0.45546423127E+03 0.  0.
      99925    2    3    3    0    0 -0.40237042270E+02 -0.58822105357E+02  0.31472916378E+02  0.27429095590E+03  0.26299415274E+03 0.  0.
         25    1    4    4    0    0 -0.37088584056E+02 -0.48765179765E+02  0.48754040281E+02  0.14757394881E+03  0.12509000000E+03 0.  0.
         25    1    3    3    0    0  0.40237042270E+02  0.58822105357E+02  0.17271430443E+03  0.22484839049E+03  0.12509000000E+03 0.  0.
         25    1    4    4    0    0 -0.31484582142E+01 -0.10056925592E+02 -0.17281123903E+02  0.12671700709E+03  0.12509000000E+03 0.  0.
<mgrwt>
<rscale>  2 0.45546423E+03</rscale>
<asrwt>0</asrwt>
<pdfrwt beam="1">  1       21 0.51715188E-01 0.45546423E+03</pdfrwt>
<pdfrwt beam="2">  1       21 0.21687656E-01 0.45546423E+03</pdfrwt>
<totfact> 0.65090965E+04</totfact>
</mgrwt>
</event>
<event>
 7    0  0.4750554E-002  0.4570089E+03  0.7546771E-02  0.1025652E+00
         21   -1    0    0  502  501  0.00000000000E+00  0.00000000000E+00  0.85973283135E+03  0.85973283135E+03  0.00000000000E+00 0.  1.
         21   -1    0    0  501  502 -0.00000000000E+00 -0.00000000000E+00 -0.60733157668E+02  0.60733157668E+02  0.00000000000E+00 0.  1.
      99926    2    1    2    0    0  0.00000000000E+00  0.00000000000E+00  0.79899967368E+03  0.92046598901E+03  0.45700892595E+03 0.  0.
      99925    2    3    3    0    0 -0.66695993070E+02 -0.83258514935E+02  0.41509978207E+03  0.50284538287E+03  0.26299299268E+03 0.  0.
         25    1    4    4    0    0 -0.73875200129E+02 -0.35075623537E+02  0.21153685051E+03  0.25900423121E+03  0.12509000000E+03 0.  0.
         25    1    3    3    0    0  0.66695993070E+02  0.83258514935E+02  0.38389989160E+03  0.41762060614E+03  0.12509000000E+03 0.  0.
         25    1    4    4    0    0  0.71792070587E+01 -0.48182891398E+02  0.20356293156E+03  0.24384115166E+03  0.12509000000E+03 0.  0.
<mgrwt>
<rscale>  2 0.45700893E+03</rscale>
<asrwt>0</asrwt>
<pdfrwt beam="1">  1       21 0.12643129E+00 0.45700893E+03</pdfrwt>
<pdfrwt beam="2">  1       21 0.89313473E-02 0.45700893E+03</pdfrwt>
<totfact> 0.41701192E+04</totfact>
</mgrwt>
</event>
<event>
 7    0  0.4750554E-002  0.4458432E+03  0.7546771E-02  0.1028969E+00
         21   -1    0    0  502  501  0.00000000000E+00  0.00000000000E+00  0.19656792473E+02  0.19656792473E+02  0.00000000000E+00 0.  1.
         21   -1    0    0  501  502 -0.00000000000E+00 -0.00000000000E+00 -0.25280849093E+04  0.25280849093E+04  0.00000000000E+00 0.  1.
      99926    2    1    2    0    0  0.00000000000E+00  0.00000000000E+00 -0.25084281168E+04  0.25477417018E+04  0.44584320301E+03 0.  0.
      99925    2    3    3    0    0 -0.67122867624E+02  0.79610438825E+02 -0.15643781630E+04  0.15897640795E+04  0.26311117482E+03 0.  0.
         25    1    4    4    0    0 -0.26586777432E+01  0.41585573362E+02 -0.59079180954E+03  0.60532544867E+03  0.12509000000E+03 0.  0.
         25    1    3    3    0    0  0.67122867624E+02 -0.79610438825E+02 -0.94404995382E+03  0.95797762225E+03  0.12509000000E+03 0.  0.
         25    1    4    4    0    0 -0.64464189881E+02  0.38024865463E+02 -0.97358635348E+03  0.98443863088E+03  0.12509000000E+03 0.  0.
<mgrwt>
<rscale>  2 0.44584320E+03</rscale>
<asrwt>0</asrwt>
<pdfrwt beam="1">  1       21 0.28907039E-02 0.44584320E+03</pdfrwt>
<pdfrwt beam="2">  1       21 0.37177731E+00 0.44584320E+03</pdfrwt>
<totfact> 0.71513136E+03</totfact>
</mgrwt>
</event>
<event>
 7    0  0.4750554E-002  0.4548256E+03  0.7546771E-02  0.1026293E+00
         21   -1    0    0  502  501  0.00000000000E+00  0.00000000000E+00  0.10346241381E+04  0.10346241381E+04  0.00000000000E+00 0. -1.
         21   -1    0    0  501  502 -0.00000000000E+00 -0.00000000000E+00 -0.49985870770E+02  0.49985870770E+02  0.00000000000E+00 0. -1.
      99926    2    1    2    0    0  0.00000000000E+00  0.00000000000E+00  0.98463826737E+03  0.10846100089E+04  0.45482563017E+03 0.  0.
      99925    2    3    3    0    0 -0.10887423932E+03  0.28649039944E+02  0.64115856668E+03  0.70211794316E+03  0.26307970466E+03 0.  0.
         25    1    3    3    0    0  0.10887423932E+03 -0.28649039944E+02  0.34347970069E+03  0.38249206575E+03  0.12509000000E+03 0.  0.
         25    1    4    4    0    0 -0.76001306291E+02  0.98184700613E+01  0.25189904103E+03  0.29150169105E+03  0.12509000000E+03 0.  0.
         25    1    4    4    0    0 -0.32872933025E+02  0.18830569883E+02  0.38925952565E+03  0.41061625211E+03  0.12509000000E+03 0.  0.
<mgrwt>
<rscale>  2 0.45482563E+03</rscale>
<asrwt>0</asrwt>
<pdfrwt beam="1">  1       21 0.15215059E+00 0.45482563E+03</pdfrwt>
<pdfrwt beam="2">  1       21 0.73508640E-02 0.45482563E+03</pdfrwt>
<totfact> 0.36081544E+04</totfact>
</mgrwt>
</event>
<event>
 7    0  0.4750554E-002  0.4542908E+03  0.7546771E-02  0.1026450E+00
         21   -1    0    0  502  501  0.00000000000E+00  0.00000000000E+00  0.44195121628E+03  0.44195121628E+03  0.00000000000E+00 0.  1.
         21   -1    0    0  501  502 -0.00000000000E+00 -0.00000000000E+00 -0.11674375380E+03  0.11674375380E+03  0.00000000000E+00 0.  1.
      99926    2    1    2    0    0  0.00000000000E+00  0.00000000000E+00  0.32520746248E+03  0.55869497008E+03  0.45429084950E+03 0.  0.
      99925    2    3    3    0    0  0.67187518786E+02 -0.73529804918E+02  0.14512484331E+03  0.31786712136E+03  0.26468375810E+03 0.  0.
         25    1    4    4    0    0  0.15834825694E+02 -0.66111990984E+01  0.97919040768E+02  0.15978140162E+03  0.12509000000E+03 0.  0.
         25    1    4    4    0    0  0.51352693092E+02 -0.66918605820E+02  0.47205802547E+02  0.15808571974E+03  0.12509000000E+03 0.  0.
         25    1    3    3    0    0 -0.67187518786E+02  0.73529804918E+02  0.18008261916E+03  0.24082784872E+03  0.12509000000E+03 0.  0.
<mgrwt>
<rscale>  2 0.45429085E+03</rscale>
<asrwt>0</asrwt>
<pdfrwt beam="1">  1       21 0.64992826E-01 0.45429085E+03</pdfrwt>
<pdfrwt beam="2">  1       21 0.17168199E-01 0.45429085E+03</pdfrwt>
<totfact> 0.61640617E+04</totfact>
</mgrwt>
</event>
<event>
 7    0  0.4750554E-002  0.4549966E+03  0.7546771E-02  0.1026242E+00
         21   -1    0    0  502  501  0.00000000000E+00  0.00000000000E+00  0.24710057663E+03  0.24710057663E+03  0.00000000000E+00 0.  1.
         21   -1    0    0  501  502 -0.00000000000E+00 -0.00000000000E+00 -0.20945106859E+03  0.20945106859E+03  0.00000000000E+00 0.  1.
      99926    2    1    2    0    0  0.00000000000E+00  0.00000000000E+00  0.37649508042E+02  0.45655164522E+03  0.45499661460E+03 0.  0.
      99925    2    3    3    0    0 -0.83670530187E+02 -0.61529489374E+02 -0.20749075645E+02  0.28379592647E+03  0.26329255222E+03 0.  0.
         25    1    3    3    0    0  0.83670530187E+02  0.61529489374E+02  0.58398583687E+02  0.17275571875E+03  0.12509000000E+03 0.  0.
         25    1    4    4    0    0 -0.25955789515E+02  0.93450920809E+01 -0.10880464341E+02  0.12855709377E+03  0.12509000000E+03 0.  0.
         25    1    4    4    0    0 -0.57714740672E+02 -0.70874581455E+02 -0.98686113045E+01  0.15523883269E+03  0.12509000000E+03 0.  0.
<mgrwt>
<rscale>  2 0.45499661E+03</rscale>
<asrwt>0</asrwt>
<pdfrwt beam="1">  1       21 0.36338320E-01 0.45499661E+03</pdfrwt>
<pdfrwt beam="2">  1       21 0.30801628E-01 0.45499661E+03</pdfrwt>
<totfact> 0.68434147E+04</totfact>
</mgrwt>
</event>
<event>
 7    0  0.4750554E-002  0.4151591E+03  0.7546771E-02  0.1038653E+00
         21   -1    0    0  502  501  0.00000000000E+00  0.00000000000E+00  0.17993576055E+03  0.17993576055E+03  0.00000000000E+00 0.  1.
         21   -1    0    0  501  502 -0.00000000000E+00 -0.00000000000E+00 -0.23947028424E+03  0.23947028424E+03  0.00000000000E+00 0.  1.
      99926    2    1    2    0    0 -0.71054273576E-14 -0.14210854715E-13 -0.59534523685E+02  0.41940604479E+03  0.41515909106E+03 0.  0.
      99925    2    3    3    0    0  0.40552864447E+02  0.56477493765E+02 -0.40093787708E+02  0.27497719576E+03  0.26300324001E+03 0.  0.
         25    1    3    3    0    0 -0.40552864447E+02 -0.56477493765E+02 -0.19440735977E+02  0.14442884903E+03  0.12509000000E+03 0.  0.
         25    1    4    4    0    0  0.51299096700E+02  0.56310059231E+02 -0.19561666413E+02  0.14775854285E+03  0.12509000000E+03 0.  0.
         25    1    4    4    0    0 -0.10746232253E+02  0.16743453373E+00 -0.20532121296E+02  0.12721865290E+03  0.12509000000E+03 0.  0.
<mgrwt>
<rscale>  2 0.41515909E+03</rscale>
<asrwt>0</asrwt>
<pdfrwt beam="1">  1       21 0.26461142E-01 0.41515909E+03</pdfrwt>
<pdfrwt beam="2">  1       21 0.35216218E-01 0.41515909E+03</pdfrwt>
<totfact> 0.99212121E+04</totfact>
</mgrwt>
</event>
<event>
 7    0  0.4750554E-002  0.4542664E+03  0.7546771E-02  0.1026457E+00
         21   -1    0    0  502  501  0.00000000000E+00  0.00000000000E+00  0.22383937161E+03  0.22383937161E+03  0.00000000000E+00 0. -1.
         21   -1    0    0  501  502 -0.00000000000E+00 -0.00000000000E+00 -0.23047547017E+03  0.23047547017E+03  0.00000000000E+00 0. -1.
      99926    2    1    2    0    0  0.00000000000E+00  0.35527136788E-14 -0.66360985637E+01  0.45431484178E+03  0.45426637302E+03 0.  0.
      99925    2    3    3    0    0  0.10860282148E+03 -0.27518286455E+02 -0.15029710464E+02  0.28617861801E+03  0.26290774101E+03 0.  0.
         25    1    3    3    0    0 -0.10860282148E+03  0.27518286455E+02  0.83936119006E+01  0.16813622377E+03  0.12509000000E+03 0.  0.
         25    1    4    4    0    0  0.32752227271E+02  0.10104104472E+02  0.19696087539E+02  0.13118782445E+03  0.12509000000E+03 0.  0.
         25    1    4    4    0    0  0.75850594212E+02 -0.37622390927E+02 -0.34725798003E+02  0.15499079356E+03  0.12509000000E+03 0.  0.
<mgrwt>
<rscale>  2 0.45426637E+03</rscale>
<asrwt>0</asrwt>
<pdfrwt beam="1">  1       21 0.32917555E-01 0.45426637E+03</pdfrwt>
<pdfrwt beam="2">  1       21 0.33893451E-01 0.45426637E+03</pdfrwt>
<totfact> 0.68999023E+04</totfact>
</mgrwt>
</event>
<event>
 7    0  0.4750554E-002  0.4315951E+03  0.7546771E-02  0.1033357E+00
         21   -1    0    0  502  501  0.00000000000E+00  0.00000000000E+00  0.78257926692E+03  0.78257926692E+03  0.00000000000E+00 0.  1.
         21   -1    0    0  501  502 -0.00000000000E+00 -0.00000000000E+00 -0.59506530367E+02  0.59506530367E+02  0.00000000000E+00 0.  1.
      99926    2    1    2    0    0  0.00000000000E+00  0.00000000000E+00  0.72307273655E+03  0.84208579729E+03  0.43159507370E+03 0.  0.
      99925    2    3    3    0    0  0.80176846275E+02  0.24345727634E+02  0.40363635229E+03  0.48894538212E+03  0.26291489245E+03 0.  0.
         25    1    3    3    0    0 -0.80176846275E+02 -0.24345727634E+02  0.31943638426E+03  0.35314041516E+03  0.12509000000E+03 0.  0.
         25    1    4    4    0    0  0.49468866863E+02 -0.24868323257E+02  0.17766484759E+03  0.22422735885E+03  0.12509000000E+03 0.  0.
         25    1    4    4    0    0  0.30707979412E+02  0.49214050890E+02  0.22597150471E+03  0.26471802327E+03  0.12509000000E+03 0.  0.
<mgrwt>
<rscale>  2 0.43159507E+03</rscale>
<asrwt>0</asrwt>
<pdfrwt beam="1">  1       21 0.11508518E+00 0.43159507E+03</pdfrwt>
<pdfrwt beam="2">  1       21 0.87509608E-02 0.43159507E+03</pdfrwt>
<totfact> 0.55264212E+04</totfact>
</mgrwt>
</event>
<event>
 7    0  0.4750554E-002  0.4575161E+03  0.7546771E-02  0.1025504E+00
         21   -1    0    0  502  501  0.00000000000E+00  0.00000000000E+00  0.33117051537E+02  0.33117051537E+02  0.00000000000E+00 0.  1.
         21   -1    0    0  501  502 -0.00000000000E+00 -0.00000000000E+00 -0.15801603067E+04  0.15801603067E+04  0.00000000000E+00 0.  1.
      99926    2    1    2    0    0 -0.35527136788E-14 -0.14210854715E-13 -0.15470432552E+04  0.16132773583E+04  0.45751612131E+03 0.  0.
      99925    2    3    3    0    0 -0.24841283528E+02 -0.87830214813E+02 -0.72151533993E+03  0.77335171693E+03  0.26297767266E+03 0.  0.
         25    1    4    4    0    0 -0.17288932495E+02 -0.16756241648E+01 -0.32844750590E+03  0.35189058972E+03  0.12509000000E+03 0.  0.
         25    1    4    4    0    0 -0.75523510333E+01 -0.86154590648E+02 -0.39306783403E+03  0.42146112721E+03  0.12509000000E+03 0.  0.
         25    1    3    3    0    0  0.24841283528E+02  0.87830214813E+02 -0.82552791528E+03  0.83992564136E+03  0.12509000000E+03 0.  0.
<mgrwt>
<rscale>  2 0.45751612E+03</rscale>
<asrwt>0</asrwt>
<pdfrwt beam="1">  1       21 0.48701544E-02 0.45751612E+03</pdfrwt>
<pdfrwt beam="2">  1       21 0.23237653E+00 0.45751612E+03</pdfrwt>
<totfact> 0.20723562E+04</totfact>
</mgrwt>
</event>
<event>
 7    0  0.4750554E-002  0.4559994E+03  0.7546771E-02  0.1025948E+00
         21   -1    0    0  502  501  0.00000000000E+00  0.00000000000E+00  0.10065969601E+04  0.10065969601E+04  0.00000000000E+00 0. -1.
         21   -1    0    0  501  502 -0.00000000000E+00 -0.00000000000E+00 -0.51643181461E+02  0.51643181461E+02  0.00000000000E+00 0. -1.
      99926    2    1    2    0    0  0.00000000000E+00  0.71054273576E-14  0.95495377861E+03  0.10582401415E+04  0.45599942748E+03 0.  0.
      99925    2    3    3    0    0 -0.10056583591E+03  0.27708978060E+02  0.49267399730E+03  0.56810609953E+03  0.26293649023E+03 0.  0.
         25    1    3    3    0    0  0.10056583591E+03 -0.27708978060E+02  0.46227978130E+03  0.49013404199E+03  0.12509000000E+03 0.  0.
         25    1    4    4    0    0 -0.14671695067E+02  0.39013435686E+01  0.17974485242E+03  0.21951355126E+03  0.12509000000E+03 0.  0.
         25    1    4    4    0    0 -0.85894140845E+02  0.23807634492E+02  0.31292914489E+03  0.34859254827E+03  0.12509000000E+03 0.  0.
<mgrwt>
<rscale>  2 0.45599943E+03</rscale>
<asrwt>0</asrwt>
<pdfrwt beam="1">  1       21 0.14802895E+00 0.45599943E+03</pdfrwt>
<pdfrwt beam="2">  1       21 0.75945861E-02 0.45599943E+03</pdfrwt>
<totfact> 0.36689462E+04</totfact>
</mgrwt>
</event>
<event>
 7    0  0.4750554E-002  0.4558909E+03  0.7546771E-02  0.1025980E+00
         21   -1    0    0  502  501  0.00000000000E+00  0.00000000000E+00  0.40137622156E+03  0.40137622156E+03  0.00000000000E+00 0.  1.
         21   -1    0    0  501  502 -0.00000000000E+00 -0.00000000000E+00 -0.12945241403E+03  0.12945241403E+03  0.00000000000E+00 0.  1.
      99926    2    1    2    0    0  0.00000000000E+00  0.00000000000E+00  0.27192380753E+03  0.53082863558E+03  0.45589086770E+03 0.  0.
      99925    2    3    3    0    0 -0.60434346782E+02  0.78807232683E+02  0.10583336829E+03  0.30040200453E+03  0.26301667682E+03 0.  0.
         25    1    4    4    0    0  0.29092100392E+01  0.23102049043E+02  0.70426898544E+02  0.14542910407E+03  0.12509000000E+03 0.  0.
         25    1    3    3    0    0  0.60434346782E+02 -0.78807232683E+02  0.16609043924E+03  0.23042663106E+03  0.12509000000E+03 0.  0.
         25    1    4    4    0    0 -0.63343556821E+02  0.55705183640E+02  0.35406469749E+02  0.15497290045E+03  0.12509000000E+03 0.  0.
<mgrwt>
<rscale>  2 0.45589087E+03</rscale>
<asrwt>0</asrwt>
<pdfrwt beam="1">  1       21 0.59025915E-01 0.45589087E+03</pdfrwt>
<pdfrwt beam="2">  1       21 0.19037120E-01 0.45589087E+03</pdfrwt>
<totfact> 0.62706529E+04</totfact>
</mgrwt>
</event>
<event>
 7    0  0.4750554E-002  0.4574023E+03  0.7546771E-02  0.1025537E+00
         21   -1    0    0  502  501  0.00000000000E+00  0.00000000000E+00  0.21984354954E+03  0.21984354954E+03  0.00000000000E+00 0. -1.
         21   -1    0    0  501  502 -0.00000000000E+00 -0.00000000000E+00 -0.23791562622E+03  0.23791562622E+03  0.00000000000E+00 0. -1.
      99926    2    1    2    0    0 -0.17763568394E-14  0.00000000000E+00 -0.18072076684E+02  0.45775917576E+03  0.45740229890E+03 0.  0.
      99925    2    3    3    0    0  0.93515421302E+01 -0.88676331694E+02 -0.84670120374E+02  0.29032635142E+03  0.26300079449E+03 0.  0.
         25    1    3    3    0    0 -0.93515421302E+01  0.88676331694E+02  0.66598043690E+02  0.16743282434E+03  0.12509000000E+03 0.  0.
         25    1    4    4    0    0 -0.30950764833E+02 -0.63427638804E+02 -0.37628867250E+02  0.14847375175E+03  0.12509000000E+03 0.  0.
         25    1    4    4    0    0  0.40302306963E+02 -0.25248692890E+02 -0.47041253124E+02  0.14185259968E+03  0.12509000000E+03 0.  0.
<mgrwt>
<rscale>  2 0.45740230E+03</rscale>
<asrwt>0</asrwt>
<pdfrwt beam="1">  1       21 0.32329934E-01 0.45740230E+03</pdfrwt>
<pdfrwt beam="2">  1       21 0.34987592E-01 0.45740230E+03</pdfrwt>
<totfact> 0.67049713E+04</totfact>
</mgrwt>
</event>
<event>
 7    0  0.4750554E-002  0.4550392E+03  0.7546771E-02  0.1026230E+00
         21   -1    0    0  502  501  0.00000000000E+00  0.00000000000E+00  0.20790868895E+03  0.20790868895E+03  0.00000000000E+00 0.  1.
         21   -1    0    0  501  502 -0.00000000000E+00 -0.00000000000E+00 -0.24898033175E+03  0.24898033175E+03  0.00000000000E+00 0.  1.
      99926    2    1    2    0    0  0.00000000000E+00 -0.71054273576E-14 -0.41071642802E+02  0.45688902070E+03  0.45503922621E+03 0.  0.
      99925    2    3    3    0    0  0.52418834378E+02 -0.59410109218E+02  0.55376326982E+02  0.28017735088E+03  0.26297436202E+03 0.  0.
         25    1    4    4    0    0  0.27003172541E+02 -0.18264706545E+02 -0.12489886736E+02  0.12987022832E+03  0.12509000000E+03 0.  0.
         25    1    4    4    0    0  0.25415661837E+02 -0.41145402673E+02  0.67866213718E+02  0.15030712256E+03  0.12509000000E+03 0.  0.
         25    1    3    3    0    0 -0.52418834378E+02  0.59410109218E+02 -0.96447969783E+02  0.17671166982E+03  0.12509000000E+03 0.  0.
<mgrwt>
<rscale>  2 0.45503923E+03</rscale>
<asrwt>0</asrwt>
<pdfrwt beam="1">  1       21 0.30574807E-01 0.45503923E+03</pdfrwt>
<pdfrwt beam="2">  1       21 0.36614754E-01 0.45503923E+03</pdfrwt>
<totfact> 0.68386238E+04</totfact>
</mgrwt>
</event>
<event>
 7    0  0.4750554E-002  0.4490411E+03  0.7546771E-02  0.1028008E+00
         21   -1    0    0  502  501  0.00000000000E+00  0.00000000000E+00  0.94359305343E+02  0.94359305343E+02  0.00000000000E+00 0. -1.
         21   -1    0    0  501  502 -0.00000000000E+00 -0.00000000000E+00 -0.53422904632E+03  0.53422904632E+03  0.00000000000E+00 0. -1.
      99926    2    1    2    0    0  0.17763568394E-14  0.00000000000E+00 -0.43986974098E+03  0.62858835167E+03  0.44904111930E+03 0.  0.
      99925    2    3    3    0    0  0.11325560480E+02 -0.10685500691E+03 -0.27183454557E+03  0.39315344385E+03  0.26292460787E+03 0.  0.
         25    1    4    4    0    0 -0.12437231679E+02 -0.79828890678E+02 -0.10824091187E+03  0.18409492014E+03  0.12509000000E+03 0.  0.
         25    1    4    4    0    0  0.23762792159E+02 -0.27026116229E+02 -0.16359363370E+03  0.20905852371E+03  0.12509000000E+03 0.  0.
         25    1    3    3    0    0 -0.11325560480E+02  0.10685500691E+03 -0.16803519541E+03  0.23543490781E+03  0.12509000000E+03 0.  0.
<mgrwt>
<rscale>  2 0.44904112E+03</rscale>
<asrwt>0</asrwt>
<pdfrwt beam="1">  1       21 0.13876369E-01 0.44904112E+03</pdfrwt>
<pdfrwt beam="2">  1       21 0.78563093E-01 0.44904112E+03</pdfrwt>
<totfact> 0.59711855E+04</totfact>
</mgrwt>
</event>
<event>
 7    0  0.4750554E-002  0.4516436E+03  0.7546771E-02  0.1027233E+00
         21   -1    0    0  502  501  0.00000000000E+00  0.00000000000E+00  0.10503694814E+04  0.10503694814E+04  0.00000000000E+00 0.  1.
         21   -1    0    0  501  502 -0.00000000000E+00 -0.00000000000E+00 -0.48550041901E+02  0.48550041901E+02  0.00000000000E+00 0.  1.
      99926    2    1    2    0    0  0.00000000000E+00  0.71054273576E-14  0.10018194394E+04  0.10989195233E+04  0.45164358661E+03 0.  0.
      99925    2    3    3    0    0  0.93293110408E+02 -0.52786677583E+02  0.57260454472E+03  0.63917723486E+03  0.26302383000E+03 0.  0.
         25    1    4    4    0    0  0.61929439042E+02  0.44771500285E+01  0.23649385612E+03  0.27464914413E+03  0.12509000000E+03 0.  0.
         25    1    4    4    0    0  0.31363671365E+02 -0.57263827612E+02  0.33611068861E+03  0.36452809073E+03  0.12509000000E+03 0.  0.
         25    1    3    3    0    0 -0.93293110408E+02  0.52786677583E+02  0.42921489473E+03  0.45974228839E+03  0.12509000000E+03 0.  0.
<mgrwt>
<rscale>  2 0.45164359E+03</rscale>
<asrwt>0</asrwt>
<pdfrwt beam="1">  1       21 0.15446609E+00 0.45164359E+03</pdfrwt>
<pdfrwt beam="2">  1       21 0.71397127E-02 0.45164359E+03</pdfrwt>
<totfact> 0.36477526E+04</totfact>
</mgrwt>
</event>
<event>
 7    0  0.4750554E-002  0.4583993E+03  0.7546771E-02  0.1025246E+00
         21   -1    0    0  502  501  0.00000000000E+00  0.00000000000E+00  0.64285189637E+03  0.64285189637E+03  0.00000000000E+00 0. -1.
         21   -1    0    0  501  502 -0.00000000000E+00 -0.00000000000E+00 -0.81717850532E+02  0.81717850532E+02  0.00000000000E+00 0. -1.
      99926    2    1    2    0    0  0.71054273576E-14 -0.71054273576E-14  0.56113404584E+03  0.72456974691E+03  0.45839928090E+03 0.  0.
      99925    2    3    3    0    0 -0.47021143210E+02  0.57159794793E+02  0.49369862267E+03  0.56434092788E+03  0.26318077969E+03 0.  0.
         25    1    3    3    0    0  0.47021143210E+02 -0.57159794793E+02  0.67435423168E+02  0.16022881903E+03  0.12509000000E+03 0.  0.
         25    1    4    4    0    0 -0.48286365694E+02  0.17351996410E+02  0.18727757504E+03  0.23098281994E+03  0.12509000000E+03 0.  0.
         25    1    4    4    0    0  0.12652224839E+01  0.39807798383E+02  0.30642104763E+03  0.33335810794E+03  0.12509000000E+03 0.  0.
<mgrwt>
<rscale>  2 0.45839928E+03</rscale>
<asrwt>0</asrwt>
<pdfrwt beam="1">  1       21 0.94537041E-01 0.45839928E+03</pdfrwt>
<pdfrwt beam="2">  1       21 0.12017331E-01 0.45839928E+03</pdfrwt>
<totfact> 0.50232774E+04</totfact>
</mgrwt>
</event>
<event>
 7    0  0.4750554E-002  0.4528142E+03  0.7546771E-02  0.1026886E+00
         21   -1    0    0  502  501  0.00000000000E+00  0.00000000000E+00  0.62060228055E+02  0.62060228055E+02  0.00000000000E+00 0. -1.
         21   -1    0    0  501  502 -0.00000000000E+00 -0.00000000000E+00 -0.82597453826E+03  0.82597453826E+03  0.00000000000E+00 0. -1.
      99926    2    1    2    0    0 -0.14210854715E-13  0.00000000000E+00 -0.76391431020E+03  0.88803476631E+03  0.45281417033E+03 0.  0.
      99925    2    3    3    0    0 -0.88972613169E+02 -0.50280134478E+02 -0.56695302150E+03  0.63330849134E+03  0.26305835624E+03 0.  0.
         25    1    4    4    0    0 -0.75021320036E+02 -0.67190270949E+01 -0.34226488645E+03  0.37211033899E+03  0.12509000000E+03 0.  0.
         25    1    3    3    0    0  0.88972613169E+02  0.50280134478E+02 -0.19696128870E+03  0.25472627498E+03  0.12509000000E+03 0.  0.
         25    1    4    4    0    0 -0.13951293133E+02 -0.43561107383E+02 -0.22468813505E+03  0.26119815235E+03  0.12509000000E+03 0.  0.
<mgrwt>
<rscale>  2 0.45281417E+03</rscale>
<asrwt>0</asrwt>
<pdfrwt beam="1">  1       21 0.91265036E-02 0.45281417E+03</pdfrwt>
<pdfrwt beam="2">  1       21 0.12146685E+00 0.45281417E+03</pdfrwt>
<totfact> 0.44512105E+04</totfact>
</mgrwt>
</event>
<event>
 7    0  0.4750554E-002  0.4519110E+03  0.7546771E-02  0.1027154E+00
         21   -1    0    0  502  501  0.00000000000E+00  0.00000000000E+00  0.19294533684E+03  0.19294533684E+03  0.00000000000E+00 0. -1.
         21   -1    0    0  501  502 -0.00000000000E+00 -0.00000000000E+00 -0.26461322377E+03  0.26461322377E+03  0.00000000000E+00 0. -1.
      99926    2    1    2    0    0  0.00000000000E+00  0.00000000000E+00 -0.71667886938E+02  0.45755856061E+03  0.45191099829E+03 0.  0.
      99925    2    3    3    0    0 -0.34035428107E+02  0.38379087084E+02  0.53993281965E+02  0.27297903260E+03  0.26262313883E+03 0.  0.
         25    1    3    3    0    0  0.34035428107E+02 -0.38379087084E+02 -0.12566116890E+03  0.18457952801E+03  0.12509000000E+03 0.  0.
         25    1    4    4    0    0 -0.40137992837E+02  0.32823947795E+02  0.58567979471E+02  0.14753367865E+03  0.12509000000E+03 0.  0.
         25    1    4    4    0    0  0.61025647297E+01  0.55551392891E+01 -0.45746975060E+01  0.12544535394E+03  0.12509000000E+03 0.  0.
<mgrwt>
<rscale>  2 0.45191100E+03</rscale>
<asrwt>0</asrwt>
<pdfrwt beam="1">  1       21 0.28374314E-01 0.45191100E+03</pdfrwt>
<pdfrwt beam="2">  1       21 0.38913709E-01 0.45191100E+03</pdfrwt>
<totfact> 0.70069027E+04</totfact>
</mgrwt>
</event>
<event>
 7    0  0.4750554E-002  0.4530251E+03  0.7546771E-02  0.1026824E+00
         21   -1    0    0  502  501  0.00000000000E+00  0.00000000000E+00  0.12561339810E+04  0.12561339810E+04  0.00000000000E+00 0.  1.
         21   -1    0    0  501  502 -0.00000000000E+00 -0.00000000000E+00 -0.40845905012E+02  0.40845905012E+02  0.00000000000E+00 0.  1.
      99926    2    1    2    0    0 -0.71054273576E-14  0.00000000000E+00  0.12152880760E+04  0.12969798860E+04  0.45302507335E+03 0.  0.
      99925    2    3    3    0    0  0.16410295774E+02  0.44194535853E+02  0.47741048034E+03  0.54709102153E+03  0.26299308793E+03 0.  0.
         25    1    4    4    0    0 -0.32224116140E+02  0.17815379493E+02  0.23520625505E+03  0.26893358273E+03  0.12509000000E+03 0.  0.
         25    1    4    4    0    0  0.48634411915E+02  0.26379156360E+02  0.24220422529E+03  0.27815743880E+03  0.12509000000E+03 0.  0.
         25    1    3    3    0    0 -0.16410295774E+02 -0.44194535853E+02  0.73787759568E+03  0.74988886451E+03  0.12509000000E+03 0.  0.
<mgrwt>
<rscale>  2 0.45302507E+03</rscale>
<asrwt>0</asrwt>
<pdfrwt beam="1">  1       21 0.18472556E+00 0.45302507E+03</pdfrwt>
<pdfrwt beam="2">  1       21 0.60067516E-02 0.45302507E+03</pdfrwt>
<totfact> 0.29655419E+04</totfact>
</mgrwt>
</event>
<event>
 7    0  0.4750554E-002  0.4531177E+03  0.7546771E-02  0.1026796E+00
         21   -1    0    0  502  501  0.00000000000E+00  0.00000000000E+00  0.51576611903E+02  0.51576611903E+02  0.00000000000E+00 0.  1.
         21   -1    0    0  501  502 -0.00000000000E+00 -0.00000000000E+00 -0.99519731574E+03  0.99519731574E+03  0.00000000000E+00 0.  1.
      99926    2    1    2    0    0  0.00000000000E+00  0.00000000000E+00 -0.94362070383E+03  0.10467739276E+04  0.45311767002E+03 0.  0.
      99925    2    3    3    0    0  0.52422679930E+02  0.48911767915E+02 -0.39865392531E+03  0.48305698076E+03  0.26320827510E+03 0.  0.
         25    1    3    3    0    0 -0.52422679930E+02 -0.48911767915E+02 -0.54496677852E+03  0.56371694688E+03  0.12509000000E+03 0.  0.
         25    1    4    4    0    0  0.59385067344E+02  0.50796950762E+02 -0.21727269516E+03  0.26260588072E+03  0.12509000000E+03 0.  0.
         25    1    4    4    0    0 -0.69623874135E+01 -0.18851828471E+01 -0.18138123015E+03  0.22045110003E+03  0.12509000000E+03 0.  0.
<mgrwt>
<rscale>  2 0.45311767E+03</rscale>
<asrwt>0</asrwt>
<pdfrwt beam="1">  1       21 0.75847961E-02 0.45311767E+03</pdfrwt>
<pdfrwt beam="2">  1       21 0.14635254E+00 0.45311767E+03</pdfrwt>
<totfact> 0.37950514E+04</totfact>
</mgrwt>
</event>
<event>
 7    0  0.4750554E-002  0.4539955E+03  0.7546771E-02  0.1026537E+00
         21   -1    0    0  502  501  0.00000000000E+00  0.00000000000E+00  0.15819643308E+03  0.15819643308E+03  0.00000000000E+00 0.  1.
         21   -1    0    0  501  502 -0.00000000000E+00 -0.00000000000E+00 -0.32572150259E+03  0.32572150259E+03  0.00000000000E+00 0.  1.
      99926    2    1    2    0    0  0.00000000000E+00  0.00000000000E+00 -0.16752506951E+03  0.48391793567E+03  0.45399550609E+03 0.  0.
      99925    2    3    3    0    0  0.47413428099E+02  0.91257193025E+02 -0.57617339088E+02  0.28820609201E+03  0.26299635979E+03 0.  0.
         25    1    3    3    0    0 -0.47413428099E+02 -0.91257193025E+02 -0.10990773042E+03  0.19571184366E+03  0.12509000000E+03 0.  0.
         25    1    4    4    0    0  0.54680741583E+02  0.20093222534E+02 -0.21561639652E+02  0.13966436015E+03  0.12509000000E+03 0.  0.
         25    1    4    4    0    0 -0.72673134832E+01  0.71163970491E+02 -0.36055699436E+02  0.14854173186E+03  0.12509000000E+03 0.  0.
<mgrwt>
<rscale>  2 0.45399551E+03</rscale>
<asrwt>0</asrwt>
<pdfrwt beam="1">  1       21 0.23264181E-01 0.45399551E+03</pdfrwt>
<pdfrwt beam="2">  1       21 0.47900221E-01 0.45399551E+03</pdfrwt>
<totfact> 0.66948247E+04</totfact>
</mgrwt>
</event>
<event>
 7    0  0.4750554E-002  0.4517501E+03  0.7546771E-02  0.1027201E+00
         21   -1    0    0  502  501  0.00000000000E+00  0.00000000000E+00  0.10968565450E+03  0.10968565450E+03  0.00000000000E+00 0.  1.
         21   -1    0    0  501  502 -0.00000000000E+00 -0.00000000000E+00 -0.46514321374E+03  0.46514321374E+03  0.00000000000E+00 0.  1.
      99926    2    1    2    0    0  0.11102230246E-14 -0.17763568394E-14 -0.35545755923E+03  0.57482886824E+03  0.45175009833E+03 0.  0.
      99925    2    3    3    0    0  0.13369407716E+01  0.12355177275E+02 -0.36346348016E+03  0.44886839552E+03  0.26310206627E+03 0.  0.
         25    1    4    4    0    0 -0.34043484935E+02  0.13164653418E+02 -0.21621318445E+03  0.25244388722E+03  0.12509000000E+03 0.  0.
         25    1    3    3    0    0 -0.13369407716E+01 -0.12355177275E+02  0.80059209249E+01  0.12596047271E+03  0.12509000000E+03 0.  0.
         25    1    4    4    0    0  0.35380425707E+02 -0.80947614285E+00 -0.14725029571E+03  0.19642450830E+03  0.12509000000E+03 0.  0.
<mgrwt>
<rscale>  2 0.45175010E+03</rscale>
<asrwt>0</asrwt>
<pdfrwt beam="1">  1       21 0.16130243E-01 0.45175010E+03</pdfrwt>
<pdfrwt beam="2">  1       21 0.68403413E-01 0.45175010E+03</pdfrwt>
<totfact> 0.61828500E+04</totfact>
</mgrwt>
</event>
<event>
 7    0  0.4750554E-002  0.4569718E+03  0.7546771E-02  0.1025663E+00
         21   -1    0    0  502  501  0.00000000000E+00  0.00000000000E+00  0.29400827891E+03  0.29400827891E+03  0.00000000000E+00 0. -1.
         21   -1    0    0  501  502 -0.00000000000E+00 -0.00000000000E+00 -0.17756577525E+03  0.17756577525E+03  0.00000000000E+00 0. -1.
      99926    2    1    2    0    0  0.14210854715E-13 -0.71054273576E-14  0.11644250366E+03  0.47157405416E+03  0.45697180646E+03 0.  0.
      99925    2    3    3    0    0  0.75744326587E+02 -0.21160739342E+02  0.15972922419E+03  0.31760578414E+03  0.26301146203E+03 0.  0.
         25    1    3    3    0    0 -0.75744326587E+02  0.21160739342E+02 -0.43286720524E+02  0.15396827002E+03  0.12509000000E+03 0.  0.
         25    1    4    4    0    0  0.21755032999E+02  0.27376779426E+02  0.75206499549E+02  0.15008762503E+03  0.12509000000E+03 0.  0.
         25    1    4    4    0    0  0.53989293589E+02 -0.48537518767E+02  0.84522724638E+02  0.16751815911E+03  0.12509000000E+03 0.  0.
<mgrwt>
<rscale>  2 0.45697181E+03</rscale>
<asrwt>0</asrwt>
<pdfrwt beam="1">  1       21 0.43236511E-01 0.45697181E+03</pdfrwt>
<pdfrwt beam="2">  1       21 0.26112614E-01 0.45697181E+03</pdfrwt>
<totfact> 0.66276023E+04</totfact>
</mgrwt>
</event>
<event>
 7    0  0.4750554E-002  0.4547950E+03  0.7546771E-02  0.1026302E+00
         21   -1    0    0  502  501  0.00000000000E+00  0.00000000000E+00  0.23339213280E+03  0.23339213280E+03  0.00000000000E+00 0. -1.
         21   -1    0    0  501  502 -0.00000000000E+00 -0.00000000000E+00 -0.22155682318E+03  0.22155682318E+03  0.00000000000E+00 0. -1.
      99926    2    1    2    0    0  0.00000000000E+00 -0.14210854715E-13  0.11835309620E+02  0.45494895597E+03  0.45479498456E+03 0.  0.
      99925    2    3    3    0    0  0.73648396735E+02  0.85530856104E+02  0.71008380336E+00  0.28609726828E+03  0.26289071686E+03 0.  0.
         25    1    4    4    0    0  0.52520795935E+02  0.13570740880E+02  0.23872864936E+02  0.13841972690E+03  0.12509000000E+03 0.  0.
         25    1    3    3    0    0 -0.73648396735E+02 -0.85530856104E+02  0.11125225817E+02  0.16885168769E+03  0.12509000000E+03 0.  0.
         25    1    4    4    0    0  0.21127600800E+02  0.71960115224E+02 -0.23162781133E+02  0.14767754138E+03  0.12509000000E+03 0.  0.
<mgrwt>
<rscale>  2 0.45479498E+03</rscale>
<asrwt>0</asrwt>
<pdfrwt beam="1">  1       21 0.34322372E-01 0.45479498E+03</pdfrwt>
<pdfrwt beam="2">  1       21 0.32581886E-01 0.45479498E+03</pdfrwt>
<totfact> 0.68661788E+04</totfact>
</mgrwt>
</event>
<event>
 7    0  0.4750554E-002  0.4586153E+03  0.7546771E-02  0.1025184E+00
         21   -1    0    0  502  501  0.00000000000E+00  0.00000000000E+00  0.87974739042E+02  0.87974739042E+02  0.00000000000E+00 0. -1.
         21   -1    0    0  501  502 -0.00000000000E+00 -0.00000000000E+00 -0.59769440396E+03  0.59769440396E+03  0.00000000000E+00 0. -1.
      99926    2    1    2    0    0  0.00000000000E+00  0.00000000000E+00 -0.50971966492E+03  0.68566914300E+03  0.45861534739E+03 0.  0.
      99925    2    3    3    0    0  0.98553292312E+02 -0.36500181324E+01 -0.22593754342E+03  0.36023731505E+03  0.26267294412E+03 0.  0.
         25    1    4    4    0    0  0.27756701190E+02  0.14990019466E+02 -0.14557260433E+03  0.19450970767E+03  0.12509000000E+03 0.  0.
         25    1    3    3    0    0 -0.98553292312E+02  0.36500181324E+01 -0.28378212150E+03  0.32543182795E+03  0.12509000000E+03 0.  0.
         25    1    4    4    0    0  0.70796591122E+02 -0.18640037599E+02 -0.80364939084E+02  0.16572760739E+03  0.12509000000E+03 0.  0.
<mgrwt>
<rscale>  2 0.45861535E+03</rscale>
<asrwt>0</asrwt>
<pdfrwt beam="1">  1       21 0.12937461E-01 0.45861535E+03</pdfrwt>
<pdfrwt beam="2">  1       21 0.87896238E-01 0.45861535E+03</pdfrwt>
<totfact> 0.52186685E+04</totfact>
</mgrwt>
</event>
<event>
 7    0  0.4750554E-002  0.4520489E+03  0.7546771E-02  0.1027113E+00
         21   -1    0    0  502  501  0.00000000000E+00  0.00000000000E+00  0.59272499642E+03  0.59272499642E+03  0.00000000000E+00 0. -1.
         21   -1    0    0  501  502 -0.00000000000E+00 -0.00000000000E+00 -0.86190127093E+02  0.86190127093E+02  0.00000000000E+00 0. -1.
      99926    2    1    2    0    0  0.00000000000E+00 -0.14210854715E-13  0.50653486932E+03  0.67891512351E+03  0.45204885918E+03 0.  0.
      99925    2    3    3    0    0  0.45250469795E+02 -0.75673659291E+02  0.41938532879E+03  0.50279965502E+03  0.26296260447E+03 0.  0.
         25    1    3    3    0    0 -0.45250469795E+02  0.75673659291E+02  0.87149540530E+02  0.17611546849E+03  0.12509000000E+03 0.  0.
         25    1    4    4    0    0  0.59818441752E+02 -0.28226344686E+02  0.19085277046E+03  0.23758632242E+03  0.12509000000E+03 0.  0.
         25    1    4    4    0    0 -0.14567971958E+02 -0.47447314605E+02  0.22853255833E+03  0.26521333260E+03  0.12509000000E+03 0.  0.
<mgrwt>
<rscale>  2 0.45204886E+03</rscale>
<asrwt>0</asrwt>
<pdfrwt beam="1">  1       21 0.87165439E-01 0.45204886E+03</pdfrwt>
<pdfrwt beam="2">  1       21 0.12675019E-01 0.45204886E+03</pdfrwt>
<totfact> 0.55338015E+04</totfact>
</mgrwt>
</event>
<event>
 7    0  0.4750554E-002  0.4569686E+03  0.7546771E-02  0.1025664E+00
         21   -1    0    0  502  501  0.00000000000E+00  0.00000000000E+00  0.26634347613E+03  0.26634347613E+03  0.00000000000E+00 0. -1.
         21   -1    0    0  501  502 -0.00000000000E+00 -0.00000000000E+00 -0.19600654669E+03  0.19600654669E+03  0.00000000000E+00 0. -1.
      99926    2    1    2    0    0  0.00000000000E+00  0.00000000000E+00  0.70336929438E+02  0.46235002282E+03  0.45696855467E+03 0.  0.
      99925    2    3    3    0    0  0.72241825415E+02  0.72702762736E+02 -0.89856906449E+01  0.28222740013E+03  0.26280599251E+03 0.  0.
         25    1    3    3    0    0 -0.72241825415E+02 -0.72702762736E+02  0.79322620083E+02  0.18012262269E+03  0.12509000000E+03 0.  0.
         25    1    4    4    0    0  0.62445813716E+02  0.60731118104E+02  0.17498369826E+02  0.15343223065E+03  0.12509000000E+03 0.  0.
         25    1    4    4    0    0  0.97960116994E+01  0.11971644632E+02 -0.26484060471E+02  0.12879516947E+03  0.12509000000E+03 0.  0.
<mgrwt>
<rscale>  2 0.45696855E+03</rscale>
<asrwt>0</asrwt>
<pdfrwt beam="1">  1       21 0.39168158E-01 0.45696855E+03</pdfrwt>
<pdfrwt beam="2">  1       21 0.28824492E-01 0.45696855E+03</pdfrwt>
<totfact> 0.66952393E+04</totfact>
</mgrwt>
</event>
<event>
 7    0  0.4750554E-002  0.4477126E+03  0.7546771E-02  0.1028406E+00
         21   -1    0    0  502  501  0.00000000000E+00  0.00000000000E+00  0.60783029514E+02  0.60783029514E+02  0.00000000000E+00 0. -1.
         21   -1    0    0  501  502 -0.00000000000E+00 -0.00000000000E+00 -0.82443481623E+03  0.82443481623E+03  0.00000000000E+00 0. -1.
      99926    2    1    2    0    0  0.14210854715E-13  0.00000000000E+00 -0.76365178671E+03  0.88521784574E+03  0.44771261214E+03 0.  0.
      99925    2    3    3    0    0  0.10231743917E+03 -0.96820542740E+01 -0.43250234874E+03  0.51661228568E+03  0.26318695166E+03 0.  0.
         25    1    4    4    0    0  0.28610592663E+02  0.15197720752E+02 -0.14977929541E+03  0.19781527282E+03  0.12509000000E+03 0.  0.
         25    1    3    3    0    0 -0.10231743917E+03  0.96820542740E+01 -0.33114943798E+03  0.36860556006E+03  0.12509000000E+03 0.  0.
         25    1    4    4    0    0  0.73706846506E+02 -0.24879775026E+02 -0.28272305333E+03  0.31879701286E+03  0.12509000000E+03 0.  0.
<mgrwt>
<rscale>  2 0.44771261E+03</rscale>
<asrwt>0</asrwt>
<pdfrwt beam="1">  1       21 0.89386816E-02 0.44771261E+03</pdfrwt>
<pdfrwt beam="2">  1       21 0.12124040E+00 0.44771261E+03</pdfrwt>
<totfact> 0.46475057E+04</totfact>
</mgrwt>
</event>
<event>
 7    0  0.4750554E-002  0.4539951E+03  0.7546771E-02  0.1026537E+00
         21   -1    0    0  502  501  0.00000000000E+00  0.00000000000E+00  0.33813865887E+03  0.33813865887E+03  0.00000000000E+00 0.  1.
         21   -1    0    0  501  502 -0.00000000000E+00 -0.00000000000E+00 -0.15238687639E+03  0.15238687639E+03  0.00000000000E+00 0.  1.
      99926    2    1    2    0    0  0.00000000000E+00  0.71054273576E-14  0.18575178248E+03  0.49052553526E+03  0.45399512778E+03 0.  0.
      99925    2    3    3    0    0 -0.59872848273E+02  0.57403477499E+02  0.19866872176E+03  0.33987935174E+03  0.26299961130E+03 0.  0.
         25    1    4    4    0    0  0.60151727612E+01  0.62109595867E+01  0.92194219790E+02  0.15563431686E+03  0.12509000000E+03 0.  0.
         25    1    3    3    0    0  0.59872848273E+02 -0.57403477499E+02 -0.12916939281E+02  0.15064618352E+03  0.12509000000E+03 0.  0.
         25    1    4    4    0    0 -0.65888021035E+02  0.51192517912E+02  0.10647450197E+03  0.18424503488E+03  0.12509000000E+03 0.  0.
<mgrwt>
<rscale>  2 0.45399513E+03</rscale>
<asrwt>0</asrwt>
<pdfrwt beam="1">  1       21 0.49726273E-01 0.45399513E+03</pdfrwt>
<pdfrwt beam="2">  1       21 0.22409835E-01 0.45399513E+03</pdfrwt>
<totfact> 0.66470206E+04</totfact>
</mgrwt>
</event>
<event>
 7    0  0.4750554E-002  0.4474164E+03  0.7546771E-02  0.1028495E+00
         21   -1    0    0  502  501  0.00000000000E+00  0.00000000000E+00  0.41453256092E+03  0.41453256092E+03  0.00000000000E+00 0. -1.
         21   -1    0    0  501  502 -0.00000000000E+00 -0.00000000000E+00 -0.12072721272E+03  0.12072721272E+03  0.00000000000E+00 0. -1.
      99926    2    1    2    0    0  0.00000000000E+00  0.00000000000E+00  0.29380534820E+03  0.53525977363E+03  0.44741640855E+03 0.  0.
      99925    2    3    3    0    0 -0.40356513664E+02  0.92250344203E+02  0.14746187285E+03  0.31799796135E+03  0.26313290421E+03 0.  0.
         25    1    3    3    0    0  0.40356513664E+02 -0.92250344203E+02  0.14634347535E+03  0.21726181228E+03  0.12509000000E+03 0.  0.
         25    1    4    4    0    0 -0.60714413378E+02  0.40319019143E+02  0.74913062275E+02  0.16300717253E+03  0.12509000000E+03 0.  0.
         25    1    4    4    0    0  0.20357899714E+02  0.51931325059E+02  0.72548810575E+02  0.15499078882E+03  0.12509000000E+03 0.  0.
<mgrwt>
<rscale>  2 0.44741641E+03</rscale>
<asrwt>0</asrwt>
<pdfrwt beam="1">  1       21 0.60960670E-01 0.44741641E+03</pdfrwt>
<pdfrwt beam="2">  1       21 0.17754002E-01 0.44741641E+03</pdfrwt>
<totfact> 0.66769516E+04</totfact>
</mgrwt>
</event>
<event>
 7    0  0.4750554E-002  0.4552478E+03  0.7546771E-02  0.1026169E+00
         21   -1    0    0  502  501  0.00000000000E+00  0.00000000000E+00  0.50642211386E+02  0.50642211386E+02  0.00000000000E+00 0. -1.
         21   -1    0    0  501  502 -0.00000000000E+00 -0.00000000000E+00 -0.10231118689E+04  0.10231118689E+04  0.00000000000E+00 0. -1.
      99926    2    1    2    0    0  0.00000000000E+00  0.00000000000E+00 -0.97246965750E+03  0.10737540803E+04  0.45524783376E+03 0.  0.
      99925    2    3    3    0    0 -0.10545918749E+03  0.31409716409E+02 -0.67642211622E+03  0.73404852349E+03  0.26300597905E+03 0.  0.
         25    1    3    3    0    0  0.10545918749E+03 -0.31409716409E+02 -0.29604754128E+03  0.33970555678E+03  0.12509000000E+03 0.  0.
         25    1    4    4    0    0 -0.27627020337E+02  0.29791639838E+02 -0.39610040209E+03  0.41736534438E+03  0.12509000000E+03 0.  0.
         25    1    4    4    0    0 -0.77832167155E+02  0.16180765708E+01 -0.28032171414E+03  0.31668317911E+03  0.12509000000E+03 0.  0.
<mgrwt>
<rscale>  2 0.45524783E+03</rscale>
<asrwt>0</asrwt>
<pdfrwt beam="1">  1       21 0.74473842E-02 0.45524783E+03</pdfrwt>
<pdfrwt beam="2">  1       21 0.15045763E+00 0.45524783E+03</pdfrwt>
<totfact> 0.36347335E+04</totfact>
</mgrwt>
</event>
<event>
 7    0  0.4750554E-002  0.4559751E+03  0.7546771E-02  0.1025955E+00
         21   -1    0    0  502  501  0.00000000000E+00  0.00000000000E+00  0.34891769585E+03  0.34891769585E+03  0.00000000000E+00 0. -1.
         21   -1    0    0  501  502 -0.00000000000E+00 -0.00000000000E+00 -0.14897018408E+03  0.14897018408E+03  0.00000000000E+00 0. -1.
      99926    2    1    2    0    0  0.00000000000E+00  0.00000000000E+00  0.19994751178E+03  0.49788787993E+03  0.45597514572E+03 0.  0.
      99925    2    3    3    0    0 -0.43958583093E+02 -0.95879667318E+02  0.78838347204E+02  0.29431920484E+03  0.26321672005E+03 0.  0.
         25    1    3    3    0    0  0.43958583093E+02  0.95879667318E+02  0.12110916457E+03  0.20356867509E+03  0.12509000000E+03 0.  0.
         25    1    4    4    0    0 -0.32068592910E+02 -0.70823679270E+02  0.76962246938E+02  0.16617786781E+03  0.12509000000E+03 0.  0.
         25    1    4    4    0    0 -0.11889990184E+02 -0.25055988049E+02  0.18761002656E+01  0.12814133703E+03  0.12509000000E+03 0.  0.
<mgrwt>
<rscale>  2 0.45597515E+03</rscale>
<asrwt>0</asrwt>
<pdfrwt beam="1">  1       21 0.51311426E-01 0.45597515E+03</pdfrwt>
<pdfrwt beam="2">  1       21 0.21907380E-01 0.45597515E+03</pdfrwt>
<totfact> 0.64915328E+04</totfact>
</mgrwt>
</event>
<event>
 7    0  0.4750554E-002  0.4693127E+03  0.7546771E-02  0.1022114E+00
         21   -1    0    0  502  501  0.00000000000E+00  0.00000000000E+00  0.37395819237E+02  0.37395819237E+02  0.00000000000E+00 0.  1.
         21   -1    0    0  501  502 -0.00000000000E+00 -0.00000000000E+00 -0.14724531256E+04  0.14724531256E+04  0.00000000000E+00 0.  1.
      99926    2    1    2    0    0  0.00000000000E+00  0.00000000000E+00 -0.14350573064E+04  0.15098489448E+04  0.46931265024E+03 0.  0.
      99925    2    3    3    0    0 -0.10592910268E+03 -0.44579781612E+02 -0.10584202427E+04  0.10966766835E+04  0.26313115784E+03 0.  0.
         25    1    4    4    0    0 -0.72418557764E+02 -0.55973666707E+02 -0.64141096957E+03  0.65987350216E+03  0.12509000000E+03 0.  0.
         25    1    3    3    0    0  0.10592910268E+03  0.44579781612E+02 -0.37663706366E+03  0.41317226135E+03  0.12509000000E+03 0.  0.
         25    1    4    4    0    0 -0.33510544918E+02  0.11393885095E+02 -0.41700927314E+03  0.43680318134E+03  0.12509000000E+03 0.  0.
<mgrwt>
<rscale>  2 0.46931265E+03</rscale>
<asrwt>0</asrwt>
<pdfrwt beam="1">  1       21 0.54993855E-02 0.46931265E+03</pdfrwt>
<pdfrwt beam="2">  1       21 0.21653721E+00 0.46931265E+03</pdfrwt>
<totfact> 0.21094525E+04</totfact>
</mgrwt>
</event>
<event>
 7    0  0.4750554E-002  0.4594871E+03  0.7546771E-02  0.1024930E+00
         21   -1    0    0  502  501  0.00000000000E+00  0.00000000000E+00  0.91451973142E+03  0.91451973142E+03  0.00000000000E+00 0. -1.
         21   -1    0    0  501  502 -0.00000000000E+00 -0.00000000000E+00 -0.57715638188E+02  0.57715638188E+02  0.00000000000E+00 0. -1.
      99926    2    1    2    0    0 -0.14210854715E-13  0.00000000000E+00  0.85680409323E+03  0.97223536961E+03  0.45948706156E+03 0.  0.
      99925    2    3    3    0    0  0.74044875168E+02  0.27511089365E+02  0.35329831416E+03  0.44744485785E+03  0.26295949963E+03 0.  0.
         25    1    4    4    0    0  0.75370335981E+02  0.18108733745E+02  0.21709925962E+03  0.26227506632E+03  0.12509000000E+03 0.  0.
         25    1    3    3    0    0 -0.74044875168E+02 -0.27511089365E+02  0.50350577907E+03  0.52479051176E+03  0.12509000000E+03 0.  0.
         25    1    4    4    0    0 -0.13254608133E+01  0.94023556205E+01  0.13619905454E+03  0.18516979153E+03  0.12509000000E+03 0.  0.
<mgrwt>
<rscale>  2 0.45948706E+03</rscale>
<asrwt>0</asrwt>
<pdfrwt beam="1">  1       21 0.13448819E+00 0.45948706E+03</pdfrwt>
<pdfrwt beam="2">  1       21 0.84875944E-02 0.45948706E+03</pdfrwt>
<totfact> 0.38871705E+04</totfact>
</mgrwt>
</event>
<event>
 7    0  0.4750554E-002  0.4493561E+03  0.7546771E-02  0.1027914E+00
         21   -1    0    0  502  501  0.00000000000E+00  0.00000000000E+00  0.42067488042E+02  0.42067488042E+02  0.00000000000E+00 0.  1.
         21   -1    0    0  501  502 -0.00000000000E+00 -0.00000000000E+00 -0.11999817473E+04  0.11999817473E+04  0.00000000000E+00 0.  1.
      99926    2    1    2    0    0  0.00000000000E+00 -0.71054273576E-14 -0.11579142592E+04  0.12420492353E+04  0.44935606285E+03 0.  0.
      99925    2    3    3    0    0 -0.65752769777E+02 -0.52483565864E+02 -0.55157870087E+03  0.61725465399E+03  0.26398161527E+03 0.  0.
         25    1    3    3    0    0  0.65752769777E+02  0.52483565864E+02 -0.60633555837E+03  0.62479458133E+03  0.12509000000E+03 0.  0.
         25    1    4    4    0    0 -0.95014914950E+01  0.55313994714E+01 -0.21097041369E+03  0.24551353989E+03  0.12509000000E+03 0.  0.
         25    1    4    4    0    0 -0.56251278282E+02 -0.58014965336E+02 -0.34060828718E+03  0.37174111410E+03  0.12509000000E+03 0.  0.
<mgrwt>
<rscale>  2 0.44935606E+03</rscale>
<asrwt>0</asrwt>
<pdfrwt beam="1">  1       21 0.61863951E-02 0.44935606E+03</pdfrwt>
<pdfrwt beam="2">  1       21 0.17646791E+00 0.44935606E+03</pdfrwt>
<totfact> 0.32238597E+04</totfact>
</mgrwt>
</event>
<event>
 7    0  0.4750554E-002  0.4272762E+03  0.7546771E-02  0.1034724E+00
         21   -1    0    0  502  501  0.00000000000E+00  0.00000000000E+00  0.30113885580E+02  0.30113885580E+02  0.00000000000E+00 0. -1.
         21   -1    0    0  501  502 -0.00000000000E+00 -0.00000000000E+00 -0.15156211571E+04  0.15156211571E+04  0.00000000000E+00 0. -1.
      99926    2    1    2    0    0  0.00000000000E+00 -0.88817841970E-15 -0.14855072716E+04  0.15457350427E+04  0.42727622030E+03 0.  0.
      99925    2    3    3    0    0 -0.98416473709E+01  0.70041005410E+01 -0.12635382114E+04  0.12906591967E+04  0.26291906538E+03 0.  0.
         25    1    4    4    0    0  0.41402493893E+01 -0.22682051599E+02 -0.48236746286E+03  0.49885618615E+03  0.12509000000E+03 0.  0.
         25    1    3    3    0    0  0.98416473709E+01 -0.70041005410E+01 -0.22196906013E+03  0.25507584598E+03  0.12509000000E+03 0.  0.
         25    1    4    4    0    0 -0.13981896760E+02  0.29686152140E+02 -0.78117074857E+03  0.79180301060E+03  0.12509000000E+03 0.  0.
<mgrwt>
<rscale>  2 0.42727622E+03</rscale>
<asrwt>0</asrwt>
<pdfrwt beam="1">  1       21 0.44285127E-02 0.42727622E+03</pdfrwt>
<pdfrwt beam="2">  1       21 0.22288546E+00 0.42727622E+03</pdfrwt>
<totfact> 0.28301175E+04</totfact>
</mgrwt>
</event>
<event>
 7    0  0.4750554E-002  0.4317454E+03  0.7546771E-02  0.1033310E+00
         21   -1    0    0  502  501  0.00000000000E+00  0.00000000000E+00  0.47644208518E+02  0.47644208518E+02  0.00000000000E+00 0. -1.
         21   -1    0    0  501  502 -0.00000000000E+00 -0.00000000000E+00 -0.97810478337E+03  0.97810478337E+03  0.00000000000E+00 0. -1.
      99926    2    1    2    0    0  0.00000000000E+00  0.00000000000E+00 -0.93046057486E+03  0.10257489919E+04  0.43174542616E+03 0.  0.
      99925    2    3    3    0    0 -0.48053551071E+02  0.75293830183E+02 -0.58041280467E+03  0.64344119162E+03  0.26298144159E+03 0.  0.
         25    1    3    3    0    0  0.48053551071E+02 -0.75293830183E+02 -0.35004777019E+03  0.38230780027E+03  0.12509000000E+03 0.  0.
         25    1    4    4    0    0 -0.61278725515E+02  0.33073539821E+02 -0.33849652686E+03  0.36752734324E+03  0.12509000000E+03 0.  0.
         25    1    4    4    0    0  0.13225174444E+02  0.42220290362E+02 -0.24191627781E+03  0.27591384838E+03  0.12509000000E+03 0.  0.
<mgrwt>
<rscale>  2 0.43174543E+03</rscale>
<asrwt>0</asrwt>
<pdfrwt beam="1">  1       21 0.70065012E-02 0.43174543E+03</pdfrwt>
<pdfrwt beam="2">  1       21 0.14383894E+00 0.43174543E+03</pdfrwt>
<totfact> 0.45977174E+04</totfact>
</mgrwt>
</event>
<event>
 7    0  0.4750554E-002  0.4601909E+03  0.7546771E-02  0.1024726E+00
         21   -1    0    0  502  501  0.00000000000E+00  0.00000000000E+00  0.19160563726E+04  0.19160563726E+04  0.00000000000E+00 0. -1.
         21   -1    0    0  501  502 -0.00000000000E+00 -0.00000000000E+00 -0.27631713407E+02  0.27631713407E+02  0.00000000000E+00 0. -1.
      99926    2    1    2    0    0  0.14210854715E-13  0.00000000000E+00  0.18884246592E+04  0.19436880860E+04  0.46019091933E+03 0.  0.
      99925    2    3    3    0    0 -0.79170203763E+02  0.65096262973E+02  0.14285093303E+04  0.14561687916E+04  0.26321701713E+03 0.  0.
         25    1    4    4    0    0 -0.32934808398E+02  0.17923486056E+02  0.49198437590E+03  0.50902071391E+03  0.12509000000E+03 0.  0.
         25    1    3    3    0    0  0.79170203763E+02 -0.65096262973E+02  0.45991532887E+03  0.48751929443E+03  0.12509000000E+03 0.  0.
         25    1    4    4    0    0 -0.46235395365E+02  0.47172776917E+02  0.93652495440E+03  0.94714807764E+03  0.12509000000E+03 0.  0.
<mgrwt>
<rscale>  2 0.46019092E+03</rscale>
<asrwt>0</asrwt>
<pdfrwt beam="1">  1       21 0.28177291E+00 0.46019092E+03</pdfrwt>
<pdfrwt beam="2">  1       21 0.40634886E-02 0.46019092E+03</pdfrwt>
<totfact> 0.14075534E+04</totfact>
</mgrwt>
</event>
<event>
 7    0  0.4750554E-002  0.4540474E+03  0.7546771E-02  0.1026522E+00
         21   -1    0    0  502  501  0.00000000000E+00  0.00000000000E+00  0.33171118149E+03  0.33171118149E+03  0.00000000000E+00 0. -1.
         21   -1    0    0  501  502 -0.00000000000E+00 -0.00000000000E+00 -0.15537541852E+03  0.15537541852E+03  0.00000000000E+00 0. -1.
      99926    2    1    2    0    0  0.00000000000E+00 -0.71054273576E-14  0.17633576297E+03  0.48708660001E+03  0.45404741449E+03 0.  0.
      99925    2    3    3    0    0 -0.96681642917E+02 -0.54511195974E+02  0.12934737241E+03  0.31337929587E+03  0.26297724192E+03 0.  0.
         25    1    3    3    0    0  0.96681642917E+02  0.54511195974E+02  0.46988390556E+02  0.17370730414E+03  0.12509000000E+03 0.  0.
         25    1    4    4    0    0 -0.64880919319E+02 -0.63832312713E+02  0.55293796567E+02  0.16428332197E+03  0.12509000000E+03 0.  0.
         25    1    4    4    0    0 -0.31800723598E+02  0.93211167393E+01  0.74053575844E+02  0.14909597390E+03  0.12509000000E+03 0.  0.
<mgrwt>
<rscale>  2 0.45404741E+03</rscale>
<asrwt>0</asrwt>
<pdfrwt beam="1">  1       21 0.48781056E-01 0.45404741E+03</pdfrwt>
<pdfrwt beam="2">  1       21 0.22849326E-01 0.45404741E+03</pdfrwt>
<totfact> 0.66690658E+04</totfact>
</mgrwt>
</event>
<event>
 7    0  0.4750554E-002  0.4504429E+03  0.7546771E-02  0.1027590E+00
         21   -1    0    0  502  501  0.00000000000E+00  0.00000000000E+00  0.97224804623E+03  0.97224804623E+03  0.00000000000E+00 0. -1.
         21   -1    0    0  501  502 -0.00000000000E+00 -0.00000000000E+00 -0.52172602592E+02  0.52172602592E+02  0.00000000000E+00 0. -1.
      99926    2    1    2    0    0  0.00000000000E+00  0.00000000000E+00  0.92007544363E+03  0.10244206488E+04  0.45044294172E+03 0.  0.
      99925    2    3    3    0    0 -0.33552689942E+02  0.87326959290E+02  0.70775833225E+03  0.76083414555E+03  0.26304934772E+03 0.  0.
         25    1    4    4    0    0 -0.54265403474E+02  0.56677078123E+02  0.34224389261E+03  0.37274041279E+03  0.12509000000E+03 0.  0.
         25    1    4    4    0    0  0.20712713532E+02  0.30649881167E+02  0.36551443965E+03  0.38809373276E+03  0.12509000000E+03 0.  0.
         25    1    3    3    0    0  0.33552689942E+02 -0.87326959290E+02  0.21231711138E+03  0.26358650327E+03  0.12509000000E+03 0.  0.
<mgrwt>
<rscale>  2 0.45044294E+03</rscale>
<asrwt>0</asrwt>
<pdfrwt beam="1">  1       21 0.14297764E+00 0.45044294E+03</pdfrwt>
<pdfrwt beam="2">  1       21 0.76724422E-02 0.45044294E+03</pdfrwt>
<totfact> 0.39621209E+04</totfact>
</mgrwt>
</event>
<event>
 7    0  0.4750554E-002  0.4640756E+03  0.7546771E-02  0.1023606E+00
         21   -1    0    0  502  501  0.00000000000E+00  0.00000000000E+00  0.29813058987E+03  0.29813058987E+03  0.00000000000E+00 0. -1.
         21   -1    0    0  501  502 -0.00000000000E+00 -0.00000000000E+00 -0.18059717832E+03  0.18059717832E+03  0.00000000000E+00 0. -1.
      99926    2    1    2    0    0  0.00000000000E+00  0.00000000000E+00  0.11753341155E+03  0.47872776820E+03  0.46407561152E+03 0.  0.
      99925    2    3    3    0    0  0.18942065475E+02  0.11980608038E+03  0.80605736464E+02  0.30061695991E+03  0.26298473928E+03 0.  0.
         25    1    4    4    0    0 -0.27124603328E+02  0.40802926118E+02  0.30500210153E+02  0.13776209132E+03  0.12509000000E+03 0.  0.
         25    1    4    4    0    0  0.46066668803E+02  0.79003154260E+02  0.50105526311E+02  0.16285486859E+03  0.12509000000E+03 0.  0.
         25    1    3    3    0    0 -0.18942065475E+02 -0.11980608038E+03  0.36927675083E+02  0.17811080828E+03  0.12509000000E+03 0.  0.
<mgrwt>
<rscale>  2 0.46407561E+03</rscale>
<asrwt>0</asrwt>
<pdfrwt beam="1">  1       21 0.43842734E-01 0.46407561E+03</pdfrwt>
<pdfrwt beam="2">  1       21 0.26558409E-01 0.46407561E+03</pdfrwt>
<totfact> 0.62191971E+04</totfact>
</mgrwt>
</event>
<event>
 7    0  0.4750554E-002  0.4609425E+03  0.7546771E-02  0.1024508E+00
         21   -1    0    0  502  501  0.00000000000E+00  0.00000000000E+00  0.17718501465E+03  0.17718501465E+03  0.00000000000E+00 0. -1.
         21   -1    0    0  501  502 -0.00000000000E+00 -0.00000000000E+00 -0.29978261008E+03  0.29978261008E+03  0.00000000000E+00 0. -1.
      99926    2    1    2    0    0  0.00000000000E+00  0.71054273576E-14 -0.12259759543E+03  0.47696762472E+03  0.46094245262E+03 0.  0.
      99925    2    3    3    0    0 -0.10909713995E+03 -0.46625410599E+02 -0.75012590703E+02  0.29811585472E+03  0.26300201370E+03 0.  0.
         25    1    4    4    0    0 -0.55183753850E+02 -0.42971289070E+02 -0.75213831220E+02  0.16185304100E+03  0.12509000000E+03 0.  0.
         25    1    3    3    0    0  0.10909713995E+03  0.46625410599E+02 -0.47585004726E+02  0.17885177000E+03  0.12509000000E+03 0.  0.
         25    1    4    4    0    0 -0.53913386100E+02 -0.36541215289E+01  0.20124051711E+00  0.13626281372E+03  0.12509000000E+03 0.  0.
<mgrwt>
<rscale>  2 0.46094245E+03</rscale>
<asrwt>0</asrwt>
<pdfrwt beam="1">  1       21 0.26056620E-01 0.46094245E+03</pdfrwt>
<pdfrwt beam="2">  1       21 0.44085678E-01 0.46094245E+03</pdfrwt>
<totfact> 0.63856886E+04</totfact>
</mgrwt>
</event>
<event>
 7    0  0.4750554E-002  0.4622569E+03  0.7546771E-02  0.1024129E+00
         21   -1    0    0  502  501  0.00000000000E+00  0.00000000000E+00  0.25361597776E+03  0.25361597776E+03  0.00000000000E+00 0. -1.
         21   -1    0    0  501  502 -0.00000000000E+00 -0.00000000000E+00 -0.21063487698E+03  0.21063487698E+03  0.00000000000E+00 0. -1.
      99926    2    1    2    0    0  0.00000000000E+00  0.00000000000E+00  0.42981100778E+02  0.46425085475E+03  0.46225694274E+03 0.  0.
      99925    2    3    3    0    0  0.55733315677E+02  0.54810912021E+02  0.11810432359E+03  0.29871703567E+03  0.26300721967E+03 0.  0.
         25    1    4    4    0    0  0.27488085827E+01  0.18402104358E+02  0.90187082728E+02  0.15533000800E+03  0.12509000000E+03 0.  0.
         25    1    3    3    0    0 -0.55733315677E+02 -0.54810912021E+02 -0.75123222809E+02  0.16553381908E+03  0.12509000000E+03 0.  0.
         25    1    4    4    0    0  0.52984507094E+02  0.36408807664E+02  0.27917240860E+02  0.14338702767E+03  0.12509000000E+03 0.  0.
<mgrwt>
<rscale>  2 0.46225694E+03</rscale>
<asrwt>0</asrwt>
<pdfrwt beam="1">  1       21 0.37296467E-01 0.46225694E+03</pdfrwt>
<pdfrwt beam="2">  1       21 0.30975717E-01 0.46225694E+03</pdfrwt>
<totfact> 0.64081819E+04</totfact>
</mgrwt>
</event>
<event>
 7    0  0.4750554E-002  0.4542886E+03  0.7546771E-02  0.1026451E+00
         21   -1    0    0  502  501  0.00000000000E+00  0.00000000000E+00  0.40218356141E+02  0.40218356141E+02  0.00000000000E+00 0.  1.
         21   -1    0    0  501  502 -0.00000000000E+00 -0.00000000000E+00 -0.12828602684E+04  0.12828602684E+04  0.00000000000E+00 0.  1.
      99926    2    1    2    0    0  0.00000000000E+00  0.14210854715E-13 -0.12426419123E+04  0.13230786246E+04  0.45428859178E+03 0.  0.
      99925    2    3    3    0    0 -0.38231651640E+02  0.10149873576E+03 -0.69691387258E+03  0.75278900169E+03  0.26313244330E+03 0.  0.
         25    1    4    4    0    0 -0.45671805184E+02  0.22085832427E+02 -0.36761133052E+03  0.39161115435E+03  0.12509000000E+03 0.  0.
         25    1    3    3    0    0  0.38231651640E+02 -0.10149873576E+03 -0.54572803970E+03  0.57028962287E+03  0.12509000000E+03 0.  0.
         25    1    4    4    0    0  0.74401535438E+01  0.79412903329E+02 -0.32930254206E+03  0.36117784734E+03  0.12509000000E+03 0.  0.
<mgrwt>
<rscale>  2 0.45428859E+03</rscale>
<asrwt>0</asrwt>
<pdfrwt beam="1">  1       21 0.59144637E-02 0.45428859E+03</pdfrwt>
<pdfrwt beam="2">  1       21 0.18865594E+00 0.45428859E+03</pdfrwt>
<totfact> 0.28609697E+04</totfact>
</mgrwt>
</event>
<event>
 7    0  0.4750554E-002  0.4588959E+03  0.7546771E-02  0.1025102E+00
         21   -1    0    0  502  501  0.00000000000E+00  0.00000000000E+00  0.19702339172E+03  0.19702339172E+03  0.00000000000E+00 0.  1.
         21   -1    0    0  501  502 -0.00000000000E+00 -0.00000000000E+00 -0.26720874106E+03  0.26720874106E+03  0.00000000000E+00 0.  1.
      99926    2    1    2    0    0  0.00000000000E+00  0.00000000000E+00 -0.70185349348E+02  0.46423213278E+03  0.45889594664E+03 0.  0.
      99925    2    3    3    0    0  0.17861360949E+02  0.11538851611E+03 -0.40726682354E+02  0.29059786477E+03  0.26297322771E+03 0.  0.
         25    1    3    3    0    0 -0.17861360949E+02 -0.11538851611E+03 -0.29458666994E+02  0.17363426801E+03  0.12509000000E+03 0.  0.
         25    1    4    4    0    0  0.33430720787E+02  0.45104953684E+02 -0.50077474364E+02  0.14597031026E+03  0.12509000000E+03 0.  0.
         25    1    4    4    0    0 -0.15569359837E+02  0.70283562425E+02  0.93507920101E+01  0.14462755451E+03  0.12509000000E+03 0.  0.
<mgrwt>
<rscale>  2 0.45889595E+03</rscale>
<asrwt>0</asrwt>
<pdfrwt beam="1">  1       21 0.28974028E-01 0.45889595E+03</pdfrwt>
<pdfrwt beam="2">  1       21 0.39295403E-01 0.45889595E+03</pdfrwt>
<totfact> 0.65804864E+04</totfact>
</mgrwt>
</event>
<event>
 7    0  0.4750554E-002  0.4552211E+03  0.7546771E-02  0.1026176E+00
         21   -1    0    0  502  501  0.00000000000E+00  0.00000000000E+00  0.16009536115E+03  0.16009536115E+03  0.00000000000E+00 0. -1.
         21   -1    0    0  501  502 -0.00000000000E+00 -0.00000000000E+00 -0.32359815787E+03  0.32359815787E+03  0.00000000000E+00 0. -1.
      99926    2    1    2    0    0  0.00000000000E+00  0.00000000000E+00 -0.16350279672E+03  0.48369351903E+03  0.45522110651E+03 0.  0.
      99925    2    3    3    0    0  0.91820367143E+02  0.20316546112E+02 -0.17006106125E+03  0.32705935672E+03  0.26306523221E+03 0.  0.
         25    1    3    3    0    0 -0.91820367143E+02 -0.20316546112E+02  0.65582645327E+01  0.15663416231E+03  0.12509000000E+03 0.  0.
         25    1    4    4    0    0  0.49444447561E+02 -0.29441412070E+02 -0.73802339482E+02  0.15622369715E+03  0.12509000000E+03 0.  0.
         25    1    4    4    0    0  0.42375919582E+02  0.49757958182E+02 -0.96258721771E+02  0.17083565957E+03  0.12509000000E+03 0.  0.
<mgrwt>
<rscale>  2 0.45522111E+03</rscale>
<asrwt>0</asrwt>
<pdfrwt beam="1">  1       21 0.23543436E-01 0.45522111E+03</pdfrwt>
<pdfrwt beam="2">  1       21 0.47587964E-01 0.45522111E+03</pdfrwt>
<totfact> 0.66315737E+04</totfact>
</mgrwt>
</event>
<event>
 7    0  0.4750554E-002  0.4470047E+03  0.7546771E-02  0.1028619E+00
         21   -1    0    0  502  501  0.00000000000E+00  0.00000000000E+00  0.19617044207E+03  0.19617044207E+03  0.00000000000E+00 0.  1.
         21   -1    0    0  501  502 -0.00000000000E+00 -0.00000000000E+00 -0.25464230704E+03  0.25464230704E+03  0.00000000000E+00 0.  1.
      99926    2    1    2    0    0  0.00000000000E+00  0.00000000000E+00 -0.58471864969E+02  0.45081274911E+03  0.44700467085E+03 0.  0.
      99925    2    3    3    0    0  0.66667866531E+02 -0.46561467681E+02  0.30925565614E+02  0.27688177603E+03  0.26285842689E+03 0.  0.
         25    1    4    4    0    0 -0.20614632146E+00 -0.11447608799E+02  0.35995208051E+02  0.13066848643E+03  0.12509000000E+03 0.  0.
         25    1    4    4    0    0  0.66874012852E+02 -0.35113858883E+02 -0.50696424369E+01  0.14621328960E+03  0.12509000000E+03 0.  0.
         25    1    3    3    0    0 -0.66667866531E+02  0.46561467681E+02 -0.89397430583E+02  0.17393097308E+03  0.12509000000E+03 0.  0.
<mgrwt>
<rscale>  2 0.44700467E+03</rscale>
<asrwt>0</asrwt>
<pdfrwt beam="1">  1       21 0.28848595E-01 0.44700467E+03</pdfrwt>
<pdfrwt beam="2">  1       21 0.37447398E-01 0.44700467E+03</pdfrwt>
<totfact> 0.73426627E+04</totfact>
</mgrwt>
</event>
<event>
 7    0  0.4750554E-002  0.4546711E+03  0.7546771E-02  0.1026338E+00
         21   -1    0    0  502  501  0.00000000000E+00  0.00000000000E+00  0.70081506839E+03  0.70081506839E+03  0.00000000000E+00 0.  1.
         21   -1    0    0  501  502 -0.00000000000E+00 -0.00000000000E+00 -0.73744767885E+02  0.73744767885E+02  0.00000000000E+00 0.  1.
      99926    2    1    2    0    0  0.00000000000E+00  0.00000000000E+00  0.62707030051E+03  0.77455983628E+03  0.45467106593E+03 0.  0.
      99925    2    3    3    0    0  0.65481476508E+02 -0.87941938480E+02  0.34919811658E+03  0.45070482704E+03  0.26300933098E+03 0.  0.
         25    1    4    4    0    0 -0.49956648149E+01 -0.22725686957E+02  0.15344395673E+03  0.19933381417E+03  0.12509000000E+03 0.  0.
         25    1    4    4    0    0  0.70477141323E+02 -0.65216251523E+02  0.19575415986E+03  0.25137101287E+03  0.12509000000E+03 0.  0.
         25    1    3    3    0    0 -0.65481476508E+02  0.87941938480E+02  0.27787218392E+03  0.32385500924E+03  0.12509000000E+03 0.  0.
<mgrwt>
<rscale>  2 0.45467107E+03</rscale>
<asrwt>0</asrwt>
<pdfrwt beam="1">  1       21 0.10306104E+00 0.45467107E+03</pdfrwt>
<pdfrwt beam="2">  1       21 0.10844819E-01 0.45467107E+03</pdfrwt>
<totfact> 0.49146724E+04</totfact>
</mgrwt>
</event>
<event>
 7    0  0.4750554E-002  0.4663273E+03  0.7546771E-02  0.1022962E+00
         21   -1    0    0  502  501  0.00000000000E+00  0.00000000000E+00  0.11478311516E+04  0.11478311516E+04  0.00000000000E+00 0.  1.
         21   -1    0    0  501  502 -0.00000000000E+00 -0.00000000000E+00 -0.47363498320E+02  0.47363498320E+02  0.00000000000E+00 0.  1.
      99926    2    1    2    0    0  0.00000000000E+00 -0.88817841970E-15  0.11004676533E+04  0.11951946499E+04  0.46632734777E+03 0.  0.
      99925    2    3    3    0    0 -0.73276464742E+02 -0.63917707385E+01  0.93996519705E+03  0.97881803017E+03  0.26294461299E+03 0.  0.
         25    1    4    4    0    0 -0.63958425731E+02  0.19388353700E+02  0.41929905645E+03  0.44263505885E+03  0.12509000000E+03 0.  0.
         25    1    4    4    0    0 -0.93180390110E+01 -0.25780124438E+02  0.52066614060E+03  0.53618297132E+03  0.12509000000E+03 0.  0.
         25    1    3    3    0    0  0.73276464742E+02  0.63917707385E+01  0.16050245622E+03  0.21637661974E+03  0.12509000000E+03 0.  0.
<mgrwt>
<rscale>  2 0.46632735E+03</rscale>
<asrwt>0</asrwt>
<pdfrwt beam="1">  1       21 0.16879868E+00 0.46632735E+03</pdfrwt>
<pdfrwt beam="2">  1       21 0.69652211E-02 0.46632735E+03</pdfrwt>
<totfact> 0.29608286E+04</totfact>
</mgrwt>
</event>
<event>
 7    0  0.4750554E-002  0.4628667E+03  0.7546771E-02  0.1023953E+00
         21   -1    0    0  502  501  0.00000000000E+00  0.00000000000E+00  0.90398595722E+02  0.90398595722E+02  0.00000000000E+00 0.  1.
         21   -1    0    0  501  502 -0.00000000000E+00 -0.00000000000E+00 -0.59250255458E+03  0.59250255458E+03  0.00000000000E+00 0.  1.
      99926    2    1    2    0    0  0.71054273576E-14  0.00000000000E+00 -0.50210395886E+03  0.68290115030E+03  0.46286671471E+03 0.  0.
      99925    2    3    3    0    0 -0.60197655347E+02  0.16148259541E+02 -0.16167517008E+03  0.31490143247E+03  0.26294396277E+03 0.  0.
         25    1    3    3    0    0  0.60197655347E+02 -0.16148259541E+02 -0.34042878878E+03  0.36799971784E+03  0.12509000000E+03 0.  0.
         25    1    4    4    0    0 -0.35812685903E+02 -0.16224681806E+02 -0.11784374304E+03  0.17629646805E+03  0.12509000000E+03 0.  0.
         25    1    4    4    0    0 -0.24384969444E+02  0.32372941347E+02 -0.43831427032E+02  0.13860496442E+03  0.12509000000E+03 0.  0.
<mgrwt>
<rscale>  2 0.46286671E+03</rscale>
<asrwt>0</asrwt>
<pdfrwt beam="1">  1       21 0.13293911E-01 0.46286671E+03</pdfrwt>
<pdfrwt beam="2">  1       21 0.87132729E-01 0.46286671E+03</pdfrwt>
<totfact> 0.50629809E+04</totfact>
</mgrwt>
</event>
<event>
 7    0  0.4750554E-002  0.4537328E+03  0.7546771E-02  0.1026615E+00
         21   -1    0    0  502  501  0.00000000000E+00  0.00000000000E+00  0.74341170085E+02  0.74341170085E+02  0.00000000000E+00 0. -1.
         21   -1    0    0  501  502 -0.00000000000E+00 -0.00000000000E+00 -0.69232661909E+03  0.69232661909E+03  0.00000000000E+00 0. -1.
      99926    2    1    2    0    0 -0.35527136788E-14  0.17763568394E-14 -0.61798544900E+03  0.76666778917E+03  0.45373283304E+03 0.  0.
      99925    2    3    3    0    0  0.18729099238E+02  0.74008269068E+01 -0.57544887287E+03  0.63301742514E+03  0.26299069156E+03 0.  0.
         25    1    4    4    0    0  0.83612142229E+01 -0.19445526816E+02 -0.20629056487E+03  0.24218039489E+03  0.12509000000E+03 0.  0.
         25    1    3    3    0    0 -0.18729099238E+02 -0.74008269068E+01 -0.42536576138E+02  0.13365036404E+03  0.12509000000E+03 0.  0.
         25    1    4    4    0    0  0.10367885015E+02  0.26846353723E+02 -0.36915830800E+03  0.39083703025E+03  0.12509000000E+03 0.  0.
<mgrwt>
<rscale>  2 0.45373283E+03</rscale>
<asrwt>0</asrwt>
<pdfrwt beam="1">  1       21 0.10932525E-01 0.45373283E+03</pdfrwt>
<pdfrwt beam="2">  1       21 0.10181274E+00 0.45373283E+03</pdfrwt>
<totfact> 0.49913854E+04</totfact>
</mgrwt>
</event>
<event>
 7    0  0.4750554E-002  0.4569279E+03  0.7546771E-02  0.1025676E+00
         21   -1    0    0  502  501  0.00000000000E+00  0.00000000000E+00  0.24087141364E+03  0.24087141364E+03  0.00000000000E+00 0. -1.
         21   -1    0    0  501  502 -0.00000000000E+00 -0.00000000000E+00 -0.21669556206E+03  0.21669556206E+03  0.00000000000E+00 0. -1.
      99926    2    1    2    0    0  0.00000000000E+00 -0.14210854715E-13  0.24175851576E+02  0.45756697570E+03  0.45692785585E+03 0.  0.
      99925    2    3    3    0    0  0.15454519507E+02  0.90317342781E+02  0.84798355253E+02  0.29107775493E+03  0.26294378445E+03 0.  0.
         25    1    4    4    0    0 -0.22807023581E+01  0.35379896273E+01  0.36478436857E+02  0.13036833753E+03  0.12509000000E+03 0.  0.
         25    1    3    3    0    0 -0.15454519507E+02 -0.90317342781E+02 -0.60622503677E+02  0.16648922077E+03  0.12509000000E+03 0.  0.
         25    1    4    4    0    0  0.17735221865E+02  0.86779353154E+02  0.48319918396E+02  0.16070941740E+03  0.12509000000E+03 0.  0.
<mgrwt>
<rscale>  2 0.45692786E+03</rscale>
<asrwt>0</asrwt>
<pdfrwt beam="1">  1       21 0.35422267E-01 0.45692786E+03</pdfrwt>
<pdfrwt beam="2">  1       21 0.31866995E-01 0.45692786E+03</pdfrwt>
<totfact> 0.67316730E+04</totfact>
</mgrwt>
</event>
<event>
 6    0  0.4750554E-002  0.4544359E+03  0.7546771E-02  0.1026407E+00
         21   -1    0    0  502  501  0.00000000000E+00  0.00000000000E+00  0.72123265112E+03  0.72123265112E+03  0.00000000000E+00 0. -1.
         21   -1    0    0  501  502 -0.00000000000E+00 -0.00000000000E+00 -0.71583010672E+02  0.71583010672E+02  0.00000000000E+00 0. -1.
      99926    2    1    2    0    0 -0.14210854715E-13 -0.71054273576E-14  0.64964964045E+03  0.79281566179E+03  0.45443593415E+03 0.  0.
         25    1    3    3    0    0  0.73115236028E+02  0.64943053376E+02  0.24185872938E+03  0.28932091352E+03  0.12509000000E+03 0.  0.
         25    1    3    3    0    0 -0.85889509512E+02 -0.42930374524E+02  0.28846789708E+03  0.32875714539E+03  0.12509000000E+03 0.  0.
         25    1    3    3    0    0  0.12774273484E+02 -0.22012678852E+02  0.11932301399E+03  0.17473760288E+03  0.12509000000E+03 0.  0.
<mgrwt>
<rscale>  2 0.45443593E+03</rscale>
<asrwt>0</asrwt>
<pdfrwt beam="1">  1       21 0.10606362E+00 0.45443593E+03</pdfrwt>
<pdfrwt beam="2">  1       21 0.10526914E-01 0.45443593E+03</pdfrwt>
<totfact> 0.48327872E+04</totfact>
</mgrwt>
</event>
<event>
 7    0  0.4750554E-002  0.4644378E+03  0.7546771E-02  0.1023502E+00
         21   -1    0    0  502  501  0.00000000000E+00  0.00000000000E+00  0.42200662656E+03  0.42200662656E+03  0.00000000000E+00 0. -1.
         21   -1    0    0  501  502 -0.00000000000E+00 -0.00000000000E+00 -0.12778379560E+03  0.12778379560E+03  0.00000000000E+00 0. -1.
      99926    2    1    2    0    0  0.00000000000E+00  0.00000000000E+00  0.29422283096E+03  0.54979042215E+03  0.46443776121E+03 0.  0.
      99925    2    3    3    0    0 -0.59054903088E+02  0.10511078048E+03  0.20279048579E+03  0.35346635436E+03  0.26320851959E+03 0.  0.
         25    1    4    4    0    0 -0.25191288215E+02  0.84925061379E+02  0.76163266123E+02  0.17115845950E+03  0.12509000000E+03 0.  0.
         25    1    3    3    0    0  0.59054903088E+02 -0.10511078048E+03  0.91432345167E+02  0.19632406779E+03  0.12509000000E+03 0.  0.
         25    1    4    4    0    0 -0.33863614874E+02  0.20185719097E+02  0.12662721967E+03  0.18230789486E+03  0.12509000000E+03 0.  0.
<mgrwt>
<rscale>  2 0.46443776E+03</rscale>
<asrwt>0</asrwt>
<pdfrwt beam="1">  1       21 0.62059798E-01 0.46443776E+03</pdfrwt>
<pdfrwt beam="2">  1       21 0.18791735E-01 0.46443776E+03</pdfrwt>
<totfact> 0.57467110E+04</totfact>
</mgrwt>
</event>
<event>
 7    0  0.4750554E-002  0.4434522E+03  0.7546771E-02  0.1029693E+00
         21   -1    0    0  502  501  0.00000000000E+00  0.00000000000E+00  0.11783043740E+03  0.11783043740E+03  0.00000000000E+00 0. -1.
         21   -1    0    0  501  502 -0.00000000000E+00 -0.00000000000E+00 -0.41723065678E+03  0.41723065678E+03  0.00000000000E+00 0. -1.
      99926    2    1    2    0    0  0.35527136788E-14  0.35527136788E-14 -0.29940021938E+03  0.53506109417E+03  0.44345223320E+03 0.  0.
      99925    2    3    3    0    0  0.24571383303E+02  0.20580036353E+02 -0.73528382288E+02  0.27488252921E+03  0.26291955251E+03 0.  0.
         25    1    4    4    0    0  0.66571550642E+01  0.35836591209E+02 -0.51489958012E+01  0.13039401536E+03  0.12509000000E+03 0.  0.
         25    1    4    4    0    0  0.17914228239E+02 -0.15256554855E+02 -0.68379386487E+02  0.14448851385E+03  0.12509000000E+03 0.  0.
         25    1    3    3    0    0 -0.24571383303E+02 -0.20580036353E+02 -0.22587183709E+03  0.26017856496E+03  0.12509000000E+03 0.  0.
<mgrwt>
<rscale>  2 0.44345223E+03</rscale>
<asrwt>0</asrwt>
<pdfrwt beam="1">  1       21 0.17328005E-01 0.44345223E+03</pdfrwt>
<pdfrwt beam="2">  1       21 0.61357450E-01 0.44345223E+03</pdfrwt>
<totfact> 0.68954069E+04</totfact>
</mgrwt>
</event>
<event>
 7    0  0.4750554E-002  0.4566296E+03  0.7546771E-02  0.1025763E+00
         21   -1    0    0  502  501  0.00000000000E+00  0.00000000000E+00  0.78740036346E+02  0.78740036346E+02  0.00000000000E+00 0.  1.
         21   -1    0    0  501  502 -0.00000000000E+00 -0.00000000000E+00 -0.66202215336E+03  0.66202215336E+03  0.00000000000E+00 0.  1.
      99926    2    1    2    0    0 -0.71054273576E-14  0.00000000000E+00 -0.58328211702E+03  0.74076218971E+03  0.45662960227E+03 0.  0.
      99925    2    3    3    0    0 -0.47792586122E+02  0.10308770120E+03 -0.34162600728E+03  0.44587850264E+03  0.26303631847E+03 0.  0.
         25    1    4    4    0    0 -0.54002490995E+02  0.64428204275E+02 -0.22261837198E+03  0.26883770231E+03  0.12509000000E+03 0.  0.
         25    1    3    3    0    0  0.47792586122E+02 -0.10308770120E+03 -0.24165610973E+03  0.29488368707E+03  0.12509000000E+03 0.  0.
         25    1    4    4    0    0  0.62099048738E+01  0.38659496928E+02 -0.11900763530E+03  0.17704080033E+03  0.12509000000E+03 0.  0.
<mgrwt>
<rscale>  2 0.45662960E+03</rscale>
<asrwt>0</asrwt>
<pdfrwt beam="1">  1       21 0.11579417E-01 0.45662960E+03</pdfrwt>
<pdfrwt beam="2">  1       21 0.97356199E-01 0.45662960E+03</pdfrwt>
<totfact> 0.50100164E+04</totfact>
</mgrwt>
</event>
<event>
 7    0  0.4750554E-002  0.4547387E+03  0.7546771E-02  0.1026318E+00
         21   -1    0    0  502  501  0.00000000000E+00  0.00000000000E+00  0.15505720843E+03  0.15505720843E+03  0.00000000000E+00 0.  1.
         21   -1    0    0  501  502 -0.00000000000E+00 -0.00000000000E+00 -0.33340488086E+03  0.33340488086E+03  0.00000000000E+00 0.  1.
      99926    2    1    2    0    0  0.00000000000E+00  0.00000000000E+00 -0.17834767244E+03  0.48846208929E+03  0.45473873863E+03 0.  0.
      99925    2    3    3    0    0 -0.76954710795E+02  0.33240002757E+02 -0.30895340335E+02  0.27770957177E+03  0.26294706483E+03 0.  0.
         25    1    4    4    0    0 -0.33318419369E+02  0.28335213248E+02 -0.54076086645E+02  0.14312488472E+03  0.12509000000E+03 0.  0.
         25    1    3    3    0    0  0.76954710795E+02 -0.33240002757E+02 -0.14745233210E+03  0.21075251752E+03  0.12509000000E+03 0.  0.
         25    1    4    4    0    0 -0.43636291426E+02  0.49047895089E+01  0.23180746310E+02  0.13458468705E+03  0.12509000000E+03 0.  0.
<mgrwt>
<rscale>  2 0.45473874E+03</rscale>
<asrwt>0</asrwt>
<pdfrwt beam="1">  1       21 0.22802531E-01 0.45473874E+03</pdfrwt>
<pdfrwt beam="2">  1       21 0.49030128E-01 0.45473874E+03</pdfrwt>
<totfact> 0.66226342E+04</totfact>
</mgrwt>
</event>
<event>
 7    0  0.4750554E-002  0.4473473E+03  0.7546771E-02  0.1028516E+00
         21   -1    0    0  502  501  0.00000000000E+00  0.00000000000E+00  0.55676334311E+02  0.55676334311E+02  0.00000000000E+00 0. -1.
         21   -1    0    0  501  502 -0.00000000000E+00 -0.00000000000E+00 -0.89858461596E+03  0.89858461596E+03  0.00000000000E+00 0. -1.
      99926    2    1    2    0    0  0.71054273576E-14  0.00000000000E+00 -0.84290828165E+03  0.95426095027E+03  0.44734728114E+03 0.  0.
      99925    2    3    3    0    0 -0.35298684172E+02 -0.47118096816E+02 -0.34662968045E+03  0.43908518389E+03  0.26301625652E+03 0.  0.
         25    1    3    3    0    0  0.35298684172E+02  0.47118096816E+02 -0.49627860120E+03  0.51517576637E+03  0.12509000000E+03 0.  0.
         25    1    4    4    0    0 -0.33356172437E+01 -0.99054422405E+01 -0.22597615827E+03  0.25849947067E+03  0.12509000000E+03 0.  0.
         25    1    4    4    0    0 -0.31963066928E+02 -0.37212654576E+02 -0.12065352218E+03  0.18058571323E+03  0.12509000000E+03 0.  0.
<mgrwt>
<rscale>  2 0.44734728E+03</rscale>
<asrwt>0</asrwt>
<pdfrwt beam="1">  1       21 0.81876961E-02 0.44734728E+03</pdfrwt>
<pdfrwt beam="2">  1       21 0.13214480E+00 0.44734728E+03</pdfrwt>
<totfact> 0.43514874E+04</totfact>
</mgrwt>
</event>
<event>
 7    0  0.4750554E-002  0.4613969E+03  0.7546771E-02  0.1024377E+00
         21   -1    0    0  502  501  0.00000000000E+00  0.00000000000E+00  0.50321183611E+03  0.50321183611E+03  0.00000000000E+00 0. -1.
         21   -1    0    0  501  502 -0.00000000000E+00 -0.00000000000E+00 -0.10576414666E+03  0.10576414666E+03  0.00000000000E+00 0. -1.
      99926    2    1    2    0    0  0.00000000000E+00  0.00000000000E+00  0.39744768945E+03  0.60897598276E+03  0.46139688093E+03 0.  0.
      99925    2    3    3    0    0  0.40072212422E+02  0.26113098492E+02  0.10488808322E+03  0.28722094019E+03  0.26307162972E+03 0.  0.
         25    1    3    3    0    0 -0.40072212422E+02 -0.26113098492E+02  0.29255960623E+03  0.32175504257E+03  0.12509000000E+03 0.  0.
         25    1    4    4    0    0  0.54872304719E+02  0.81074204523E+01  0.31807197710E+02  0.14048454014E+03  0.12509000000E+03 0.  0.
         25    1    4    4    0    0 -0.14800092298E+02  0.18005678039E+02  0.73080885507E+02  0.14673640005E+03  0.12509000000E+03 0.  0.
<mgrwt>
<rscale>  2 0.46139688E+03</rscale>
<asrwt>0</asrwt>
<pdfrwt beam="1">  1       21 0.74001739E-01 0.46139688E+03</pdfrwt>
<pdfrwt beam="2">  1       21 0.15553551E-01 0.46139688E+03</pdfrwt>
<totfact> 0.55282225E+04</totfact>
</mgrwt>
</event>
<event>
 7    0  0.4750554E-002  0.4534223E+03  0.7546771E-02  0.1026706E+00
         21   -1    0    0  502  501  0.00000000000E+00  0.00000000000E+00  0.16732456776E+03  0.16732456776E+03  0.00000000000E+00 0.  1.
         21   -1    0    0  501  502 -0.00000000000E+00 -0.00000000000E+00 -0.30717514929E+03  0.30717514929E+03  0.00000000000E+00 0.  1.
      99926    2    1    2    0    0  0.00000000000E+00  0.00000000000E+00 -0.13985058154E+03  0.47449971705E+03  0.45342231565E+03 0.  0.
      99925    2    3    3    0    0  0.35455313873E+02  0.75788351346E+02 -0.16563234461E+03  0.32181323799E+03  0.26292343578E+03 0.  0.
         25    1    4    4    0    0  0.53407792905E+02  0.59643083588E+02 -0.89480359023E+02  0.17338953980E+03  0.12509000000E+03 0.  0.
         25    1    3    3    0    0 -0.35455313873E+02 -0.75788351346E+02  0.25781763074E+02  0.15268647906E+03  0.12509000000E+03 0.  0.
         25    1    4    4    0    0 -0.17952479031E+02  0.16145267758E+02 -0.76151985586E+02  0.14842369819E+03  0.12509000000E+03 0.  0.
<mgrwt>
<rscale>  2 0.45342232E+03</rscale>
<asrwt>0</asrwt>
<pdfrwt beam="1">  1       21 0.24606555E-01 0.45342232E+03</pdfrwt>
<pdfrwt beam="2">  1       21 0.45172815E-01 0.45342232E+03</pdfrwt>
<totfact> 0.67949498E+04</totfact>
</mgrwt>
</event>
<event>
 6    0  0.4750554E-002  0.4659394E+03  0.7546771E-02  0.1023073E+00
         21   -1    0    0  502  501  0.00000000000E+00  0.00000000000E+00  0.27771766714E+03  0.27771766714E+03  0.00000000000E+00 0. -1.
         21   -1    0    0  501  502 -0.00000000000E+00 -0.00000000000E+00 -0.19543182322E+03  0.19543182322E+03  0.00000000000E+00 0. -1.
      99926    2    1    2    0    0  0.00000000000E+00  0.00000000000E+00  0.82285843918E+02  0.47314949036E+03  0.46593935240E+03 0.  0.
         25    1    3    3    0    0  0.41335555473E+01  0.54361959477E+02  0.14648458520E+03  0.20019378292E+03  0.12509000000E+03 0.  0.
         25    1    3    3    0    0 -0.68799451847E+01 -0.20249806091E+02 -0.66448960268E+02  0.14324929568E+03  0.12509000000E+03 0.  0.
         25    1    3    3    0    0  0.27463896375E+01 -0.34112153387E+02  0.22502189837E+01  0.12970641175E+03  0.12509000000E+03 0.  0.
<mgrwt>
<rscale>  2 0.46593935E+03</rscale>
<asrwt>0</asrwt>
<pdfrwt beam="1">  1       21 0.40840834E-01 0.46593935E+03</pdfrwt>
<pdfrwt beam="2">  1       21 0.28739974E-01 0.46593935E+03</pdfrwt>
<totfact> 0.61669608E+04</totfact>
</mgrwt>
</event>
<event>
 7    0  0.4750554E-002  0.4565262E+03  0.7546771E-02  0.1025794E+00
         21   -1    0    0  502  501  0.00000000000E+00  0.00000000000E+00  0.11529400428E+04  0.11529400428E+04  0.00000000000E+00 0. -1.
         21   -1    0    0  501  502 -0.00000000000E+00 -0.00000000000E+00 -0.45192321784E+02  0.45192321784E+02  0.00000000000E+00 0. -1.
      99926    2    1    2    0    0  0.00000000000E+00  0.00000000000E+00  0.11077477210E+04  0.11981323646E+04  0.45652617629E+03 0.  0.
      99925    2    3    3    0    0 -0.54646232425E+02 -0.10057613662E+03  0.70854320389E+03  0.76441180412E+03  0.26304023365E+03 0.  0.
         25    1    3    3    0    0  0.54646232425E+02  0.10057613662E+03  0.39920451710E+03  0.43372056044E+03  0.12509000000E+03 0.  0.
         25    1    4    4    0    0 -0.64848338558E+01 -0.83106337901E+02  0.33562264935E+03  0.36774826624E+03  0.12509000000E+03 0.  0.
         25    1    4    4    0    0 -0.48161398569E+02 -0.17469798716E+02  0.37292055454E+03  0.39666353788E+03  0.12509000000E+03 0.  0.
<mgrwt>
<rscale>  2 0.45652618E+03</rscale>
<asrwt>0</asrwt>
<pdfrwt beam="1">  1       21 0.16954999E+00 0.45652618E+03</pdfrwt>
<pdfrwt beam="2">  1       21 0.66459304E-02 0.45652618E+03</pdfrwt>
<totfact> 0.31835021E+04</totfact>
</mgrwt>
</event>
<event>
 7    0  0.4750554E-002  0.4579914E+03  0.7546771E-02  0.1025365E+00
         21   -1    0    0  502  501  0.00000000000E+00  0.00000000000E+00  0.10077176468E+03  0.10077176468E+03  0.00000000000E+00 0. -1.
         21   -1    0    0  501  502 -0.00000000000E+00 -0.00000000000E+00 -0.52037429144E+03  0.52037429144E+03  0.00000000000E+00 0. -1.
      99926    2    1    2    0    0  0.00000000000E+00  0.88817841970E-15 -0.41960252676E+03  0.62114605612E+03  0.45799142193E+03 0.  0.
      99925    2    3    3    0    0  0.93733129958E+02 -0.64244815791E+01 -0.17126958489E+03  0.32764319116E+03  0.26303919174E+03 0.  0.
         25    1    4    4    0    0  0.10349446952E+02 -0.51267092162E+01 -0.52939141390E+02  0.13632114653E+03  0.12509000000E+03 0.  0.
         25    1    4    4    0    0  0.83383683006E+02 -0.12977723628E+01 -0.11833044350E+03  0.19132204463E+03  0.12509000000E+03 0.  0.
         25    1    3    3    0    0 -0.93733129958E+02  0.64244815791E+01 -0.24833294188E+03  0.29350286496E+03  0.12509000000E+03 0.  0.
<mgrwt>
<rscale>  2 0.45799142E+03</rscale>
<asrwt>0</asrwt>
<pdfrwt beam="1">  1       21 0.14819377E-01 0.45799142E+03</pdfrwt>
<pdfrwt beam="2">  1       21 0.76525631E-01 0.45799142E+03</pdfrwt>
<totfact> 0.56059211E+04</totfact>
</mgrwt>
</event>
<event>
 7    0  0.4750554E-002  0.4557368E+03  0.7546771E-02  0.1026025E+00
         21   -1    0    0  502  501  0.00000000000E+00  0.00000000000E+00  0.98074085615E+02  0.98074085615E+02  0.00000000000E+00 0.  1.
         21   -1    0    0  501  502 -0.00000000000E+00 -0.00000000000E+00 -0.52943665405E+03  0.52943665405E+03  0.00000000000E+00 0.  1.
      99926    2    1    2    0    0  0.00000000000E+00  0.00000000000E+00 -0.43136256843E+03  0.62751073966E+03  0.45573683519E+03 0.  0.
      99925    2    3    3    0    0  0.58263547349E+02  0.23871275245E+02 -0.40185290536E+03  0.48439258202E+03  0.26303219811E+03 0.  0.
         25    1    3    3    0    0 -0.58263547349E+02 -0.23871275245E+02 -0.29509663076E+02  0.14311815764E+03  0.12509000000E+03 0.  0.
         25    1    4    4    0    0  0.57210878975E+01  0.27389278384E+02 -0.14246290355E+03  0.19164052391E+03  0.12509000000E+03 0.  0.
         25    1    4    4    0    0  0.52542459452E+02 -0.35180031397E+01 -0.25939000181E+03  0.29275205811E+03  0.12509000000E+03 0.  0.
<mgrwt>
<rscale>  2 0.45573684E+03</rscale>
<asrwt>0</asrwt>
<pdfrwt beam="1">  1       21 0.14422660E-01 0.45573684E+03</pdfrwt>
<pdfrwt beam="2">  1       21 0.77858331E-01 0.45573684E+03</pdfrwt>
<totfact> 0.56685606E+04</totfact>
</mgrwt>
</event>
<event>
 7    0  0.4750554E-002  0.4587522E+03  0.7546771E-02  0.1025144E+00
         21   -1    0    0  502  501  0.00000000000E+00  0.00000000000E+00  0.14313258808E+03  0.14313258808E+03  0.00000000000E+00 0.  1.
         21   -1    0    0  501  502 -0.00000000000E+00 -0.00000000000E+00 -0.36758494698E+03  0.36758494698E+03  0.00000000000E+00 0.  1.
      99926    2    1    2    0    0  0.00000000000E+00 -0.71054273576E-14 -0.22445235890E+03  0.51071753505E+03  0.45875215443E+03 0.  0.
      99925    2    3    3    0    0  0.10388242729E+03  0.44880826150E+02 -0.17193081608E+03  0.33404872678E+03  0.26310168964E+03 0.  0.
         25    1    3    3    0    0 -0.10388242729E+03 -0.44880826150E+02 -0.52521542817E+02  0.17666880827E+03  0.12509000000E+03 0.  0.
         25    1    4    4    0    0  0.95088736906E+02  0.20808027413E+02 -0.88741426204E+02  0.18165183929E+03  0.12509000000E+03 0.  0.
         25    1    4    4    0    0  0.87936903855E+01  0.24072798738E+02 -0.83189389880E+02  0.15239688750E+03  0.12509000000E+03 0.  0.
<mgrwt>
<rscale>  2 0.45875215E+03</rscale>
<asrwt>0</asrwt>
<pdfrwt beam="1">  1       21 0.21048910E-01 0.45875215E+03</pdfrwt>
<pdfrwt beam="2">  1       21 0.54056609E-01 0.45875215E+03</pdfrwt>
<totfact> 0.62637890E+04</totfact>
</mgrwt>
</event>
<event>
 7    0  0.4750554E-002  0.4221159E+03  0.7546771E-02  0.1036380E+00
         21   -1    0    0  502  501  0.00000000000E+00  0.00000000000E+00  0.11644222110E+04  0.11644222110E+04  0.00000000000E+00 0. -1.
         21   -1    0    0  501  502 -0.00000000000E+00 -0.00000000000E+00 -0.38255419083E+02  0.38255419083E+02  0.00000000000E+00 0. -1.
      99926    2    1    2    0    0  0.26645352591E-14  0.14210854715E-13  0.11261667919E+04  0.12026776301E+04  0.42211590670E+03 0.  0.
      99925    2    3    3    0    0  0.79015458564E+01  0.77857905298E+02  0.71682390781E+03  0.76755305860E+03  0.26301500928E+03 0.  0.
         25    1    3    3    0    0 -0.79015458564E+01 -0.77857905298E+02  0.40934288412E+03  0.43512457150E+03  0.12509000000E+03 0.  0.
         25    1    4    4    0    0  0.22276103603E+02  0.17888961176E+02  0.42800805878E+03  0.44682731139E+03  0.12509000000E+03 0.  0.
         25    1    4    4    0    0 -0.14374557747E+02  0.59968944123E+02  0.28881584904E+03  0.32072574721E+03  0.12509000000E+03 0.  0.
<mgrwt>
<rscale>  2 0.42211591E+03</rscale>
<asrwt>0</asrwt>
<pdfrwt beam="1">  1       21 0.17123854E+00 0.42211591E+03</pdfrwt>
<pdfrwt beam="2">  1       21 0.56257977E-02 0.42211591E+03</pdfrwt>
<totfact> 0.41790882E+04</totfact>
</mgrwt>
</event>
<event>
 7    0  0.4750554E-002  0.4466975E+03  0.7546771E-02  0.1028711E+00
         21   -1    0    0  502  501  0.00000000000E+00  0.00000000000E+00  0.61093311242E+03  0.61093311242E+03  0.00000000000E+00 0. -1.
         21   -1    0    0  501  502 -0.00000000000E+00 -0.00000000000E+00 -0.81653245642E+02  0.81653245642E+02  0.00000000000E+00 0. -1.
      99926    2    1    2    0    0 -0.35527136788E-14  0.00000000000E+00  0.52927986678E+03  0.69258635806E+03  0.44669753301E+03 0.  0.
      99925    2    3    3    0    0 -0.26146670451E+02  0.10094133692E+03  0.32230094074E+03  0.42922237837E+03  0.26359277649E+03 0.  0.
         25    1    3    3    0    0  0.26146670451E+02 -0.10094133692E+03  0.20697892604E+03  0.26336397969E+03  0.12509000000E+03 0.  0.
         25    1    4    4    0    0 -0.43078246678E+02  0.76302392930E+02  0.20091213436E+03  0.25237072797E+03  0.12509000000E+03 0.  0.
         25    1    4    4    0    0  0.16931576227E+02  0.24638943993E+02  0.12138880638E+03  0.17685165040E+03  0.12509000000E+03 0.  0.
<mgrwt>
<rscale>  2 0.44669753E+03</rscale>
<asrwt>0</asrwt>
<pdfrwt beam="1">  1       21 0.89843102E-01 0.44669753E+03</pdfrwt>
<pdfrwt beam="2">  1       21 0.12007831E-01 0.44669753E+03</pdfrwt>
<totfact> 0.56938084E+04</totfact>
</mgrwt>
</event>
<event>
 7    0  0.4750554E-002  0.4462727E+03  0.7546771E-02  0.1028839E+00
         21   -1    0    0  502  501  0.00000000000E+00  0.00000000000E+00  0.17372741491E+03  0.17372741491E+03  0.00000000000E+00 0.  1.
         21   -1    0    0  501  502 -0.00000000000E+00 -0.00000000000E+00 -0.28659742609E+03  0.28659742609E+03  0.00000000000E+00 0.  1.
      99926    2    1    2    0    0  0.00000000000E+00  0.00000000000E+00 -0.11287001118E+03  0.46032484100E+03  0.44627269670E+03 0.  0.
      99925    2    3    3    0    0  0.89953976907E+02  0.53230062527E+02 -0.63356319442E+02  0.28995972930E+03  0.26294003857E+03 0.  0.
         25    1    4    4    0    0  0.64743345266E+02 -0.79366349526E+01 -0.24213316907E+02  0.14313798848E+03  0.12509000000E+03 0.  0.
         25    1    3    3    0    0 -0.89953976907E+02 -0.53230062527E+02 -0.49513691737E+02  0.17036511171E+03  0.12509000000E+03 0.  0.
         25    1    4    4    0    0  0.25210631641E+02  0.61166697480E+02 -0.39143002535E+02  0.14682174081E+03  0.12509000000E+03 0.  0.
<mgrwt>
<rscale>  2 0.44627270E+03</rscale>
<asrwt>0</asrwt>
<pdfrwt beam="1">  1       21 0.25548150E-01 0.44627270E+03</pdfrwt>
<pdfrwt beam="2">  1       21 0.42146680E-01 0.44627270E+03</pdfrwt>
<totfact> 0.73092674E+04</totfact>
</mgrwt>
</event>
<event>
 7    0  0.4750554E-002  0.4431720E+03  0.7546771E-02  0.1029778E+00
         21   -1    0    0  502  501  0.00000000000E+00  0.00000000000E+00  0.15344898896E+04  0.15344898896E+04  0.00000000000E+00 0.  1.
         21   -1    0    0  501  502 -0.00000000000E+00 -0.00000000000E+00 -0.31997840852E+02  0.31997840852E+02  0.00000000000E+00 0.  1.
      99926    2    1    2    0    0  0.00000000000E+00  0.00000000000E+00  0.15024920487E+04  0.15664877304E+04  0.44317203556E+03 0.  0.
      99925    2    3    3    0    0 -0.44900375847E+02 -0.90884767007E+02  0.93867245877E+03  0.98012937350E+03  0.26319483148E+03 0.  0.
         25    1    3    3    0    0  0.44900375847E+02  0.90884767007E+02  0.56381958997E+03  0.58635835695E+03  0.12509000000E+03 0.  0.
         25    1    4    4    0    0 -0.24668294386E+02 -0.98164440586E+01  0.51155328644E+03  0.52729418761E+03  0.12509000000E+03 0.  0.
         25    1    4    4    0    0 -0.20232081461E+02 -0.81068322948E+02  0.42711917233E+03  0.45283518589E+03  0.12509000000E+03 0.  0.
<mgrwt>
<rscale>  2 0.44317204E+03</rscale>
<asrwt>0</asrwt>
<pdfrwt beam="1">  1       21 0.22566023E+00 0.44317204E+03</pdfrwt>
<pdfrwt beam="2">  1       21 0.47055659E-02 0.44317204E+03</pdfrwt>
<totfact> 0.24357485E+04</totfact>
</mgrwt>
</event>
<event>
 7    0  0.4750554E-002  0.4471102E+03  0.7546771E-02  0.1028587E+00
         21   -1    0    0  502  501  0.00000000000E+00  0.00000000000E+00  0.65496116256E+03  0.65496116256E+03  0.00000000000E+00 0. -1.
         21   -1    0    0  501  502 -0.00000000000E+00 -0.00000000000E+00 -0.76305121888E+02  0.76305121888E+02  0.00000000000E+00 0. -1.
      99926    2    1    2    0    0  0.71054273576E-14 -0.14210854715E-13  0.57865604068E+03  0.73126628445E+03  0.44711023849E+03 0.  0.
      99925    2    3    3    0    0  0.58774579494E+02 -0.85407000185E+02  0.39954507220E+03  0.48944599167E+03  0.26300628730E+03 0.  0.
         25    1    3    3    0    0 -0.58774579494E+02  0.85407000185E+02  0.17911096847E+03  0.24182029278E+03  0.12509000000E+03 0.  0.
         25    1    4    4    0    0 -0.10999254340E+02 -0.31914191991E+02  0.19338663494E+03  0.23277757177E+03  0.12509000000E+03 0.  0.
         25    1    4    4    0    0  0.69773833834E+02 -0.53492808194E+02  0.20615843727E+03  0.25666841990E+03  0.12509000000E+03 0.  0.
<mgrwt>
<rscale>  2 0.44711024E+03</rscale>
<asrwt>0</asrwt>
<pdfrwt beam="1">  1       21 0.96317815E-01 0.44711024E+03</pdfrwt>
<pdfrwt beam="2">  1       21 0.11221342E-01 0.44711024E+03</pdfrwt>
<totfact> 0.54543981E+04</totfact>
</mgrwt>
</event>
<event>
 7    0  0.4750554E-002  0.4693996E+03  0.7546771E-02  0.1022090E+00
         21   -1    0    0  502  501  0.00000000000E+00  0.00000000000E+00  0.21222482461E+03  0.21222482461E+03  0.00000000000E+00 0. -1.
         21   -1    0    0  501  502 -0.00000000000E+00 -0.00000000000E+00 -0.25955486436E+03  0.25955486436E+03  0.00000000000E+00 0. -1.
      99926    2    1    2    0    0  0.22204460493E-15  0.00000000000E+00 -0.47330039746E+02  0.47177968897E+03  0.46939955503E+03 0.  0.
      99925    2    3    3    0    0  0.18641138930E+01  0.37376118440E+02 -0.15042875808E+03  0.30541471979E+03  0.26315183954E+03 0.  0.
         25    1    4    4    0    0  0.50056078466E+01  0.11511130870E+02 -0.12058621454E+03  0.17420133605E+03  0.12509000000E+03 0.  0.
         25    1    3    3    0    0 -0.18641138930E+01 -0.37376118440E+02  0.10309871834E+03  0.16636496919E+03  0.12509000000E+03 0.  0.
         25    1    4    4    0    0 -0.31414939537E+01  0.25864987569E+02 -0.29842543536E+02  0.13121338373E+03  0.12509000000E+03 0.  0.
<mgrwt>
<rscale>  2 0.46939956E+03</rscale>
<asrwt>0</asrwt>
<pdfrwt beam="1">  1       21 0.31209533E-01 0.46939956E+03</pdfrwt>
<pdfrwt beam="2">  1       21 0.38169833E-01 0.46939956E+03</pdfrwt>
<totfact> 0.60123481E+04</totfact>
</mgrwt>
</event>
<event>
 7    0  0.4750554E-002  0.4571468E+03  0.7546771E-02  0.1025612E+00
         21   -1    0    0  502  501  0.00000000000E+00  0.00000000000E+00  0.72856908674E+02  0.72856908674E+02  0.00000000000E+00 0.  1.
         21   -1    0    0  501  502 -0.00000000000E+00 -0.00000000000E+00 -0.71710157548E+03  0.71710157548E+03  0.00000000000E+00 0.  1.
      99926    2    1    2    0    0 -0.71054273576E-14  0.14210854715E-13 -0.64424466680E+03  0.78995848415E+03  0.45714682103E+03 0.  0.
      99925    2    3    3    0    0  0.48236317588E+02 -0.64311367113E+02 -0.54722294351E+03  0.61241013252E+03  0.26292684580E+03 0.  0.
         25    1    3    3    0    0 -0.48236317588E+02  0.64311367113E+02 -0.97021723298E+02  0.17754835163E+03  0.12509000000E+03 0.  0.
         25    1    4    4    0    0 -0.70312216834E+01 -0.57944520896E+02 -0.27404587571E+03  0.30684793575E+03  0.12509000000E+03 0.  0.
         25    1    4    4    0    0  0.55267539271E+02 -0.63668462163E+01 -0.27317706780E+03  0.30556219678E+03  0.12509000000E+03 0.  0.
<mgrwt>
<rscale>  2 0.45714682E+03</rscale>
<asrwt>0</asrwt>
<pdfrwt beam="1">  1       21 0.10714251E-01 0.45714682E+03</pdfrwt>
<pdfrwt beam="2">  1       21 0.10545611E+00 0.45714682E+03</pdfrwt>
<totfact> 0.47449806E+04</totfact>
</mgrwt>
</event>
<event>
 7    0  0.4750554E-002  0.4474233E+03  0.7546771E-02  0.1028493E+00
         21   -1    0    0  502  501  0.00000000000E+00  0.00000000000E+00  0.54212089234E+03  0.54212089234E+03  0.00000000000E+00 0. -1.
         21   -1    0    0  501  502 -0.00000000000E+00 -0.00000000000E+00 -0.92316853199E+02  0.92316853199E+02  0.00000000000E+00 0. -1.
      99926    2    1    2    0    0  0.00000000000E+00  0.00000000000E+00  0.44980403914E+03  0.63443774554E+03  0.44742326642E+03 0.  0.
      99925    2    3    3    0    0 -0.61405391912E+02 -0.79900751348E+02  0.33137262046E+03  0.43486755425E+03  0.26295859736E+03 0.  0.
         25    1    4    4    0    0 -0.56081695805E+02 -0.71693104335E+02  0.20458210619E+03  0.25648860420E+03  0.12509000000E+03 0.  0.
         25    1    4    4    0    0 -0.53236961066E+01 -0.82076470132E+01  0.12679051427E+03  0.17837895004E+03  0.12509000000E+03 0.  0.
         25    1    3    3    0    0  0.61405391912E+02  0.79900751348E+02  0.11843141869E+03  0.19957019130E+03  0.12509000000E+03 0.  0.
<mgrwt>
<rscale>  2 0.44742327E+03</rscale>
<asrwt>0</asrwt>
<pdfrwt beam="1">  1       21 0.79723659E-01 0.44742327E+03</pdfrwt>
<pdfrwt beam="2">  1       21 0.13576008E-01 0.44742327E+03</pdfrwt>
<totfact> 0.60122484E+04</totfact>
</mgrwt>
</event>
<event>
 7    0  0.4750554E-002  0.4511943E+03  0.7546771E-02  0.1027367E+00
         21   -1    0    0  502  501  0.00000000000E+00  0.00000000000E+00  0.13160777367E+03  0.13160777367E+03  0.00000000000E+00 0. -1.
         21   -1    0    0  501  502 -0.00000000000E+00 -0.00000000000E+00 -0.38671017604E+03  0.38671017604E+03  0.00000000000E+00 0. -1.
      99926    2    1    2    0    0  0.00000000000E+00  0.00000000000E+00 -0.25510240237E+03  0.51831794971E+03  0.45119426115E+03 0.  0.
      99925    2    3    3    0    0 -0.10099811629E+03  0.18427369762E+02 -0.20507495947E+03  0.34893542229E+03  0.26298289389E+03 0.  0.
         25    1    4    4    0    0 -0.82802405662E+02  0.89549518919E+01 -0.14436238149E+03  0.20838530379E+03  0.12509000000E+03 0.  0.
         25    1    4    4    0    0 -0.18195710632E+02  0.94724178704E+01 -0.60712577987E+02  0.14055011850E+03  0.12509000000E+03 0.  0.
         25    1    3    3    0    0  0.10099811629E+03 -0.18427369762E+02 -0.50027442893E+02  0.16938252742E+03  0.12509000000E+03 0.  0.
<mgrwt>
<rscale>  2 0.45119426E+03</rscale>
<asrwt>0</asrwt>
<pdfrwt beam="1">  1       21 0.19354085E-01 0.45119426E+03</pdfrwt>
<pdfrwt beam="2">  1       21 0.56869142E-01 0.45119426E+03</pdfrwt>
<totfact> 0.65971513E+04</totfact>
</mgrwt>
</event>
<event>
 7    0  0.4750554E-002  0.4558093E+03  0.7546771E-02  0.1026004E+00
         21   -1    0    0  502  501  0.00000000000E+00  0.00000000000E+00  0.59651580339E+03  0.59651580339E+03  0.00000000000E+00 0. -1.
         21   -1    0    0  501  502 -0.00000000000E+00 -0.00000000000E+00 -0.87073197930E+02  0.87073197930E+02  0.00000000000E+00 0. -1.
      99926    2    1    2    0    0  0.00000000000E+00  0.14210854715E-13  0.50944260546E+03  0.68358900132E+03  0.45580934004E+03 0.  0.
      99925    2    3    3    0    0 -0.42495220436E+02 -0.82552453513E+02  0.41935272466E+03  0.50363221189E+03  0.26299799586E+03 0.  0.
         25    1    3    3    0    0  0.42495220436E+02  0.82552453513E+02  0.90089880795E+02  0.17995678943E+03  0.12509000000E+03 0.  0.
         25    1    4    4    0    0 -0.26272561907E+01 -0.40873259406E+01  0.17023266516E+03  0.21130612177E+03  0.12509000000E+03 0.  0.
         25    1    4    4    0    0 -0.39867964245E+02 -0.78465127572E+02  0.24912005950E+03  0.29232609012E+03  0.12509000000E+03 0.  0.
<mgrwt>
<rscale>  2 0.45580934E+03</rscale>
<asrwt>0</asrwt>
<pdfrwt beam="1">  1       21 0.87722910E-01 0.45580934E+03</pdfrwt>
<pdfrwt beam="2">  1       21 0.12804882E-01 0.45580934E+03</pdfrwt>
<totfact> 0.53461847E+04</totfact>
</mgrwt>
</event>
<event>
 7    0  0.5202275E-002  0.4198937E+03  0.7546771E-02  0.1037101E+00
         21   -1    0    0  502  501  0.00000000000E+00  0.00000000000E+00  0.76604017564E+02  0.76604017564E+02  0.00000000000E+00 0. -1.
         21   -1    0    0  501  502 -0.00000000000E+00 -0.00000000000E+00 -0.57539632599E+03  0.57539632599E+03  0.00000000000E+00 0. -1.
      99926    2    1    2    0    0  0.17763568394E-14  0.00000000000E+00 -0.49879230842E+03  0.65200034355E+03  0.41989365445E+03 0.  0.
      99925    2    3    3    0    0 -0.10362936638E+02  0.67830608924E+02 -0.27493525535E+03  0.38654249328E+03  0.26290173546E+03 0.  0.
         25    1    3    3    0    0  0.10362936638E+02 -0.67830608924E+02 -0.22385705307E+03  0.26545785027E+03  0.12509000000E+03 0.  0.
         25    1    4    4    0    0  0.13504827651E+02  0.68558737857E+02 -0.12834005640E+03  0.19235737335E+03  0.12509000000E+03 0.  0.
         25    1    4    4    0    0 -0.23867764289E+02 -0.72812893331E+00 -0.14659519895E+03  0.19418511992E+03  0.12509000000E+03 0.  0.
<mgrwt>
<rscale>  2 0.41989365E+03</rscale>
<asrwt>0</asrwt>
<pdfrwt beam="1">  1       21 0.11265297E-01 0.41989365E+03</pdfrwt>
<pdfrwt beam="2">  1       21 0.84617105E-01 0.41989365E+03</pdfrwt>
<totfact> 0.74045244E+04</totfact>
</mgrwt>
</event>
<event>
 7    0  0.4750554E-002  0.4575520E+03  0.7546771E-02  0.1025494E+00
         21   -1    0    0  502  501  0.00000000000E+00  0.00000000000E+00  0.17705134556E+03  0.17705134556E+03  0.00000000000E+00 0. -1.
         21   -1    0    0  501  502 -0.00000000000E+00 -0.00000000000E+00 -0.29561168863E+03  0.29561168863E+03  0.00000000000E+00 0. -1.
      99926    2    1    2    0    0 -0.71054273576E-14  0.71054273576E-14 -0.11856034306E+03  0.47266303419E+03  0.45755195218E+03 0.  0.
      99925    2    3    3    0    0  0.58709301492E+02 -0.50286482866E+02 -0.16320498933E+03  0.31898751571E+03  0.26294800664E+03 0.  0.
         25    1    4    4    0    0 -0.73973899510E+01 -0.20300013999E+02 -0.97861705260E+02  0.16028485082E+03  0.12509000000E+03 0.  0.
         25    1    3    3    0    0 -0.58709301492E+02  0.50286482866E+02  0.44644646263E+02  0.15367551848E+03  0.12509000000E+03 0.  0.
         25    1    4    4    0    0  0.66106691443E+02 -0.29986468867E+02 -0.65343284066E+02  0.15870266488E+03  0.12509000000E+03 0.  0.
<mgrwt>
<rscale>  2 0.45755195E+03</rscale>
<asrwt>0</asrwt>
<pdfrwt beam="1">  1       21 0.26036963E-01 0.45755195E+03</pdfrwt>
<pdfrwt beam="2">  1       21 0.43472307E-01 0.45755195E+03</pdfrwt>
<totfact> 0.65893978E+04</totfact>
</mgrwt>
</event>
<event>
 7    0  0.4750554E-002  0.4513559E+03  0.7546771E-02  0.1027318E+00
         21   -1    0    0  502  501  0.00000000000E+00  0.00000000000E+00  0.13752449304E+04  0.13752449304E+04  0.00000000000E+00 0. -1.
         21   -1    0    0  501  502 -0.00000000000E+00 -0.00000000000E+00 -0.37033793190E+02  0.37033793190E+02  0.00000000000E+00 0. -1.
      99926    2    1    2    0    0 -0.35527136788E-14  0.00000000000E+00  0.13382111372E+04  0.14122787236E+04  0.45135589656E+03 0.  0.
      99925    2    3    3    0    0  0.31604146636E+02  0.74752528168E+02  0.10758963585E+04  0.11105448776E+04  0.26300225953E+03 0.  0.
         25    1    4    4    0    0  0.39456453411E+02  0.72531257596E+02  0.58667245809E+03  0.60551604126E+03  0.12509000000E+03 0.  0.
         25    1    4    4    0    0 -0.78523067752E+01  0.22212705721E+01  0.48922390039E+03  0.50502883638E+03  0.12509000000E+03 0.  0.
         25    1    3    3    0    0 -0.31604146636E+02 -0.74752528168E+02  0.26231477877E+03  0.30173384599E+03  0.12509000000E+03 0.  0.
<mgrwt>
<rscale>  2 0.45135590E+03</rscale>
<asrwt>0</asrwt>
<pdfrwt beam="1">  1       21 0.20224187E+00 0.45135590E+03</pdfrwt>
<pdfrwt beam="2">  1       21 0.54461470E-02 0.45135590E+03</pdfrwt>
<totfact> 0.26756329E+04</totfact>
</mgrwt>
</event>
<event>
 7    0  0.4750554E-002  0.4519986E+03  0.7546771E-02  0.1027128E+00
         21   -1    0    0  502  501  0.00000000000E+00  0.00000000000E+00  0.67084576939E+02  0.67084576939E+02  0.00000000000E+00 0. -1.
         21   -1    0    0  501  502 -0.00000000000E+00 -0.00000000000E+00 -0.76136253632E+03  0.76136253632E+03  0.00000000000E+00 0. -1.
      99926    2    1    2    0    0  0.00000000000E+00  0.00000000000E+00 -0.69427795938E+03  0.82844711326E+03  0.45199860020E+03 0.  0.
      99925    2    3    3    0    0 -0.94559607196E+02  0.36964698516E+02 -0.36487754026E+03  0.46175916355E+03  0.26415525261E+03 0.  0.
         25    1    4    4    0    0 -0.11912558585E+02  0.38175959176E+02 -0.19599507038E+03  0.23592559977E+03  0.12509000000E+03 0.  0.
         25    1    3    3    0    0  0.94559607196E+02 -0.36964698516E+02 -0.32940041912E+03  0.36668794971E+03  0.12509000000E+03 0.  0.
         25    1    4    4    0    0 -0.82647048610E+02 -0.12112606605E+01 -0.16888246988E+03  0.22583356378E+03  0.12509000000E+03 0.  0.
<mgrwt>
<rscale>  2 0.45199860E+03</rscale>
<asrwt>0</asrwt>
<pdfrwt beam="1">  1       21 0.98653792E-02 0.45199860E+03</pdfrwt>
<pdfrwt beam="2">  1       21 0.11196508E+00 0.45199860E+03</pdfrwt>
<totfact> 0.47528870E+04</totfact>
</mgrwt>
</event>
<event>
 7    0  0.4750554E-002  0.4543971E+03  0.7546771E-02  0.1026419E+00
         21   -1    0    0  502  501  0.00000000000E+00  0.00000000000E+00  0.13543758257E+04  0.13543758257E+04  0.00000000000E+00 0.  1.
         21   -1    0    0  501  502 -0.00000000000E+00 -0.00000000000E+00 -0.38112893681E+02  0.38112893681E+02  0.00000000000E+00 0.  1.
      99926    2    1    2    0    0  0.14210854715E-13  0.00000000000E+00  0.13162629320E+04  0.13924887194E+04  0.45439710320E+03 0.  0.
      99925    2    3    3    0    0 -0.73694470065E+02  0.68292690928E+02  0.98396386910E+03  0.10234833781E+04  0.26313221595E+03 0.  0.
         25    1    3    3    0    0  0.73694470065E+02 -0.68292690928E+02  0.33229906292E+03  0.36900534125E+03  0.12509000000E+03 0.  0.
         25    1    4    4    0    0 -0.54955903165E+02  0.48403428960E+02  0.64638632213E+03  0.66243930194E+03  0.12509000000E+03 0.  0.
         25    1    4    4    0    0 -0.18738566900E+02  0.19889261967E+02  0.33757754697E+03  0.36104407619E+03  0.12509000000E+03 0.  0.
<mgrwt>
<rscale>  2 0.45439710E+03</rscale>
<asrwt>0</asrwt>
<pdfrwt beam="1">  1       21 0.19917288E+00 0.45439710E+03</pdfrwt>
<pdfrwt beam="2">  1       21 0.56048382E-02 0.45439710E+03</pdfrwt>
<totfact> 0.26657538E+04</totfact>
</mgrwt>
</event>
<event>
 6    0  0.4750554E-002  0.4515834E+03  0.7546771E-02  0.1027251E+00
         21   -1    0    0  502  501  0.00000000000E+00  0.00000000000E+00  0.11307020810E+03  0.11307020810E+03  0.00000000000E+00 0. -1.
         21   -1    0    0  501  502 -0.00000000000E+00 -0.00000000000E+00 -0.45088695472E+03  0.45088695472E+03  0.00000000000E+00 0. -1.
      99926    2    1    2    0    0  0.00000000000E+00  0.00000000000E+00 -0.33781674662E+03  0.56395716282E+03  0.45158335576E+03 0.  0.
         25    1    3    3    0    0  0.24544937139E+02  0.99972850916E+00 -0.94230712534E+02  0.15852567199E+03  0.12509000000E+03 0.  0.
         25    1    3    3    0    0 -0.35449964788E+02 -0.54485509057E+01 -0.24761160373E+03  0.27972379433E+03  0.12509000000E+03 0.  0.
         25    1    3    3    0    0  0.10905027649E+02  0.44488223965E+01  0.40255696416E+01  0.12570769650E+03  0.12509000000E+03 0.  0.
<mgrwt>
<rscale>  2 0.45158336E+03</rscale>
<asrwt>0</asrwt>
<pdfrwt beam="1">  1       21 0.16627972E-01 0.45158336E+03</pdfrwt>
<pdfrwt beam="2">  1       21 0.66306904E-01 0.45158336E+03</pdfrwt>
<totfact> 0.62628819E+04</totfact>
</mgrwt>
</event>
<event>
 7    0  0.4750554E-002  0.4582338E+03  0.7546771E-02  0.1025295E+00
         21   -1    0    0  502  501  0.00000000000E+00  0.00000000000E+00  0.25322951190E+03  0.25322951190E+03  0.00000000000E+00 0.  1.
         21   -1    0    0  501  502 -0.00000000000E+00 -0.00000000000E+00 -0.20730030044E+03  0.20730030044E+03  0.00000000000E+00 0.  1.
      99926    2    1    2    0    0 -0.35527136788E-14 -0.14210854715E-13  0.45929211463E+02  0.46052981235E+03  0.45823380014E+03 0.  0.
      99925    2    3    3    0    0  0.22620617402E+02  0.41066964064E+02  0.13564870509E+03  0.29960969706E+03  0.26299659980E+03 0.  0.
         25    1    3    3    0    0 -0.22620617402E+02 -0.41066964064E+02 -0.89719493623E+02  0.16092011529E+03  0.12509000000E+03 0.  0.
         25    1    4    4    0    0  0.26083845098E+02  0.54377973447E+02  0.91234064252E+02  0.16615803788E+03  0.12509000000E+03 0.  0.
         25    1    4    4    0    0 -0.34632276957E+01 -0.13311009383E+02  0.44414640834E+02  0.13345165918E+03  0.12509000000E+03 0.  0.
<mgrwt>
<rscale>  2 0.45823380E+03</rscale>
<asrwt>0</asrwt>
<pdfrwt beam="1">  1       21 0.37239634E-01 0.45823380E+03</pdfrwt>
<pdfrwt beam="2">  1       21 0.30485338E-01 0.45823380E+03</pdfrwt>
<totfact> 0.66412432E+04</totfact>
</mgrwt>
</event>
<event>
 7    0  0.4750554E-002  0.4475789E+03  0.7546771E-02  0.1028446E+00
         21   -1    0    0  502  501  0.00000000000E+00  0.00000000000E+00  0.22306617977E+03  0.22306617977E+03  0.00000000000E+00 0. -1.
         21   -1    0    0  501  502 -0.00000000000E+00 -0.00000000000E+00 -0.22451509708E+03  0.22451509708E+03  0.00000000000E+00 0. -1.
      99926    2    1    2    0    0  0.88817841970E-15  0.14210854715E-13 -0.14489173056E+01  0.44758127685E+03  0.44757893162E+03 0.  0.
      99925    2    3    3    0    0  0.49551242977E+01 -0.10067424756E+03  0.31933585114E+02  0.28350276837E+03  0.26304792042E+03 0.  0.
         25    1    3    3    0    0 -0.49551242977E+01  0.10067424756E+03 -0.33382502420E+02  0.16407850848E+03  0.12509000000E+03 0.  0.
         25    1    4    4    0    0  0.41066827358E+02 -0.62586934616E+02  0.10383272370E+02  0.14614694365E+03  0.12509000000E+03 0.  0.
         25    1    4    4    0    0 -0.36111703060E+02 -0.38087312941E+02  0.21550312744E+02  0.13735582472E+03  0.12509000000E+03 0.  0.
<mgrwt>
<rscale>  2 0.44757893E+03</rscale>
<asrwt>0</asrwt>
<pdfrwt beam="1">  1       21 0.32803850E-01 0.44757893E+03</pdfrwt>
<pdfrwt beam="2">  1       21 0.33016926E-01 0.44757893E+03</pdfrwt>
<totfact> 0.73340121E+04</totfact>
</mgrwt>
</event>
<event>
 7    0  0.4750554E-002  0.4506358E+03  0.7546771E-02  0.1027533E+00
         21   -1    0    0  502  501  0.00000000000E+00  0.00000000000E+00  0.85905145554E+03  0.85905145554E+03  0.00000000000E+00 0. -1.
         21   -1    0    0  501  502 -0.00000000000E+00 -0.00000000000E+00 -0.59097911494E+02  0.59097911494E+02  0.00000000000E+00 0. -1.
      99926    2    1    2    0    0  0.00000000000E+00  0.00000000000E+00  0.79995354404E+03  0.91814936703E+03  0.45063575929E+03 0.  0.
      99925    2    3    3    0    0  0.40494086833E+02  0.83819556810E+02  0.39030200902E+03  0.47982599620E+03  0.26311943906E+03 0.  0.
         25    1    4    4    0    0  0.13442669179E+02  0.77468354392E+02  0.24491612383E+03  0.28603053526E+03  0.12509000000E+03 0.  0.
         25    1    3    3    0    0 -0.40494086833E+02 -0.83819556810E+02  0.40965153502E+03  0.43832337083E+03  0.12509000000E+03 0.  0.
         25    1    4    4    0    0  0.27051417654E+02  0.63512024183E+01  0.14538588519E+03  0.19379546094E+03  0.12509000000E+03 0.  0.
<mgrwt>
<rscale>  2 0.45063576E+03</rscale>
<asrwt>0</asrwt>
<pdfrwt beam="1">  1       21 0.12633109E+00 0.45063576E+03</pdfrwt>
<pdfrwt beam="2">  1       21 0.86908699E-02 0.45063576E+03</pdfrwt>
<totfact> 0.43939243E+04</totfact>
</mgrwt>
</event>
<event>
 7    0  0.4750554E-002  0.4594673E+03  0.7546771E-02  0.1024936E+00
         21   -1    0    0  502  501  0.00000000000E+00  0.00000000000E+00  0.74670524422E+03  0.74670524422E+03  0.00000000000E+00 0. -1.
         21   -1    0    0  501  502 -0.00000000000E+00 -0.00000000000E+00 -0.70680571200E+02  0.70680571200E+02  0.00000000000E+00 0. -1.
      99926    2    1    2    0    0  0.71054273576E-14  0.14210854715E-13  0.67602467302E+03  0.81738581542E+03  0.45946731409E+03 0.  0.
      99925    2    3    3    0    0 -0.58072886404E+02 -0.73648311793E+02  0.54928975887E+03  0.61612533611E+03  0.26285862482E+03 0.  0.
         25    1    4    4    0    0 -0.47984121414E+02 -0.92199807529E+01  0.21790475933E+03  0.25596381813E+03  0.12509000000E+03 0.  0.
         25    1    3    3    0    0  0.58072886404E+02  0.73648311793E+02  0.12673491416E+03  0.20126047931E+03  0.12509000000E+03 0.  0.
         25    1    4    4    0    0 -0.10088764990E+02 -0.64428331040E+02  0.33138499953E+03  0.36016151798E+03  0.12509000000E+03 0.  0.
<mgrwt>
<rscale>  2 0.45946731E+03</rscale>
<asrwt>0</asrwt>
<pdfrwt beam="1">  1       21 0.10980959E+00 0.45946731E+03</pdfrwt>
<pdfrwt beam="2">  1       21 0.10394202E-01 0.45946731E+03</pdfrwt>
<totfact> 0.45325495E+04</totfact>
</mgrwt>
</event>
<event>
 7    0  0.4750554E-002  0.4554848E+03  0.7546771E-02  0.1026099E+00
         21   -1    0    0  502  501  0.00000000000E+00  0.00000000000E+00  0.36938847349E+03  0.36938847349E+03  0.00000000000E+00 0.  1.
         21   -1    0    0  501  502 -0.00000000000E+00 -0.00000000000E+00 -0.14041204495E+03  0.14041204495E+03  0.00000000000E+00 0.  1.
      99926    2    1    2    0    0  0.00000000000E+00 -0.88817841970E-15  0.22897642854E+03  0.50980051843E+03  0.45548475690E+03 0.  0.
      99925    2    3    3    0    0 -0.19478383513E+02 -0.56092640540E+01  0.18915115204E+02  0.26447596865E+03  0.26301879237E+03 0.  0.
         25    1    4    4    0    0  0.28159390895E+02 -0.87513808971E+01 -0.42848612158E+01  0.12859006999E+03  0.12509000000E+03 0.  0.
         25    1    4    4    0    0 -0.47637774408E+02  0.31421168431E+01  0.23199976420E+02  0.13588589866E+03  0.12509000000E+03 0.  0.
         25    1    3    3    0    0  0.19478383513E+02  0.56092640540E+01  0.21006131334E+03  0.24532454979E+03  0.12509000000E+03 0.  0.
<mgrwt>
<rscale>  2 0.45548476E+03</rscale>
<asrwt>0</asrwt>
<pdfrwt beam="1">  1       21 0.54321834E-01 0.45548476E+03</pdfrwt>
<pdfrwt beam="2">  1       21 0.20648830E-01 0.45548476E+03</pdfrwt>
<totfact> 0.64339599E+04</totfact>
</mgrwt>
</event>
<event>
 7    0  0.4750554E-002  0.4443710E+03  0.7546771E-02  0.1029414E+00
         21   -1    0    0  502  501  0.00000000000E+00  0.00000000000E+00  0.48786207811E+03  0.48786207811E+03  0.00000000000E+00 0. -1.
         21   -1    0    0  501  502 -0.00000000000E+00 -0.00000000000E+00 -0.10118922872E+03  0.10118922872E+03  0.00000000000E+00 0. -1.
      99926    2    1    2    0    0  0.00000000000E+00 -0.19428902931E-15  0.38667284939E+03  0.58905130683E+03  0.44437095947E+03 0.  0.
      99925    2    3    3    0    0 -0.74873805097E+02  0.15330492334E+00  0.33926638459E+03  0.43575097676E+03  0.26300403770E+03 0.  0.
         25    1    4    4    0    0 -0.97469721664E+01  0.12143900970E+02  0.20503231993E+03  0.24068285796E+03  0.12509000000E+03 0.  0.
         25    1    4    4    0    0 -0.65126832930E+02 -0.11990596046E+02  0.13423406466E+03  0.19506811881E+03  0.12509000000E+03 0.  0.
         25    1    3    3    0    0  0.74873805097E+02 -0.15330492334E+00  0.47406464802E+02  0.15330033006E+03  0.12509000000E+03 0.  0.
<mgrwt>
<rscale>  2 0.44437096E+03</rscale>
<asrwt>0</asrwt>
<pdfrwt beam="1">  1       21 0.71744422E-01 0.44437096E+03</pdfrwt>
<pdfrwt beam="2">  1       21 0.14880769E-01 0.44437096E+03</pdfrwt>
<totfact> 0.64616784E+04</totfact>
</mgrwt>
</event>
<event>
 7    0  0.4750554E-002  0.4600346E+03  0.7546771E-02  0.1024771E+00
         21   -1    0    0  502  501  0.00000000000E+00  0.00000000000E+00  0.37029105748E+03  0.37029105748E+03  0.00000000000E+00 0. -1.
         21   -1    0    0  501  502 -0.00000000000E+00 -0.00000000000E+00 -0.14288209409E+03  0.14288209409E+03  0.00000000000E+00 0. -1.
      99926    2    1    2    0    0  0.00000000000E+00  0.00000000000E+00  0.22740896339E+03  0.51317315157E+03  0.46003461485E+03 0.  0.
      99925    2    3    3    0    0  0.10013351435E+03  0.10958394973E+02  0.74673561463E+02  0.29153737328E+03  0.26319401992E+03 0.  0.
         25    1    4    4    0    0  0.22069730028E+02  0.35925954566E+01  0.22416137656E+01  0.12709253581E+03  0.12509000000E+03 0.  0.
         25    1    3    3    0    0 -0.10013351435E+03 -0.10958394973E+02  0.15273540193E+03  0.22163577829E+03  0.12509000000E+03 0.  0.
         25    1    4    4    0    0  0.78063784317E+02  0.73657995167E+01  0.72431947697E+02  0.16444483747E+03  0.12509000000E+03 0.  0.
<mgrwt>
<rscale>  2 0.46003461E+03</rscale>
<asrwt>0</asrwt>
<pdfrwt beam="1">  1       21 0.54454567E-01 0.46003461E+03</pdfrwt>
<pdfrwt beam="2">  1       21 0.21012073E-01 0.46003461E+03</pdfrwt>
<totfact> 0.61846452E+04</totfact>
</mgrwt>
</event>
<event>
 7    0  0.4750554E-002  0.4563758E+03  0.7546771E-02  0.1025838E+00
         21   -1    0    0  502  501  0.00000000000E+00  0.00000000000E+00  0.17465400523E+03  0.17465400523E+03  0.00000000000E+00 0.  1.
         21   -1    0    0  501  502 -0.00000000000E+00 -0.00000000000E+00 -0.29813067265E+03  0.29813067265E+03  0.00000000000E+00 0.  1.
      99926    2    1    2    0    0  0.00000000000E+00  0.00000000000E+00 -0.12347666742E+03  0.47278467788E+03  0.45637579279E+03 0.  0.
      99925    2    3    3    0    0 -0.33006217488E+02 -0.97419482240E+02 -0.12968827522E+03  0.31071661167E+03  0.26295588628E+03 0.  0.
         25    1    4    4    0    0 -0.11490585294E+02 -0.60208170160E+02 -0.23876497544E+02  0.14133171102E+03  0.12509000000E+03 0.  0.
         25    1    3    3    0    0  0.33006217488E+02  0.97419482240E+02  0.62116077992E+01  0.16206806621E+03  0.12509000000E+03 0.  0.
         25    1    4    4    0    0 -0.21515632194E+02 -0.37211312080E+02 -0.10581177767E+03  0.16938490065E+03  0.12509000000E+03 0.  0.
<mgrwt>
<rscale>  2 0.45637579E+03</rscale>
<asrwt>0</asrwt>
<pdfrwt beam="1">  1       21 0.25684412E-01 0.45637579E+03</pdfrwt>
<pdfrwt beam="2">  1       21 0.43842746E-01 0.45637579E+03</pdfrwt>
<totfact> 0.66500364E+04</totfact>
</mgrwt>
</event>
<event>
 7    0  0.4750554E-002  0.4511049E+03  0.7546771E-02  0.1027393E+00
         21   -1    0    0  502  501  0.00000000000E+00  0.00000000000E+00  0.22087595332E+03  0.22087595332E+03  0.00000000000E+00 0.  1.
         21   -1    0    0  501  502 -0.00000000000E+00 -0.00000000000E+00 -0.23032799449E+03  0.23032799449E+03  0.00000000000E+00 0.  1.
      99926    2    1    2    0    0  0.00000000000E+00  0.00000000000E+00 -0.94520411679E+01  0.45120394781E+03  0.45110493396E+03 0.  0.
      99925    2    3    3    0    0 -0.65670748275E+02  0.48816667416E+02 -0.78701679210E+02  0.28646556532E+03  0.26300732235E+03 0.  0.
         25    1    3    3    0    0  0.65670748275E+02 -0.48816667416E+02  0.69249638042E+02  0.16473838249E+03  0.12509000000E+03 0.  0.
         25    1    4    4    0    0 -0.71488360718E+02  0.39155193929E+02 -0.33777455466E+02  0.15307560069E+03  0.12509000000E+03 0.  0.
         25    1    4    4    0    0  0.58176124437E+01  0.96614734869E+01 -0.44924223744E+02  0.13338996463E+03  0.12509000000E+03 0.  0.
<mgrwt>
<rscale>  2 0.45110493E+03</rscale>
<asrwt>0</asrwt>
<pdfrwt beam="1">  1       21 0.32481758E-01 0.45110493E+03</pdfrwt>
<pdfrwt beam="2">  1       21 0.33871764E-01 0.45110493E+03</pdfrwt>
<totfact> 0.71006026E+04</totfact>
</mgrwt>
</event>
<event>
 7    0  0.4750554E-002  0.4361752E+03  0.7546771E-02  0.1031927E+00
         21   -1    0    0  502  501  0.00000000000E+00  0.00000000000E+00  0.48331018346E+03  0.48331018346E+03  0.00000000000E+00 0.  1.
         21   -1    0    0  501  502 -0.00000000000E+00 -0.00000000000E+00 -0.98409247253E+02  0.98409247253E+02  0.00000000000E+00 0.  1.
      99926    2    1    2    0    0  0.00000000000E+00  0.00000000000E+00  0.38490093621E+03  0.58171943072E+03  0.43617515447E+03 0.  0.
      99925    2    3    3    0    0  0.83320427217E+02 -0.16930075029E+02  0.19182204750E+03  0.33645246108E+03  0.26301262256E+03 0.  0.
         25    1    4    4    0    0  0.62125848190E+01 -0.66535014022E+00  0.11408947546E+03  0.16941946586E+03  0.12509000000E+03 0.  0.
         25    1    4    4    0    0  0.77107842398E+02 -0.16264724889E+02  0.77732572042E+02  0.16703299522E+03  0.12509000000E+03 0.  0.
         25    1    3    3    0    0 -0.83320427217E+02  0.16930075029E+02  0.19307888871E+03  0.24526696964E+03  0.12509000000E+03 0.  0.
<mgrwt>
<rscale>  2 0.43617515E+03</rscale>
<asrwt>0</asrwt>
<pdfrwt beam="1">  1       21 0.71075026E-01 0.43617515E+03</pdfrwt>
<pdfrwt beam="2">  1       21 0.14471948E-01 0.43617515E+03</pdfrwt>
<totfact> 0.69612683E+04</totfact>
</mgrwt>
</event>
<event>
 7    0  0.4750554E-002  0.4657483E+03  0.7546771E-02  0.1023127E+00
         21   -1    0    0  502  501  0.00000000000E+00  0.00000000000E+00  0.14518131096E+04  0.14518131096E+04  0.00000000000E+00 0.  1.
         21   -1    0    0  501  502 -0.00000000000E+00 -0.00000000000E+00 -0.37353552131E+02  0.37353552131E+02  0.00000000000E+00 0.  1.
      99926    2    1    2    0    0  0.35527136788E-14  0.00000000000E+00  0.14144595575E+04  0.14891666617E+04  0.46574832978E+03 0.  0.
      99925    2    3    3    0    0 -0.19905338119E+02 -0.49031677616E+02  0.12365933008E+04  0.12653715741E+04  0.26306254201E+03 0.  0.
         25    1    3    3    0    0  0.19905338119E+02  0.49031677616E+02  0.17786625667E+03  0.22379508765E+03  0.12509000000E+03 0.  0.
         25    1    4    4    0    0  0.20228500520E+02  0.30179056004E+01  0.61340401486E+03  0.62636274916E+03  0.12509000000E+03 0.  0.
         25    1    4    4    0    0 -0.40133838638E+02 -0.52049583216E+02  0.62318928592E+03  0.63900882491E+03  0.12509000000E+03 0.  0.
<mgrwt>
<rscale>  2 0.46574833E+03</rscale>
<asrwt>0</asrwt>
<pdfrwt beam="1">  1       21 0.21350189E+00 0.46574833E+03</pdfrwt>
<pdfrwt beam="2">  1       21 0.54931704E-02 0.46574833E+03</pdfrwt>
<totfact> 0.22139075E+04</totfact>
</mgrwt>
</event>
<event>
 7    0  0.4750554E-002  0.4515897E+03  0.7546771E-02  0.1027249E+00
         21   -1    0    0  502  501  0.00000000000E+00  0.00000000000E+00  0.62674473529E+03  0.62674473529E+03  0.00000000000E+00 0.  1.
         21   -1    0    0  501  502 -0.00000000000E+00 -0.00000000000E+00 -0.81346223356E+02  0.81346223356E+02  0.00000000000E+00 0.  1.
      99926    2    1    2    0    0 -0.14210854715E-13 -0.14210854715E-13  0.54539851193E+03  0.70809095864E+03  0.45158971301E+03 0.  0.
      99925    2    3    3    0    0 -0.68623401535E+02 -0.83622762940E+02  0.37326159368E+03  0.46938493768E+03  0.26324145700E+03 0.  0.
         25    1    3    3    0    0  0.68623401535E+02  0.83622762940E+02  0.17213691825E+03  0.23870602097E+03  0.12509000000E+03 0.  0.
         25    1    4    4    0    0 -0.67440497871E+02 -0.36545866661E+02  0.23523213389E+03  0.27724625522E+03  0.12509000000E+03 0.  0.
         25    1    4    4    0    0 -0.11829036647E+01 -0.47076896279E+02  0.13802945979E+03  0.19213868245E+03  0.12509000000E+03 0.  0.
<mgrwt>
<rscale>  2 0.45158971E+03</rscale>
<asrwt>0</asrwt>
<pdfrwt beam="1">  1       21 0.92168341E-01 0.45158971E+03</pdfrwt>
<pdfrwt beam="2">  1       21 0.11962680E-01 0.45158971E+03</pdfrwt>
<totfact> 0.53897572E+04</totfact>
</mgrwt>
</event>
<event>
 7    0  0.4750554E-002  0.4578773E+03  0.7546771E-02  0.1025399E+00
         21   -1    0    0  502  501  0.00000000000E+00  0.00000000000E+00  0.10461016645E+03  0.10461016645E+03  0.00000000000E+00 0.  1.
         21   -1    0    0  501  502 -0.00000000000E+00 -0.00000000000E+00 -0.50103067589E+03  0.50103067589E+03  0.00000000000E+00 0.  1.
      99926    2    1    2    0    0  0.00000000000E+00  0.17763568394E-14 -0.39642050944E+03  0.60564084234E+03  0.45787728663E+03 0.  0.
      99925    2    3    3    0    0  0.91134535214E+02 -0.10194951546E+02 -0.15537721631E+03  0.31900724730E+03  0.26308573495E+03 0.  0.
         25    1    4    4    0    0  0.50666110957E+02 -0.45589877386E+02 -0.78812922855E+02  0.16280195524E+03  0.12509000000E+03 0.  0.
         25    1    4    4    0    0  0.40468424257E+02  0.35394925839E+02 -0.76564293459E+02  0.15620529207E+03  0.12509000000E+03 0.  0.
         25    1    3    3    0    0 -0.91134535214E+02  0.10194951546E+02 -0.24104329313E+03  0.28663359504E+03  0.12509000000E+03 0.  0.
<mgrwt>
<rscale>  2 0.45787729E+03</rscale>
<asrwt>0</asrwt>
<pdfrwt beam="1">  1       21 0.15383848E-01 0.45787729E+03</pdfrwt>
<pdfrwt beam="2">  1       21 0.73680980E-01 0.45787729E+03</pdfrwt>
<totfact> 0.57025077E+04</totfact>
</mgrwt>
</event>
<event>
 7    0  0.4750554E-002  0.4522577E+03  0.7546771E-02  0.1027051E+00
         21   -1    0    0  502  501  0.00000000000E+00  0.00000000000E+00  0.23893209032E+03  0.23893209032E+03  0.00000000000E+00 0.  1.
         21   -1    0    0  501  502 -0.00000000000E+00 -0.00000000000E+00 -0.21401166371E+03  0.21401166371E+03  0.00000000000E+00 0.  1.
      99926    2    1    2    0    0  0.00000000000E+00 -0.14210854715E-13  0.24920426612E+02  0.45294375403E+03  0.45225768833E+03 0.  0.
      99925    2    3    3    0    0 -0.73884953672E+02 -0.77732498417E+02 -0.11246499398E+02  0.28425207574E+03  0.26300462187E+03 0.  0.
         25    1    4    4    0    0 -0.42863219187E+02 -0.78784999480E+02 -0.19248265936E+02  0.15512039048E+03  0.12509000000E+03 0.  0.
         25    1    3    3    0    0  0.73884953672E+02  0.77732498417E+02  0.36166926010E+02  0.16869167830E+03  0.12509000000E+03 0.  0.
         25    1    4    4    0    0 -0.31021734485E+02  0.10525010625E+01  0.80017665376E+01  0.12913168525E+03  0.12509000000E+03 0.  0.
<mgrwt>
<rscale>  2 0.45225769E+03</rscale>
<asrwt>0</asrwt>
<pdfrwt beam="1">  1       21 0.35137072E-01 0.45225769E+03</pdfrwt>
<pdfrwt beam="2">  1       21 0.31472303E-01 0.45225769E+03</pdfrwt>
<totfact> 0.70220654E+04</totfact>
</mgrwt>
</event>
<event>
 7    0  0.4750554E-002  0.4397986E+03  0.7546771E-02  0.1030809E+00
         21   -1    0    0  502  501  0.00000000000E+00  0.00000000000E+00  0.57209889051E+03  0.57209889051E+03  0.00000000000E+00 0. -1.
         21   -1    0    0  501  502 -0.00000000000E+00 -0.00000000000E+00 -0.84523342234E+02  0.84523342234E+02  0.00000000000E+00 0. -1.
      99926    2    1    2    0    0  0.00000000000E+00  0.00000000000E+00  0.48757554827E+03  0.65662223274E+03  0.43979863717E+03 0.  0.
      99925    2    3    3    0    0  0.32435063927E+02  0.44971138905E+02  0.19011364532E+03  0.32919967928E+03  0.26297299100E+03 0.  0.
         25    1    3    3    0    0 -0.32435063927E+02 -0.44971138905E+02  0.29746190295E+03  0.32742255346E+03  0.12509000000E+03 0.  0.
         25    1    4    4    0    0  0.16859751638E+02  0.44796723470E+02  0.56078512094E+02  0.14520091349E+03  0.12509000000E+03 0.  0.
         25    1    4    4    0    0  0.15575312288E+02  0.17441543460E+00  0.13403513322E+03  0.18399876579E+03  0.12509000000E+03 0.  0.
<mgrwt>
<rscale>  2 0.43979864E+03</rscale>
<asrwt>0</asrwt>
<pdfrwt beam="1">  1       21 0.84132188E-01 0.43979864E+03</pdfrwt>
<pdfrwt beam="2">  1       21 0.12429904E-01 0.43979864E+03</pdfrwt>
<totfact> 0.62478117E+04</totfact>
</mgrwt>
</event>
<event>
 7    0  0.4750554E-002  0.4503706E+03  0.7546771E-02  0.1027612E+00
         21   -1    0    0  502  501  0.00000000000E+00  0.00000000000E+00  0.16200190869E+03  0.16200190869E+03  0.00000000000E+00 0. -1.
         21   -1    0    0  501  502 -0.00000000000E+00 -0.00000000000E+00 -0.31301130959E+03  0.31301130959E+03  0.00000000000E+00 0. -1.
      99926    2    1    2    0    0  0.00000000000E+00  0.00000000000E+00 -0.15100940090E+03  0.47501321828E+03  0.45037064556E+03 0.  0.
      99925    2    3    3    0    0  0.63045179469E+02  0.32956701024E+02 -0.18225408908E+03  0.32775637656E+03  0.26295788749E+03 0.  0.
         25    1    3    3    0    0 -0.63045179469E+02 -0.32956701024E+02  0.31244688178E+02  0.14725684173E+03  0.12509000000E+03 0.  0.
         25    1    4    4    0    0  0.48476992616E+02  0.10260037071E+02 -0.49483592918E+02  0.14335766893E+03  0.12509000000E+03 0.  0.
         25    1    4    4    0    0  0.14568186853E+02  0.22696663953E+02 -0.13277049616E+03  0.18439870762E+03  0.12509000000E+03 0.  0.
<mgrwt>
<rscale>  2 0.45037065E+03</rscale>
<asrwt>0</asrwt>
<pdfrwt beam="1">  1       21 0.23823810E-01 0.45037065E+03</pdfrwt>
<pdfrwt beam="2">  1       21 0.46031075E-01 0.45037065E+03</pdfrwt>
<totfact> 0.69586762E+04</totfact>
</mgrwt>
</event>
<event>
 7    0  0.4750554E-002  0.4534610E+03  0.7546771E-02  0.1026695E+00
         21   -1    0    0  502  501  0.00000000000E+00  0.00000000000E+00  0.43667736247E+03  0.43667736247E+03  0.00000000000E+00 0.  1.
         21   -1    0    0  501  502 -0.00000000000E+00 -0.00000000000E+00 -0.11772242180E+03  0.11772242180E+03  0.00000000000E+00 0.  1.
      99926    2    1    2    0    0 -0.17763568394E-14  0.14210854715E-13  0.31895494066E+03  0.55439978427E+03  0.45346098688E+03 0.  0.
      99925    2    3    3    0    0  0.12311068213E+02  0.97348070384E+02  0.13690731740E+03  0.31270358148E+03  0.26346101629E+03 0.  0.
         25    1    3    3    0    0 -0.12311068213E+02 -0.97348070384E+02  0.18204762327E+03  0.24169620279E+03  0.12509000000E+03 0.  0.
         25    1    4    4    0    0 -0.28631539434E+02  0.52201475945E+02  0.92749395668E+02  0.16671747850E+03  0.12509000000E+03 0.  0.
         25    1    4    4    0    0  0.40942607647E+02  0.45146594439E+02  0.44157921730E+02  0.14598610297E+03  0.12509000000E+03 0.  0.
<mgrwt>
<rscale>  2 0.45346099E+03</rscale>
<asrwt>0</asrwt>
<pdfrwt beam="1">  1       21 0.64217259E-01 0.45346099E+03</pdfrwt>
<pdfrwt beam="2">  1       21 0.17312121E-01 0.45346099E+03</pdfrwt>
<totfact> 0.62332146E+04</totfact>
</mgrwt>
</event>
<event>
 7    0  0.4750554E-002  0.4627483E+03  0.7546771E-02  0.1023987E+00
         21   -1    0    0  502  501  0.00000000000E+00  0.00000000000E+00  0.67255372425E+02  0.67255372425E+02  0.00000000000E+00 0. -1.
         21   -1    0    0  501  502 -0.00000000000E+00 -0.00000000000E+00 -0.79598081533E+03  0.79598081533E+03  0.00000000000E+00 0. -1.
      99926    2    1    2    0    0  0.00000000000E+00  0.00000000000E+00 -0.72872544290E+03  0.86323618775E+03  0.46274825198E+03 0.  0.
      99925    2    3    3    0    0 -0.82174345098E+02  0.64748563387E+02 -0.34463862071E+03  0.44596505943E+03  0.26299060039E+03 0.  0.
         25    1    3    3    0    0  0.82174345098E+02 -0.64748563387E+02 -0.38408682219E+03  0.41727112833E+03  0.12509000000E+03 0.  0.
         25    1    4    4    0    0 -0.69014240838E+02  0.32364730306E+02 -0.13415695345E+03  0.19863543859E+03  0.12509000000E+03 0.  0.
         25    1    4    4    0    0 -0.13160104260E+02  0.32383833082E+02 -0.21048166726E+03  0.24732962083E+03  0.12509000000E+03 0.  0.
<mgrwt>
<rscale>  2 0.46274825E+03</rscale>
<asrwt>0</asrwt>
<pdfrwt beam="1">  1       21 0.98904960E-02 0.46274825E+03</pdfrwt>
<pdfrwt beam="2">  1       21 0.11705600E+00 0.46274825E+03</pdfrwt>
<totfact> 0.42227526E+04</totfact>
</mgrwt>
</event>
<event>
 7    0  0.4750554E-002  0.4607330E+03  0.7546771E-02  0.1024569E+00
         21   -1    0    0  502  501  0.00000000000E+00  0.00000000000E+00  0.11369414780E+04  0.11369414780E+04  0.00000000000E+00 0. -1.
         21   -1    0    0  501  502 -0.00000000000E+00 -0.00000000000E+00 -0.46676743569E+02  0.46676743569E+02  0.00000000000E+00 0. -1.
      99926    2    1    2    0    0  0.00000000000E+00  0.00000000000E+00  0.10902647344E+04  0.11836182215E+04  0.46073300650E+03 0.  0.
      99925    2    3    3    0    0  0.10310398014E+03 -0.40600863774E+02  0.79038265151E+03  0.84031713998E+03  0.26296254311E+03 0.  0.
         25    1    4    4    0    0  0.87460719806E+02 -0.48850565719E+01  0.38049214363E+03  0.40999392770E+03  0.12509000000E+03 0.  0.
         25    1    3    3    0    0 -0.10310398014E+03  0.40600863774E+02  0.29988208288E+03  0.34330108155E+03  0.12509000000E+03 0.  0.
         25    1    4    4    0    0  0.15643260332E+02 -0.35715807202E+02  0.40989050787E+03  0.43032321227E+03  0.12509000000E+03 0.  0.
<mgrwt>
<rscale>  2 0.46073301E+03</rscale>
<asrwt>0</asrwt>
<pdfrwt beam="1">  1       21 0.16719726E+00 0.46073301E+03</pdfrwt>
<pdfrwt beam="2">  1       21 0.68642277E-02 0.46073301E+03</pdfrwt>
<totfact> 0.31259731E+04</totfact>
</mgrwt>
</event>
<event>
 7    0  0.4750554E-002  0.4493252E+03  0.7546771E-02  0.1027923E+00
         21   -1    0    0  502  501  0.00000000000E+00  0.00000000000E+00  0.90021506566E+03  0.90021506566E+03  0.00000000000E+00 0.  1.
         21   -1    0    0  501  502 -0.00000000000E+00 -0.00000000000E+00 -0.56068021008E+02  0.56068021008E+02  0.00000000000E+00 0.  1.
      99926    2    1    2    0    0  0.00000000000E+00  0.00000000000E+00  0.84414704465E+03  0.95628308666E+03  0.44932517051E+03 0.  0.
      99925    2    3    3    0    0  0.78644045871E+02 -0.51140551757E+02  0.42120361242E+03  0.50536303062E+03  0.26301913924E+03 0.  0.
         25    1    4    4    0    0  0.35520292346E+02 -0.45231682915E+02  0.27846905679E+03  0.31064468448E+03  0.12509000000E+03 0.  0.
         25    1    3    3    0    0 -0.78644045871E+02  0.51140551757E+02  0.42294343222E+03  0.45092005605E+03  0.12509000000E+03 0.  0.
         25    1    4    4    0    0  0.43123753526E+02 -0.59088688420E+01  0.14273455564E+03  0.19471834614E+03  0.12509000000E+03 0.  0.
<mgrwt>
<rscale>  2 0.44932517E+03</rscale>
<asrwt>0</asrwt>
<pdfrwt beam="1">  1       21 0.13238456E+00 0.44932517E+03</pdfrwt>
<pdfrwt beam="2">  1       21 0.82452978E-02 0.44932517E+03</pdfrwt>
<totfact> 0.42753216E+04</totfact>
</mgrwt>
</event>
<event>
 7    0  0.4750554E-002  0.4530445E+03  0.7546771E-02  0.1026818E+00
         21   -1    0    0  502  501  0.00000000000E+00  0.00000000000E+00  0.45165450577E+03  0.45165450577E+03  0.00000000000E+00 0.  1.
         21   -1    0    0  501  502 -0.00000000000E+00 -0.00000000000E+00 -0.11360967775E+03  0.11360967775E+03  0.00000000000E+00 0.  1.
      99926    2    1    2    0    0 -0.13877787808E-15  0.00000000000E+00  0.33804482801E+03  0.56526418352E+03  0.45304446959E+03 0.  0.
      99925    2    3    3    0    0 -0.16221103561E+00  0.10971407103E+03  0.23722727609E+03  0.37071627021E+03  0.26290030199E+03 0.  0.
         25    1    3    3    0    0  0.16221103561E+00 -0.10971407103E+03  0.10081755193E+03  0.19454791331E+03  0.12509000000E+03 0.  0.
         25    1    4    4    0    0 -0.39370908484E+02  0.47498883269E+02  0.12467656302E+03  0.18707743266E+03  0.12509000000E+03 0.  0.
         25    1    4    4    0    0  0.39208697448E+02  0.62215187763E+02  0.11255071307E+03  0.18363883755E+03  0.12509000000E+03 0.  0.
<mgrwt>
<rscale>  2 0.45304447E+03</rscale>
<asrwt>0</asrwt>
<pdfrwt beam="1">  1       21 0.66419779E-01 0.45304447E+03</pdfrwt>
<pdfrwt beam="2">  1       21 0.16707306E-01 0.45304447E+03</pdfrwt>
<totfact> 0.61819528E+04</totfact>
</mgrwt>
</event>
<event>
 7    0  0.4750554E-002  0.4550149E+03  0.7546771E-02  0.1026237E+00
         21   -1    0    0  502  501  0.00000000000E+00  0.00000000000E+00  0.11687039692E+04  0.11687039692E+04  0.00000000000E+00 0.  1.
         21   -1    0    0  501  502 -0.00000000000E+00 -0.00000000000E+00 -0.44288063595E+02  0.44288063595E+02  0.00000000000E+00 0.  1.
      99926    2    1    2    0    0 -0.71054273576E-14  0.71054273576E-14  0.11244159057E+04  0.12129920328E+04  0.45501488201E+03 0.  0.
      99925    2    3    3    0    0 -0.42382470326E+02 -0.56868584074E+02  0.94277565360E+03  0.98132201124E+03  0.26293848533E+03 0.  0.
         25    1    4    4    0    0  0.18653416234E+02 -0.27439041240E+02  0.41518195216E+03  0.43488436672E+03  0.12509000000E+03 0.  0.
         25    1    4    4    0    0 -0.61035886559E+02 -0.29429542833E+02  0.52759370144E+03  0.54643764451E+03  0.12509000000E+03 0.  0.
         25    1    3    3    0    0  0.42382470326E+02  0.56868584074E+02  0.18164025205E+03  0.23167002160E+03  0.12509000000E+03 0.  0.
<mgrwt>
<rscale>  2 0.45501488E+03</rscale>
<asrwt>0</asrwt>
<pdfrwt beam="1">  1       21 0.17186821E+00 0.45501488E+03</pdfrwt>
<pdfrwt beam="2">  1       21 0.65129513E-02 0.45501488E+03</pdfrwt>
<totfact> 0.31743190E+04</totfact>
</mgrwt>
</event>
<event>
 7    0  0.4750554E-002  0.4357868E+03  0.7546771E-02  0.1032047E+00
         21   -1    0    0  502  501  0.00000000000E+00  0.00000000000E+00  0.10199468355E+04  0.10199468355E+04  0.00000000000E+00 0.  1.
         21   -1    0    0  501  502 -0.00000000000E+00 -0.00000000000E+00 -0.46549031096E+02  0.46549031096E+02  0.00000000000E+00 0.  1.
      99926    2    1    2    0    0  0.00000000000E+00  0.00000000000E+00  0.97339780444E+03  0.10664958666E+04  0.43578681469E+03 0.  0.
      99925    2    3    3    0    0  0.65248872461E+02 -0.54194499230E+02  0.52474982858E+03  0.59307536280E+03  0.26302384733E+03 0.  0.
         25    1    4    4    0    0  0.67321722080E+02 -0.20108177959E+02  0.32042727446E+03  0.35108075909E+03  0.12509000000E+03 0.  0.
         25    1    4    4    0    0 -0.20728496186E+01 -0.34086321271E+02  0.20432255412E+03  0.24199460371E+03  0.12509000000E+03 0.  0.
         25    1    3    3    0    0 -0.65248872461E+02  0.54194499230E+02  0.44864797586E+03  0.47342050383E+03  0.12509000000E+03 0.  0.
<mgrwt>
<rscale>  2 0.43578681E+03</rscale>
<asrwt>0</asrwt>
<pdfrwt beam="1">  1       21 0.14999217E+00 0.43578681E+03</pdfrwt>
<pdfrwt beam="2">  1       21 0.68454464E-02 0.43578681E+03</pdfrwt>
<totfact> 0.42734702E+04</totfact>
</mgrwt>
</event>
<event>
 7    0  0.4750554E-002  0.4504015E+03  0.7546771E-02  0.1027602E+00
         21   -1    0    0  502  501  0.00000000000E+00  0.00000000000E+00  0.10162524571E+03  0.10162524571E+03  0.00000000000E+00 0.  1.
         21   -1    0    0  501  502 -0.00000000000E+00 -0.00000000000E+00 -0.49904309007E+03  0.49904309007E+03  0.00000000000E+00 0.  1.
      99926    2    1    2    0    0  0.00000000000E+00  0.00000000000E+00 -0.39741784437E+03  0.60066833578E+03  0.45040149487E+03 0.  0.
      99925    2    3    3    0    0 -0.44203853876E+01 -0.86086981050E+02 -0.33981579875E+03  0.43819984076E+03  0.26289506509E+03 0.  0.
         25    1    4    4    0    0 -0.10297205861E+02 -0.79658541281E+02 -0.15410696596E+03  0.21412141580E+03  0.12509000000E+03 0.  0.
         25    1    4    4    0    0  0.58768204736E+01 -0.64284397691E+01 -0.18570883279E+03  0.22407842496E+03  0.12509000000E+03 0.  0.
         25    1    3    3    0    0  0.44203853876E+01  0.86086981050E+02 -0.57602045619E+02  0.16246849502E+03  0.12509000000E+03 0.  0.
<mgrwt>
<rscale>  2 0.45040149E+03</rscale>
<asrwt>0</asrwt>
<pdfrwt beam="1">  1       21 0.14944889E-01 0.45040149E+03</pdfrwt>
<pdfrwt beam="2">  1       21 0.73388691E-01 0.45040149E+03</pdfrwt>
<totfact> 0.60816836E+04</totfact>
</mgrwt>
</event>
<event>
 7    0  0.4750554E-002  0.4850936E+03  0.7546771E-02  0.1017745E+00
         21   -1    0    0  502  501  0.00000000000E+00  0.00000000000E+00  0.56533204191E+03  0.56533204191E+03  0.00000000000E+00 0.  1.
         21   -1    0    0  501  502 -0.00000000000E+00 -0.00000000000E+00 -0.10406087502E+03  0.10406087502E+03  0.00000000000E+00 0.  1.
      99926    2    1    2    0    0  0.14210854715E-13  0.00000000000E+00  0.46127116689E+03  0.66939291693E+03  0.48509358667E+03 0.  0.
      99925    2    3    3    0    0  0.11531893719E+03  0.72546642936E+02  0.32463623724E+03  0.43944056365E+03  0.26297880101E+03 0.  0.
         25    1    3    3    0    0 -0.11531893719E+03 -0.72546642936E+02  0.13663492965E+03  0.22995235328E+03  0.12509000000E+03 0.  0.
         25    1    4    4    0    0  0.57876207658E+02 -0.38591207350E+01  0.16830868845E+03  0.21757727578E+03  0.12509000000E+03 0.  0.
         25    1    4    4    0    0  0.57442729532E+02  0.76405763671E+02  0.15632754879E+03  0.22186328788E+03  0.12509000000E+03 0.  0.
<mgrwt>
<rscale>  2 0.48509359E+03</rscale>
<asrwt>0</asrwt>
<pdfrwt beam="1">  1       21 0.83137064E-01 0.48509359E+03</pdfrwt>
<pdfrwt beam="2">  1       21 0.15303070E-01 0.48509359E+03</pdfrwt>
<totfact> 0.43355448E+04</totfact>
</mgrwt>
</event>
<event>
 7    0  0.4750554E-002  0.4477794E+03  0.7546771E-02  0.1028386E+00
         21   -1    0    0  502  501  0.00000000000E+00  0.00000000000E+00  0.59960245897E+03  0.59960245897E+03  0.00000000000E+00 0.  1.
         21   -1    0    0  501  502 -0.00000000000E+00 -0.00000000000E+00 -0.83599702191E+02  0.83599702191E+02  0.00000000000E+00 0.  1.
      99926    2    1    2    0    0  0.14210854715E-13  0.00000000000E+00  0.51600275678E+03  0.68320216116E+03  0.44777935193E+03 0.  0.
      99925    2    3    3    0    0 -0.68432490981E+02 -0.43982951900E+02  0.22173231921E+03  0.35326261457E+03  0.26270087093E+03 0.  0.
         25    1    4    4    0    0 -0.63673955542E+02 -0.28605068239E+02  0.82116610703E+02  0.16511592412E+03  0.12509000000E+03 0.  0.
         25    1    3    3    0    0  0.68432490981E+02  0.43982951900E+02  0.29427043757E+03  0.32993954659E+03  0.12509000000E+03 0.  0.
         25    1    4    4    0    0 -0.47585354393E+01 -0.15377883660E+02  0.13961570851E+03  0.18814669045E+03  0.12509000000E+03 0.  0.
<mgrwt>
<rscale>  2 0.44777935E+03</rscale>
<asrwt>0</asrwt>
<pdfrwt beam="1">  1       21 0.88176830E-01 0.44777935E+03</pdfrwt>
<pdfrwt beam="2">  1       21 0.12294074E-01 0.44777935E+03</pdfrwt>
<totfact> 0.56996599E+04</totfact>
</mgrwt>
</event>
<event>
 7    0  0.4750554E-002  0.4737034E+03  0.7546771E-02  0.1020880E+00
         21   -1    0    0  502  501  0.00000000000E+00  0.00000000000E+00  0.87725625154E+02  0.87725625154E+02  0.00000000000E+00 0. -1.
         21   -1    0    0  501  502 -0.00000000000E+00 -0.00000000000E+00 -0.63947946006E+03  0.63947946006E+03  0.00000000000E+00 0. -1.
      99926    2    1    2    0    0  0.00000000000E+00  0.00000000000E+00 -0.55175383490E+03  0.72720508521E+03  0.47370343215E+03 0.  0.
      99925    2    3    3    0    0 -0.87789370442E+02 -0.89764181027E+02 -0.29024036638E+03  0.41129151463E+03  0.26297653502E+03 0.  0.
         25    1    4    4    0    0 -0.36897336819E+02 -0.78790937930E+02 -0.12147580848E+03  0.19486740495E+03  0.12509000000E+03 0.  0.
         25    1    4    4    0    0 -0.50892033622E+02 -0.10973243097E+02 -0.16876455789E+03  0.21642410968E+03  0.12509000000E+03 0.  0.
         25    1    3    3    0    0  0.87789370442E+02  0.89764181027E+02 -0.26151346853E+03  0.31591357058E+03  0.12509000000E+03 0.  0.
<mgrwt>
<rscale>  2 0.47370343E+03</rscale>
<asrwt>0</asrwt>
<pdfrwt beam="1">  1       21 0.12900827E-01 0.47370343E+03</pdfrwt>
<pdfrwt beam="2">  1       21 0.94041099E-01 0.47370343E+03</pdfrwt>
<totfact> 0.44530064E+04</totfact>
</mgrwt>
</event>
<event>
 7    0  0.4750554E-002  0.4510716E+03  0.7546771E-02  0.1027403E+00
         21   -1    0    0  502  501  0.00000000000E+00  0.00000000000E+00  0.19314856955E+03  0.19314856955E+03  0.00000000000E+00 0.  1.
         21   -1    0    0  501  502 -0.00000000000E+00 -0.00000000000E+00 -0.26335369183E+03  0.26335369183E+03  0.00000000000E+00 0.  1.
      99926    2    1    2    0    0  0.00000000000E+00  0.00000000000E+00 -0.70205122277E+02  0.45650226139E+03  0.45107156356E+03 0.  0.
      99925    2    3    3    0    0  0.59988590496E+02  0.52933832853E+02  0.31235675873E+02  0.27667355044E+03  0.26300563571E+03 0.  0.
         25    1    4    4    0    0  0.53727812723E+02  0.59401419406E+02  0.28412910124E+02  0.15122833084E+03  0.12509000000E+03 0.  0.
         25    1    3    3    0    0 -0.59988590496E+02 -0.52933832853E+02 -0.10144079815E+03  0.17982871094E+03  0.12509000000E+03 0.  0.
         25    1    4    4    0    0  0.62607777728E+01 -0.64675865526E+01  0.28227657493E+01  0.12544521960E+03  0.12509000000E+03 0.  0.
<mgrwt>
<rscale>  2 0.45107156E+03</rscale>
<asrwt>0</asrwt>
<pdfrwt beam="1">  1       21 0.28404201E-01 0.45107156E+03</pdfrwt>
<pdfrwt beam="2">  1       21 0.38728484E-01 0.45107156E+03</pdfrwt>
<totfact> 0.70622863E+04</totfact>
</mgrwt>
</event>
<event>
 7    0  0.4750554E-002  0.4549079E+03  0.7546771E-02  0.1026268E+00
         21   -1    0    0  502  501  0.00000000000E+00  0.00000000000E+00  0.30198390678E+02  0.30198390678E+02  0.00000000000E+00 0.  1.
         21   -1    0    0  501  502 -0.00000000000E+00 -0.00000000000E+00 -0.17131806648E+04  0.17131806648E+04  0.00000000000E+00 0.  1.
      99926    2    1    2    0    0  0.00000000000E+00 -0.14210854715E-13 -0.16829822741E+04  0.17433790555E+04  0.45490789845E+03 0.  0.
      99925    2    3    3    0    0  0.45552965616E+02  0.10289134813E+03 -0.11036549689E+04  0.11401134946E+04  0.26295016282E+03 0.  0.
         25    1    4    4    0    0  0.29995612511E+02  0.94623426703E+02 -0.61720779258E+03  0.63753140861E+03  0.12509000000E+03 0.  0.
         25    1    3    3    0    0 -0.45552965616E+02 -0.10289134813E+03 -0.57932730527E+03  0.60326556086E+03  0.12509000000E+03 0.  0.
         25    1    4    4    0    0  0.15557353105E+02  0.82679214261E+01 -0.48644717628E+03  0.50258208600E+03  0.12509000000E+03 0.  0.
<mgrwt>
<rscale>  2 0.45490790E+03</rscale>
<asrwt>0</asrwt>
<pdfrwt beam="1">  1       21 0.44409414E-02 0.45490790E+03</pdfrwt>
<pdfrwt beam="2">  1       21 0.25193824E+00 0.45490790E+03</pdfrwt>
<totfact> 0.18386390E+04</totfact>
</mgrwt>
</event>
<event>
 6    0  0.4750554E-002  0.4584596E+03  0.7546771E-02  0.1025229E+00
         21   -1    0    0  502  501  0.00000000000E+00  0.00000000000E+00  0.74719447638E+02  0.74719447638E+02  0.00000000000E+00 0.  1.
         21   -1    0    0  501  502 -0.00000000000E+00 -0.00000000000E+00 -0.70324791828E+03  0.70324791828E+03  0.00000000000E+00 0.  1.
      99926    2    1    2    0    0  0.00000000000E+00 -0.14210854715E-13 -0.62852847065E+03  0.77796736592E+03  0.45845957731E+03 0.  0.
         25    1    3    3    0    0  0.62592594636E+02 -0.91871660105E+02 -0.16251111130E+03  0.23327152469E+03  0.12509000000E+03 0.  0.
         25    1    3    3    0    0 -0.14630586501E+01  0.48077305705E+02 -0.25575663856E+03  0.28874302439E+03  0.12509000000E+03 0.  0.
         25    1    3    3    0    0 -0.61129535986E+02  0.43794354400E+02 -0.21026072078E+03  0.25595281684E+03  0.12509000000E+03 0.  0.
<mgrwt>
<rscale>  2 0.45845958E+03</rscale>
<asrwt>0</asrwt>
<pdfrwt beam="1">  1       21 0.10988154E-01 0.45845958E+03</pdfrwt>
<pdfrwt beam="2">  1       21 0.10341881E+00 0.45845958E+03</pdfrwt>
<totfact> 0.47544699E+04</totfact>
</mgrwt>
</event>
<event>
 7    0  0.4750554E-002  0.4614767E+03  0.7546771E-02  0.1024354E+00
         21   -1    0    0  502  501  0.00000000000E+00  0.00000000000E+00  0.19326763837E+03  0.19326763837E+03  0.00000000000E+00 0.  1.
         21   -1    0    0  501  502 -0.00000000000E+00 -0.00000000000E+00 -0.27547383834E+03  0.27547383834E+03  0.00000000000E+00 0.  1.
      99926    2    1    2    0    0  0.71054273576E-14  0.00000000000E+00 -0.82206199964E+02  0.46874147671E+03  0.46147666537E+03 0.  0.
      99925    2    3    3    0    0 -0.52441958021E+02 -0.86189113871E+02  0.12824427247E+02  0.28204104683E+03  0.26306646280E+03 0.  0.
         25    1    4    4    0    0 -0.23764985362E+02 -0.62107820530E+02 -0.29639735223E+02  0.14473485380E+03  0.12509000000E+03 0.  0.
         25    1    4    4    0    0 -0.28676972659E+02 -0.24081293341E+02  0.42464162470E+02  0.13730619303E+03  0.12509000000E+03 0.  0.
         25    1    3    3    0    0  0.52441958021E+02  0.86189113871E+02 -0.95030627210E+02  0.18670042988E+03  0.12509000000E+03 0.  0.
<mgrwt>
<rscale>  2 0.46147667E+03</rscale>
<asrwt>0</asrwt>
<pdfrwt beam="1">  1       21 0.28421712E-01 0.46147667E+03</pdfrwt>
<pdfrwt beam="2">  1       21 0.40510858E-01 0.46147667E+03</pdfrwt>
<totfact> 0.64165547E+04</totfact>
</mgrwt>
</event>
<event>
 7    0  0.4750554E-002  0.4572631E+03  0.7546771E-02  0.1025578E+00
         21   -1    0    0  502  501  0.00000000000E+00  0.00000000000E+00  0.60094275839E+03  0.60094275839E+03  0.00000000000E+00 0.  1.
         21   -1    0    0  501  502 -0.00000000000E+00 -0.00000000000E+00 -0.86983960663E+02  0.86983960663E+02  0.00000000000E+00 0.  1.
      99926    2    1    2    0    0  0.00000000000E+00  0.17763568394E-14  0.51395879773E+03  0.68792671905E+03  0.45726308076E+03 0.  0.
      99925    2    3    3    0    0 -0.30380991266E+02 -0.13494434715E+02  0.15661290280E+03  0.30786264403E+03  0.26295760470E+03 0.  0.
         25    1    4    4    0    0  0.20020947862E+02 -0.26686549758E+02  0.80351051111E+02  0.15237063302E+03  0.12509000000E+03 0.  0.
         25    1    3    3    0    0  0.30380991266E+02  0.13494434715E+02  0.35734589493E+03  0.38006407502E+03  0.12509000000E+03 0.  0.
         25    1    4    4    0    0 -0.50401939128E+02  0.13192115043E+02  0.76261851691E+02  0.15549201102E+03  0.12509000000E+03 0.  0.
<mgrwt>
<rscale>  2 0.45726308E+03</rscale>
<asrwt>0</asrwt>
<pdfrwt beam="1">  1       21 0.88373933E-01 0.45726308E+03</pdfrwt>
<pdfrwt beam="2">  1       21 0.12791759E-01 0.45726308E+03</pdfrwt>
<totfact> 0.52619760E+04</totfact>
</mgrwt>
</event>
<event>
 7    0  0.4750554E-002  0.4655261E+03  0.7546771E-02  0.1023191E+00
         21   -1    0    0  502  501  0.00000000000E+00  0.00000000000E+00  0.50978784615E+03  0.50978784615E+03  0.00000000000E+00 0.  1.
         21   -1    0    0  501  502 -0.00000000000E+00 -0.00000000000E+00 -0.10627682561E+03  0.10627682561E+03  0.00000000000E+00 0.  1.
      99926    2    1    2    0    0  0.00000000000E+00  0.00000000000E+00  0.40351102053E+03  0.61606467176E+03  0.46552608531E+03 0.  0.
      99925    2    3    3    0    0  0.73903558213E+02 -0.33724884686E+02  0.37343241688E+03  0.46390904662E+03  0.26298427671E+03 0.  0.
         25    1    4    4    0    0  0.25667835578E+01 -0.64606798565E+01  0.20870972606E+03  0.24342470420E+03  0.12509000000E+03 0.  0.
         25    1    3    3    0    0 -0.73903558213E+02  0.33724884686E+02  0.30078603652E+02  0.15215562514E+03  0.12509000000E+03 0.  0.
         25    1    4    4    0    0  0.71336774656E+02 -0.27264204830E+02  0.16472269082E+03  0.22048434242E+03  0.12509000000E+03 0.  0.
<mgrwt>
<rscale>  2 0.46552609E+03</rscale>
<asrwt>0</asrwt>
<pdfrwt beam="1">  1       21 0.74968800E-01 0.46552609E+03</pdfrwt>
<pdfrwt beam="2">  1       21 0.15628945E-01 0.46552609E+03</pdfrwt>
<totfact> 0.53142462E+04</totfact>
</mgrwt>
</event>
<event>
 7    0  0.4750554E-002  0.4492692E+03  0.7546771E-02  0.1027940E+00
         21   -1    0    0  502  501  0.00000000000E+00  0.00000000000E+00  0.76805298696E+02  0.76805298696E+02  0.00000000000E+00 0. -1.
         21   -1    0    0  501  502 -0.00000000000E+00 -0.00000000000E+00 -0.65699502432E+03  0.65699502432E+03  0.00000000000E+00 0. -1.
      99926    2    1    2    0    0 -0.71054273576E-14  0.00000000000E+00 -0.58018972563E+03  0.73380032302E+03  0.44926918027E+03 0.  0.
      99925    2    3    3    0    0 -0.61773040936E+02  0.39938319164E+02 -0.49553687902E+03  0.56579856570E+03  0.26298334653E+03 0.  0.
         25    1    3    3    0    0  0.61773040936E+02 -0.39938319164E+02 -0.84652846604E+02  0.16800175732E+03  0.12509000000E+03 0.  0.
         25    1    4    4    0    0 -0.61715365455E+02  0.30866353154E+02 -0.31600902359E+03  0.34680070528E+03  0.12509000000E+03 0.  0.
         25    1    4    4    0    0 -0.57675480694E-01  0.90719660096E+01 -0.17952785543E+03  0.21899786042E+03  0.12509000000E+03 0.  0.
<mgrwt>
<rscale>  2 0.44926918E+03</rscale>
<asrwt>0</asrwt>
<pdfrwt beam="1">  1       21 0.11294898E-01 0.44926918E+03</pdfrwt>
<pdfrwt beam="2">  1       21 0.96616908E-01 0.44926918E+03</pdfrwt>
<totfact> 0.53475108E+04</totfact>
</mgrwt>
</event>
<event>
 7    0  0.4750554E-002  0.4545532E+03  0.7546771E-02  0.1026373E+00
         21   -1    0    0  502  501  0.00000000000E+00  0.00000000000E+00  0.79214922567E+02  0.79214922567E+02  0.00000000000E+00 0.  1.
         21   -1    0    0  501  502 -0.00000000000E+00 -0.00000000000E+00 -0.65208224071E+03  0.65208224071E+03  0.00000000000E+00 0.  1.
      99926    2    1    2    0    0  0.14210854715E-13  0.00000000000E+00 -0.57286731815E+03  0.73129716328E+03  0.45455316171E+03 0.  0.
      99925    2    3    3    0    0 -0.91130315642E+02 -0.91519719686E+01 -0.25471856203E+03  0.37738385167E+03  0.26296108578E+03 0.  0.
         25    1    3    3    0    0  0.91130315642E+02  0.91519719686E+01 -0.31814875611E+03  0.35391331161E+03  0.12509000000E+03 0.  0.
         25    1    4    4    0    0 -0.18783008775E+02 -0.62372809979E+01 -0.76631197215E+02  0.14802551665E+03  0.12509000000E+03 0.  0.
         25    1    4    4    0    0 -0.72347306866E+02 -0.29146909708E+01 -0.17808736482E+03  0.22935833502E+03  0.12509000000E+03 0.  0.
<mgrwt>
<rscale>  2 0.45455316E+03</rscale>
<asrwt>0</asrwt>
<pdfrwt beam="1">  1       21 0.11649254E-01 0.45455316E+03</pdfrwt>
<pdfrwt beam="2">  1       21 0.95894441E-01 0.45455316E+03</pdfrwt>
<totfact> 0.51416901E+04</totfact>
</mgrwt>
</event>
<event>
 7    0  0.4750554E-002  0.4693870E+03  0.7546771E-02  0.1022093E+00
         21   -1    0    0  502  501  0.00000000000E+00  0.00000000000E+00  0.56357286913E+03  0.56357286913E+03  0.00000000000E+00 0.  1.
         21   -1    0    0  501  502 -0.00000000000E+00 -0.00000000000E+00 -0.97735425542E+02  0.97735425542E+02  0.00000000000E+00 0.  1.
      99926    2    1    2    0    0  0.17763568394E-14  0.00000000000E+00  0.46583744359E+03  0.66130829467E+03  0.46938697974E+03 0.  0.
      99925    2    3    3    0    0 -0.46647727337E+01  0.10560837007E+03  0.38764412216E+03  0.47982388336E+03  0.26227486663E+03 0.  0.
         25    1    4    4    0    0 -0.99165289924E+01  0.12538178344E+02  0.18974618539E+03  0.22783034572E+03  0.12509000000E+03 0.  0.
         25    1    4    4    0    0  0.52517562587E+01  0.93070191724E+02  0.19789793678E+03  0.25199353764E+03  0.12509000000E+03 0.  0.
         25    1    3    3    0    0  0.46647727337E+01 -0.10560837007E+03  0.78193321425E+02  0.18148441131E+03  0.12509000000E+03 0.  0.
<mgrwt>
<rscale>  2 0.46938698E+03</rscale>
<asrwt>0</asrwt>
<pdfrwt beam="1">  1       21 0.82878362E-01 0.46938698E+03</pdfrwt>
<pdfrwt beam="2">  1       21 0.14372857E-01 0.46938698E+03</pdfrwt>
<totfact> 0.49226561E+04</totfact>
</mgrwt>
</event>
<event>
 7    0  0.4750554E-002  0.4559047E+03  0.7546771E-02  0.1025976E+00
         21   -1    0    0  502  501  0.00000000000E+00  0.00000000000E+00  0.11275367463E+03  0.11275367463E+03  0.00000000000E+00 0. -1.
         21   -1    0    0  501  502 -0.00000000000E+00 -0.00000000000E+00 -0.46084768765E+03  0.46084768765E+03  0.00000000000E+00 0. -1.
      99926    2    1    2    0    0 -0.71054273576E-14  0.00000000000E+00 -0.34809401302E+03  0.57360136228E+03  0.45590468402E+03 0.  0.
      99925    2    3    3    0    0  0.40893431803E+02 -0.10640616210E+03 -0.21011104215E+03  0.35524076042E+03  0.26278280714E+03 0.  0.
         25    1    4    4    0    0  0.54095787100E+02 -0.31709121672E+02 -0.10974445473E+03  0.17782906406E+03  0.12509000000E+03 0.  0.
         25    1    4    4    0    0 -0.13202355298E+02 -0.74697040431E+02 -0.10036658742E+03  0.17741169636E+03  0.12509000000E+03 0.  0.
         25    1    3    3    0    0 -0.40893431803E+02  0.10640616210E+03 -0.13798297087E+03  0.21836060187E+03  0.12509000000E+03 0.  0.
<mgrwt>
<rscale>  2 0.45590468E+03</rscale>
<asrwt>0</asrwt>
<pdfrwt beam="1">  1       21 0.16581423E-01 0.45590468E+03</pdfrwt>
<pdfrwt beam="2">  1       21 0.67771718E-01 0.45590468E+03</pdfrwt>
<totfact> 0.59903659E+04</totfact>
</mgrwt>
</event>
<event>
 7    0  0.4750554E-002  0.4578257E+03  0.7546771E-02  0.1025414E+00
         21   -1    0    0  502  501  0.00000000000E+00  0.00000000000E+00  0.22747450003E+02  0.22747450003E+02  0.00000000000E+00 0. -1.
         21   -1    0    0  501  502 -0.00000000000E+00 -0.00000000000E+00 -0.23036024765E+04  0.23036024765E+04  0.00000000000E+00 0. -1.
      99926    2    1    2    0    0  0.14210854715E-13  0.71054273576E-14 -0.22808550265E+04  0.23263499265E+04  0.45782565311E+03 0.  0.
      99925    2    3    3    0    0  0.98831374164E+02  0.41492789762E+02 -0.16533251812E+04  0.16775583522E+04  0.26311324166E+03 0.  0.
         25    1    3    3    0    0 -0.98831374164E+02 -0.41492789762E+02 -0.62752984528E+03  0.64879157435E+03  0.12509000000E+03 0.  0.
         25    1    4    4    0    0  0.16053064174E+02  0.43787995064E+02 -0.72473214137E+03  0.73692555541E+03  0.12509000000E+03 0.  0.
         25    1    4    4    0    0  0.82778309990E+02 -0.22952053020E+01 -0.92859303987E+03  0.94063279678E+03  0.12509000000E+03 0.  0.
<mgrwt>
<rscale>  2 0.45782565E+03</rscale>
<asrwt>0</asrwt>
<pdfrwt beam="1">  1       21 0.33452140E-02 0.45782565E+03</pdfrwt>
<pdfrwt beam="2">  1       21 0.33876499E+00 0.45782565E+03</pdfrwt>
<totfact> 0.88794504E+03</totfact>
</mgrwt>
</event>
<event>
 7    0  0.4750554E-002  0.4683973E+03  0.7546771E-02  0.1022374E+00
         21   -1    0    0  502  501  0.00000000000E+00  0.00000000000E+00  0.33284614749E+02  0.33284614749E+02  0.00000000000E+00 0. -1.
         21   -1    0    0  501  502 -0.00000000000E+00 -0.00000000000E+00 -0.16478786451E+04  0.16478786451E+04  0.00000000000E+00 0. -1.
      99926    2    1    2    0    0  0.00000000000E+00  0.00000000000E+00 -0.16145940304E+04  0.16811632599E+04  0.46839729228E+03 0.  0.
      99925    2    3    3    0    0 -0.43731224716E+02 -0.10802491299E+03 -0.11701986846E+04  0.12050156637E+04  0.26289919478E+03 0.  0.
         25    1    4    4    0    0  0.14474210512E+02 -0.62824312641E+02 -0.51141385439E+03  0.53042250668E+03  0.12509000000E+03 0.  0.
         25    1    3    3    0    0  0.43731224716E+02  0.10802491299E+03 -0.44439534581E+03  0.47614759615E+03  0.12509000000E+03 0.  0.
         25    1    4    4    0    0 -0.58205435228E+02 -0.45200600348E+02 -0.65878483017E+03  0.67459315704E+03  0.12509000000E+03 0.  0.
<mgrwt>
<rscale>  2 0.46839729E+03</rscale>
<asrwt>0</asrwt>
<pdfrwt beam="1">  1       21 0.48947957E-02 0.46839729E+03</pdfrwt>
<pdfrwt beam="2">  1       21 0.24233512E+00 0.46839729E+03</pdfrwt>
<totfact> 0.17738302E+04</totfact>
</mgrwt>
</event>
<event>
 7    0  0.7537652E-002  0.3932162E+03  0.7546771E-02  0.1046154E+00
         21   -1    0    0  502  501  0.00000000000E+00  0.00000000000E+00  0.12771678855E+03  0.12771678855E+03  0.00000000000E+00 0. -1.
         21   -1    0    0  501  502 -0.00000000000E+00 -0.00000000000E+00 -0.30265978734E+03  0.30265978734E+03  0.00000000000E+00 0. -1.
      99926    2    1    2    0    0  0.88817841970E-15  0.10989473220E-14 -0.17494299879E+03  0.43037657589E+03  0.39321615462E+03 0.  0.
      99925    2    3    3    0    0 -0.51559727847E+01  0.15132341925E-02 -0.81010034222E+02  0.27385982283E+03  0.26155304024E+03 0.  0.
         25    1    3    3    0    0  0.51559727847E+01 -0.15132341925E-02 -0.93932964563E+02  0.15651675306E+03  0.12509000000E+03 0.  0.
         25    1    4    4    0    0  0.30088351067E+02  0.19702813689E+02 -0.39908677060E+02  0.13613860710E+03  0.12509000000E+03 0.  0.
         25    1    4    4    0    0 -0.35244323852E+02 -0.19701300455E+02 -0.41101357162E+02  0.13772121574E+03  0.12509000000E+03 0.  0.
<mgrwt>
<rscale>  2 0.39321615E+03</rscale>
<asrwt>0</asrwt>
<pdfrwt beam="1">  1       21 0.18781881E-01 0.39321615E+03</pdfrwt>
<pdfrwt beam="2">  1       21 0.44508792E-01 0.39321615E+03</pdfrwt>
<totfact> 0.11898326E+05</totfact>
</mgrwt>
</event>
<event>
 7    0  0.4750554E-002  0.4537246E+03  0.7546771E-02  0.1026617E+00
         21   -1    0    0  502  501  0.00000000000E+00  0.00000000000E+00  0.15735086336E+03  0.15735086336E+03  0.00000000000E+00 0.  1.
         21   -1    0    0  501  502 -0.00000000000E+00 -0.00000000000E+00 -0.32708119099E+03  0.32708119099E+03  0.00000000000E+00 0.  1.
      99926    2    1    2    0    0  0.00000000000E+00  0.00000000000E+00 -0.16973032763E+03  0.48443205436E+03  0.45372462041E+03 0.  0.
      99925    2    3    3    0    0 -0.96239623714E+02 -0.21963925597E+02 -0.50239476123E+02  0.28525863521E+03  0.26287640594E+03 0.  0.
         25    1    4    4    0    0 -0.53450603093E+02 -0.50707081455E+02 -0.19087258045E+02  0.14642406428E+03  0.12509000000E+03 0.  0.
         25    1    3    3    0    0  0.96239623714E+02  0.21963925597E+02 -0.11949085151E+03  0.19917341914E+03  0.12509000000E+03 0.  0.
         25    1    4    4    0    0 -0.42789020621E+02  0.28743155858E+02 -0.31152218078E+02  0.13883457093E+03  0.12509000000E+03 0.  0.
<mgrwt>
<rscale>  2 0.45372462E+03</rscale>
<asrwt>0</asrwt>
<pdfrwt beam="1">  1       21 0.23139833E-01 0.45372462E+03</pdfrwt>
<pdfrwt beam="2">  1       21 0.48100175E-01 0.45372462E+03</pdfrwt>
<totfact> 0.67055201E+04</totfact>
</mgrwt>
</event>
<event>
 7    0  0.4750554E-002  0.4546326E+03  0.7546771E-02  0.1026349E+00
         21   -1    0    0  502  501  0.00000000000E+00  0.00000000000E+00  0.15171509551E+03  0.15171509551E+03  0.00000000000E+00 0. -1.
         21   -1    0    0  501  502 -0.00000000000E+00 -0.00000000000E+00 -0.34059043158E+03  0.34059043158E+03  0.00000000000E+00 0. -1.
      99926    2    1    2    0    0  0.00000000000E+00  0.00000000000E+00 -0.18887533607E+03  0.49230552709E+03  0.45463264228E+03 0.  0.
      99925    2    3    3    0    0 -0.10430719845E+03 -0.31390210926E+02 -0.86734231794E+02  0.29750909419E+03  0.26291347848E+03 0.  0.
         25    1    4    4    0    0 -0.62041651510E+02 -0.27625652377E+02 -0.84234434486E+02  0.16539435070E+03  0.12509000000E+03 0.  0.
         25    1    4    4    0    0 -0.42265546938E+02 -0.37645585485E+01 -0.24997973082E+01  0.13211474348E+03  0.12509000000E+03 0.  0.
         25    1    3    3    0    0  0.10430719845E+03  0.31390210926E+02 -0.10214110428E+03  0.19479643291E+03  0.12509000000E+03 0.  0.
<mgrwt>
<rscale>  2 0.45463264E+03</rscale>
<asrwt>0</asrwt>
<pdfrwt beam="1">  1       21 0.22311043E-01 0.45463264E+03</pdfrwt>
<pdfrwt beam="2">  1       21 0.50086828E-01 0.45463264E+03</pdfrwt>
<totfact> 0.66006956E+04</totfact>
</mgrwt>
</event>
<event>
 7    0  0.4750554E-002  0.4638409E+03  0.7546771E-02  0.1023673E+00
         21   -1    0    0  502  501  0.00000000000E+00  0.00000000000E+00  0.14188465539E+03  0.14188465539E+03  0.00000000000E+00 0. -1.
         21   -1    0    0  501  502 -0.00000000000E+00 -0.00000000000E+00 -0.37909022297E+03  0.37909022297E+03  0.00000000000E+00 0. -1.
      99926    2    1    2    0    0 -0.71054273576E-14  0.00000000000E+00 -0.23720556759E+03  0.52097487836E+03  0.46384085912E+03 0.  0.
      99925    2    3    3    0    0  0.62569373770E+02  0.28122017797E+02 -0.26041631136E+03  0.37643415349E+03  0.26302137228E+03 0.  0.
         25    1    4    4    0    0  0.64889739224E+02  0.13101131177E+02 -0.10429746919E+03  0.17580610932E+03  0.12509000000E+03 0.  0.
         25    1    4    4    0    0 -0.23203654538E+01  0.15020886620E+02 -0.15611884216E+03  0.20062804417E+03  0.12509000000E+03 0.  0.
         25    1    3    3    0    0 -0.62569373770E+02 -0.28122017797E+02  0.23210743768E+02  0.14454072487E+03  0.12509000000E+03 0.  0.
<mgrwt>
<rscale>  2 0.46384086E+03</rscale>
<asrwt>0</asrwt>
<pdfrwt beam="1">  1       21 0.20865390E-01 0.46384086E+03</pdfrwt>
<pdfrwt beam="2">  1       21 0.55748563E-01 0.46384086E+03</pdfrwt>
<totfact> 0.59533637E+04</totfact>
</mgrwt>
</event>
<event>
 7    0  0.4750554E-002  0.4544622E+03  0.7546771E-02  0.1026400E+00
         21   -1    0    0  502  501  0.00000000000E+00  0.00000000000E+00  0.70704088089E+02  0.70704088089E+02  0.00000000000E+00 0.  1.
         21   -1    0    0  501  502 -0.00000000000E+00 -0.00000000000E+00 -0.73028272348E+03  0.73028272348E+03  0.00000000000E+00 0.  1.
      99926    2    1    2    0    0  0.00000000000E+00  0.00000000000E+00 -0.65957863539E+03  0.80098681157E+03  0.45446220530E+03 0.  0.
      99925    2    3    3    0    0 -0.39746294691E+02 -0.36498724920E+02 -0.58963481878E+03  0.64784775566E+03  0.26291742076E+03 0.  0.
         25    1    3    3    0    0  0.39746294691E+02  0.36498724920E+02 -0.69943816617E+02  0.15313905591E+03  0.12509000000E+03 0.  0.
         25    1    4    4    0    0 -0.66043809614E+01 -0.36553202531E+02 -0.21507855079E+03  0.25156717905E+03  0.12509000000E+03 0.  0.
         25    1    4    4    0    0 -0.33141913730E+02  0.54477611398E-01 -0.37455626799E+03  0.39628057661E+03  0.12509000000E+03 0.  0.
<mgrwt>
<rscale>  2 0.45446221E+03</rscale>
<asrwt>0</asrwt>
<pdfrwt beam="1">  1       21 0.10397660E-01 0.45446221E+03</pdfrwt>
<pdfrwt beam="2">  1       21 0.10739451E+00 0.45446221E+03</pdfrwt>
<totfact> 0.47919035E+04</totfact>
</mgrwt>
</event>
<event>
 7    0  0.4750554E-002  0.4457402E+03  0.7546771E-02  0.1029000E+00
         21   -1    0    0  502  501  0.00000000000E+00  0.00000000000E+00  0.13691720495E+03  0.13691720495E+03  0.00000000000E+00 0. -1.
         21   -1    0    0  501  502 -0.00000000000E+00 -0.00000000000E+00 -0.36278185318E+03  0.36278185318E+03  0.00000000000E+00 0. -1.
      99926    2    1    2    0    0 -0.14210854715E-13  0.00000000000E+00 -0.22586464823E+03  0.49969905813E+03  0.44574018147E+03 0.  0.
      99925    2    3    3    0    0  0.74121126959E+02  0.61765270391E+02 -0.98860413982E+02  0.29700107170E+03  0.26292083418E+03 0.  0.
         25    1    3    3    0    0 -0.74121126959E+02 -0.61765270391E+02 -0.12700423425E+03  0.20269798644E+03  0.12509000000E+03 0.  0.
         25    1    4    4    0    0  0.29679472388E+02  0.56244104947E+02 -0.18030818151E+02  0.14148105501E+03  0.12509000000E+03 0.  0.
         25    1    4    4    0    0  0.44441654571E+02  0.55211654446E+01 -0.80829595832E+02  0.15552001669E+03  0.12509000000E+03 0.  0.
<mgrwt>
<rscale>  2 0.44574018E+03</rscale>
<asrwt>0</asrwt>
<pdfrwt beam="1">  1       21 0.20134883E-01 0.44574018E+03</pdfrwt>
<pdfrwt beam="2">  1       21 0.53350272E-01 0.44574018E+03</pdfrwt>
<totfact> 0.70319746E+04</totfact>
</mgrwt>
</event>
<event>
 7    0  0.4750554E-002  0.4539921E+03  0.7546771E-02  0.1026538E+00
         21   -1    0    0  502  501  0.00000000000E+00  0.00000000000E+00  0.49441323012E+02  0.49441323012E+02  0.00000000000E+00 0. -1.
         21   -1    0    0  501  502 -0.00000000000E+00 -0.00000000000E+00 -0.10421888933E+04  0.10421888933E+04  0.00000000000E+00 0. -1.
      99926    2    1    2    0    0  0.00000000000E+00  0.00000000000E+00 -0.99274757028E+03  0.10916302163E+04  0.45399206034E+03 0.  0.
      99925    2    3    3    0    0 -0.77788496250E+02 -0.53510613499E+02 -0.76917778391E+03  0.81860019344E+03  0.26373732678E+03 0.  0.
         25    1    4    4    0    0 -0.20754266343E+02 -0.16432810885E+02 -0.47292558638E+03  0.48990498589E+03  0.12509000000E+03 0.  0.
         25    1    3    3    0    0  0.77788496250E+02  0.53510613499E+02 -0.22356978637E+03  0.27303002286E+03  0.12509000000E+03 0.  0.
         25    1    4    4    0    0 -0.57034229907E+02 -0.37077802615E+02 -0.29625219753E+03  0.32869520755E+03  0.12509000000E+03 0.  0.
<mgrwt>
<rscale>  2 0.45399206E+03</rscale>
<asrwt>0</asrwt>
<pdfrwt beam="1">  1       21 0.72707829E-02 0.45399206E+03</pdfrwt>
<pdfrwt beam="2">  1       21 0.15326307E+00 0.45399206E+03</pdfrwt>
<totfact> 0.36068640E+04</totfact>
</mgrwt>
</event>
<event>
 7    0  0.4750554E-002  0.4498247E+03  0.7546771E-02  0.1027774E+00
         21   -1    0    0  502  501  0.00000000000E+00  0.00000000000E+00  0.19836390048E+03  0.19836390048E+03  0.00000000000E+00 0. -1.
         21   -1    0    0  501  502 -0.00000000000E+00 -0.00000000000E+00 -0.25501395292E+03  0.25501395292E+03  0.00000000000E+00 0. -1.
      99926    2    1    2    0    0  0.00000000000E+00  0.00000000000E+00 -0.56650052441E+02  0.45337785341E+03  0.44982468754E+03 0.  0.
      99925    2    3    3    0    0  0.43054078236E+02  0.72838970549E+02  0.32285461625E+02  0.27811746699E+03  0.26295970248E+03 0.  0.
         25    1    4    4    0    0  0.48471736982E+02  0.56779773652E+02  0.41725317090E+02  0.15153204997E+03  0.12509000000E+03 0.  0.
         25    1    3    3    0    0 -0.43054078236E+02 -0.72838970549E+02 -0.88935514067E+02  0.17526038641E+03  0.12509000000E+03 0.  0.
         25    1    4    4    0    0 -0.54176587453E+01  0.16059196898E+02 -0.94398554649E+01  0.12658541702E+03  0.12509000000E+03 0.  0.
<mgrwt>
<rscale>  2 0.44982469E+03</rscale>
<asrwt>0</asrwt>
<pdfrwt beam="1">  1       21 0.29171162E-01 0.44982469E+03</pdfrwt>
<pdfrwt beam="2">  1       21 0.37502052E-01 0.44982469E+03</pdfrwt>
<totfact> 0.71574621E+04</totfact>
</mgrwt>
</event>
<event>
 7    0  0.4750554E-002  0.4567597E+03  0.7546771E-02  0.1025725E+00
         21   -1    0    0  502  501  0.00000000000E+00  0.00000000000E+00  0.11316493784E+04  0.11316493784E+04  0.00000000000E+00 0.  1.
         21   -1    0    0  501  502 -0.00000000000E+00 -0.00000000000E+00 -0.46089684953E+02  0.46089684953E+02  0.00000000000E+00 0.  1.
      99926    2    1    2    0    0  0.00000000000E+00  0.00000000000E+00  0.10855596935E+04  0.11777390634E+04  0.45675973258E+03 0.  0.
      99925    2    3    3    0    0 -0.85678936294E+02 -0.61750383495E+02  0.56546200225E+03  0.63248397949E+03  0.26293481766E+03 0.  0.
         25    1    4    4    0    0 -0.28189193474E+02 -0.58379313845E+02  0.34352236521E+03  0.37129220085E+03  0.12509000000E+03 0.  0.
         25    1    3    3    0    0  0.85678936294E+02  0.61750383495E+02  0.52009769120E+03  0.54525508387E+03  0.12509000000E+03 0.  0.
         25    1    4    4    0    0 -0.57489742820E+02 -0.33710696499E+01  0.22193963703E+03  0.26119177864E+03  0.12509000000E+03 0.  0.
<mgrwt>
<rscale>  2 0.45675973E+03</rscale>
<asrwt>0</asrwt>
<pdfrwt beam="1">  1       21 0.16641901E+00 0.45675973E+03</pdfrwt>
<pdfrwt beam="2">  1       21 0.67778956E-02 0.45675973E+03</pdfrwt>
<totfact> 0.32422758E+04</totfact>
</mgrwt>
</event>
<event>
 7    0  0.4750554E-002  0.4597209E+03  0.7546771E-02  0.1024862E+00
         21   -1    0    0  502  501  0.00000000000E+00  0.00000000000E+00  0.16436035653E+04  0.16436035653E+04  0.00000000000E+00 0. -1.
         21   -1    0    0  501  502 -0.00000000000E+00 -0.00000000000E+00 -0.32146338224E+02  0.32146338224E+02  0.00000000000E+00 0. -1.
      99926    2    1    2    0    0  0.00000000000E+00  0.00000000000E+00  0.16114572271E+04  0.16757499035E+04  0.45972094195E+03 0.  0.
      99925    2    3    3    0    0  0.24281851415E+02  0.11329727589E+03  0.93740383450E+03  0.98046480720E+03  0.26298176398E+03 0.  0.
         25    1    3    3    0    0 -0.24281851415E+02 -0.11329727589E+03  0.67405339257E+03  0.69528509632E+03  0.12509000000E+03 0.  0.
         25    1    4    4    0    0 -0.18940340281E+02  0.79284553995E+02  0.53792485683E+03  0.55826108291E+03  0.12509000000E+03 0.  0.
         25    1    4    4    0    0  0.43222191696E+02  0.34012721890E+02  0.39947897767E+03  0.42220372429E+03  0.12509000000E+03 0.  0.
<mgrwt>
<rscale>  2 0.45972094E+03</rscale>
<asrwt>0</asrwt>
<pdfrwt beam="1">  1       21 0.24170635E+00 0.45972094E+03</pdfrwt>
<pdfrwt beam="2">  1       21 0.47274038E-02 0.45972094E+03</pdfrwt>
<totfact> 0.19062614E+04</totfact>
</mgrwt>
</event>
<event>
 7    0  0.4750554E-002  0.4566407E+03  0.7546771E-02  0.1025760E+00
         21   -1    0    0  502  501  0.00000000000E+00  0.00000000000E+00  0.12491294693E+03  0.12491294693E+03  0.00000000000E+00 0.  1.
         21   -1    0    0  501  502 -0.00000000000E+00 -0.00000000000E+00 -0.41733209144E+03  0.41733209144E+03  0.00000000000E+00 0.  1.
      99926    2    1    2    0    0  0.71054273576E-14  0.00000000000E+00 -0.29241914451E+03  0.54224503837E+03  0.45664069635E+03 0.  0.
      99925    2    3    3    0    0  0.58382682947E+02 -0.97750992402E+02 -0.16741475030E+03  0.33191814790E+03  0.26301742167E+03 0.  0.
         25    1    3    3    0    0 -0.58382682947E+02  0.97750992402E+02 -0.12500439420E+03  0.21032689047E+03  0.12509000000E+03 0.  0.
         25    1    4    4    0    0 -0.67797642307E+00 -0.26598690948E+02 -0.10016751545E+03  0.16244688136E+03  0.12509000000E+03 0.  0.
         25    1    4    4    0    0  0.59060659370E+02 -0.71152301454E+02 -0.67247234850E+02  0.16947126654E+03  0.12509000000E+03 0.  0.
<mgrwt>
<rscale>  2 0.45664070E+03</rscale>
<asrwt>0</asrwt>
<pdfrwt beam="1">  1       21 0.18369551E-01 0.45664070E+03</pdfrwt>
<pdfrwt beam="2">  1       21 0.61372367E-01 0.45664070E+03</pdfrwt>
<totfact> 0.61578477E+04</totfact>
</mgrwt>
</event>
<event>
 7    0  0.4750554E-002  0.4617808E+03  0.7546771E-02  0.1024266E+00
         21   -1    0    0  502  501  0.00000000000E+00  0.00000000000E+00  0.99695497394E+03  0.99695497394E+03  0.00000000000E+00 0.  1.
         21   -1    0    0  501  502 -0.00000000000E+00 -0.00000000000E+00 -0.53473213931E+02  0.53473213931E+02  0.00000000000E+00 0.  1.
      99926    2    1    2    0    0  0.35527136788E-14  0.88817841970E-15  0.94348176001E+03  0.10504281879E+04  0.46178084240E+03 0.  0.
      99925    2    3    3    0    0  0.21975183978E+02  0.61286690842E+01  0.85676279790E+03  0.89651861772E+03  0.26302598875E+03 0.  0.
         25    1    4    4    0    0 -0.16497524813E+02  0.75395807488E+01  0.32070583966E+03  0.34471547296E+03  0.12509000000E+03 0.  0.
         25    1    4    4    0    0  0.38472708790E+02 -0.14109116646E+01  0.53605695824E+03  0.55180314476E+03  0.12509000000E+03 0.  0.
         25    1    3    3    0    0 -0.21975183978E+02 -0.61286690842E+01  0.86718962111E+02  0.15390957015E+03  0.12509000000E+03 0.  0.
<mgrwt>
<rscale>  2 0.46178084E+03</rscale>
<asrwt>0</asrwt>
<pdfrwt beam="1">  1       21 0.14661101E+00 0.46178084E+03</pdfrwt>
<pdfrwt beam="2">  1       21 0.78637086E-02 0.46178084E+03</pdfrwt>
<totfact> 0.35353172E+04</totfact>
</mgrwt>
</event>
<event>
 7    0  0.4750554E-002  0.4605189E+03  0.7546771E-02  0.1024631E+00
         21   -1    0    0  502  501  0.00000000000E+00  0.00000000000E+00  0.48876978109E+03  0.48876978109E+03  0.00000000000E+00 0.  1.
         21   -1    0    0  501  502 -0.00000000000E+00 -0.00000000000E+00 -0.10847522830E+03  0.10847522830E+03  0.00000000000E+00 0.  1.
      99926    2    1    2    0    0  0.00000000000E+00  0.14210854715E-13  0.38029455279E+03  0.59724500939E+03  0.46051889686E+03 0.  0.
      99925    2    3    3    0    0 -0.72836419857E+01 -0.11705562563E+03  0.21814138029E+03  0.36124452129E+03  0.26297694089E+03 0.  0.
         25    1    4    4    0    0 -0.36830832446E+01 -0.10269542316E+03  0.11808952077E+03  0.20038103217E+03  0.12509000000E+03 0.  0.
         25    1    3    3    0    0  0.72836419857E+01  0.11705562563E+03  0.16215317250E+03  0.23600048810E+03  0.12509000000E+03 0.  0.
         25    1    4    4    0    0 -0.36005587411E+01 -0.14360202471E+02  0.10005185952E+03  0.16086348912E+03  0.12509000000E+03 0.  0.
<mgrwt>
<rscale>  2 0.46051890E+03</rscale>
<asrwt>0</asrwt>
<pdfrwt beam="1">  1       21 0.71877908E-01 0.46051890E+03</pdfrwt>
<pdfrwt beam="2">  1       21 0.15952240E-01 0.46051890E+03</pdfrwt>
<totfact> 0.56350183E+04</totfact>
</mgrwt>
</event>
<event>
 7    0  0.4750554E-002  0.4368310E+03  0.7546771E-02  0.1031724E+00
         21   -1    0    0  502  501  0.00000000000E+00  0.00000000000E+00  0.27162205817E+03  0.27162205817E+03  0.00000000000E+00 0.  1.
         21   -1    0    0  501  502 -0.00000000000E+00 -0.00000000000E+00 -0.17563130165E+03  0.17563130165E+03  0.00000000000E+00 0.  1.
      99926    2    1    2    0    0  0.00000000000E+00  0.35527136788E-14  0.95990756528E+02  0.44725335982E+03  0.43683102286E+03 0.  0.
      99925    2    3    3    0    0 -0.61828375432E+02 -0.36627328315E+01 -0.12165969377E+02  0.27067037910E+03  0.26320767408E+03 0.  0.
         25    1    4    4    0    0 -0.26547687689E+02  0.29631606555E+02  0.19796860839E+02  0.13274876884E+03  0.12509000000E+03 0.  0.
         25    1    3    3    0    0  0.61828375432E+02  0.36627328315E+01  0.10815672590E+03  0.17658298072E+03  0.12509000000E+03 0.  0.
         25    1    4    4    0    0 -0.35280687743E+02 -0.33294339387E+02 -0.31962830216E+02  0.13792161027E+03  0.12509000000E+03 0.  0.
<mgrwt>
<rscale>  2 0.43683102E+03</rscale>
<asrwt>0</asrwt>
<pdfrwt beam="1">  1       21 0.39944421E-01 0.43683102E+03</pdfrwt>
<pdfrwt beam="2">  1       21 0.25828132E-01 0.43683102E+03</pdfrwt>
<totfact> 0.80101461E+04</totfact>
</mgrwt>
</event>
<event>
 7    0  0.4750554E-002  0.4550793E+03  0.7546771E-02  0.1026218E+00
         21   -1    0    0  502  501  0.00000000000E+00  0.00000000000E+00  0.33925390048E+03  0.33925390048E+03  0.00000000000E+00 0. -1.
         21   -1    0    0  501  502 -0.00000000000E+00 -0.00000000000E+00 -0.15261224471E+03  0.15261224471E+03  0.00000000000E+00 0. -1.
      99926    2    1    2    0    0  0.00000000000E+00  0.00000000000E+00  0.18664165577E+03  0.49186614518E+03  0.45507933057E+03 0.  0.
      99925    2    3    3    0    0  0.49355545130E+02  0.74339858312E+02  0.41934968902E+02  0.28079763097E+03  0.26291896769E+03 0.  0.
         25    1    3    3    0    0 -0.49355545130E+02 -0.74339858312E+02  0.14470668687E+03  0.21106851422E+03  0.12509000000E+03 0.  0.
         25    1    4    4    0    0  0.34182567577E+02 -0.39740381011E+00  0.34094469818E+02  0.13408410356E+03  0.12509000000E+03 0.  0.
         25    1    4    4    0    0  0.15172977553E+02  0.74737262123E+02  0.78404990837E+01  0.14671352740E+03  0.12509000000E+03 0.  0.
<mgrwt>
<rscale>  2 0.45507933E+03</rscale>
<asrwt>0</asrwt>
<pdfrwt beam="1">  1       21 0.49890279E-01 0.45507933E+03</pdfrwt>
<pdfrwt beam="2">  1       21 0.22442977E-01 0.45507933E+03</pdfrwt>
<totfact> 0.65804495E+04</totfact>
</mgrwt>
</event>
<event>
 7    0  0.4750554E-002  0.4727896E+03  0.7546771E-02  0.1021136E+00
         21   -1    0    0  502  501  0.00000000000E+00  0.00000000000E+00  0.20262270200E+04  0.20262270200E+04  0.00000000000E+00 0. -1.
         21   -1    0    0  501  502 -0.00000000000E+00 -0.00000000000E+00 -0.27579587479E+02  0.27579587479E+02  0.00000000000E+00 0. -1.
      99926    2    1    2    0    0  0.00000000000E+00  0.00000000000E+00  0.19986474325E+04  0.20538066075E+04  0.47278961642E+03 0.  0.
      99925    2    3    3    0    0 -0.12755951495E+03 -0.21968738517E+02  0.12436496993E+04  0.12776473838E+04  0.26261037162E+03 0.  0.
         25    1    4    4    0    0 -0.19564620148E+02 -0.11479892317E+02  0.52781713309E+03  0.54291159168E+03  0.12509000000E+03 0.  0.
         25    1    3    3    0    0  0.12755951495E+03  0.21968738517E+02  0.75499773318E+03  0.77615922370E+03  0.12509000000E+03 0.  0.
         25    1    4    4    0    0 -0.10799489480E+03 -0.10488846200E+02  0.71583256622E+03  0.73473579207E+03  0.12509000000E+03 0.  0.
<mgrwt>
<rscale>  2 0.47278962E+03</rscale>
<asrwt>0</asrwt>
<pdfrwt beam="1">  1       21 0.29797446E+00 0.47278962E+03</pdfrwt>
<pdfrwt beam="2">  1       21 0.40558230E-02 0.47278962E+03</pdfrwt>
<totfact> 0.11219866E+04</totfact>
</mgrwt>
</event>
<event>
 7    0  0.4750554E-002  0.4059545E+03  0.7546771E-02  0.1041737E+00
         21   -1    0    0  502  501  0.00000000000E+00  0.00000000000E+00  0.76116533362E+03  0.76116533362E+03  0.00000000000E+00 0. -1.
         21   -1    0    0  501  502 -0.00000000000E+00 -0.00000000000E+00 -0.54127209495E+02  0.54127209495E+02  0.00000000000E+00 0. -1.
      99926    2    1    2    0    0  0.00000000000E+00  0.00000000000E+00  0.70703812412E+03  0.81529254311E+03  0.40595445790E+03 0.  0.
      99925    2    3    3    0    0 -0.95880748302E+01  0.46945037972E+02  0.41829413235E+03  0.49699022038E+03  0.26407107041E+03 0.  0.
         25    1    3    3    0    0  0.95880748302E+01 -0.46945037972E+02  0.28874399177E+03  0.31830232273E+03  0.12509000000E+03 0.  0.
         25    1    4    4    0    0  0.16012075542E+01 -0.14262697371E+02  0.16299606502E+03  0.20596410783E+03  0.12509000000E+03 0.  0.
         25    1    4    4    0    0 -0.11189282384E+02  0.61207735343E+02  0.25529806733E+03  0.29102611255E+03  0.12509000000E+03 0.  0.
<mgrwt>
<rscale>  2 0.40595446E+03</rscale>
<asrwt>0</asrwt>
<pdfrwt beam="1">  1       21 0.11193607E+00 0.40595446E+03</pdfrwt>
<pdfrwt beam="2">  1       21 0.79598842E-02 0.40595446E+03</pdfrwt>
<totfact> 0.70490381E+04</totfact>
</mgrwt>
</event>
<event>
 7    0  0.4750554E-002  0.4493511E+03  0.7546771E-02  0.1027916E+00
         21   -1    0    0  502  501  0.00000000000E+00  0.00000000000E+00  0.36935584810E+02  0.36935584810E+02  0.00000000000E+00 0.  1.
         21   -1    0    0  501  502 -0.00000000000E+00 -0.00000000000E+00 -0.13666796206E+04  0.13666796206E+04  0.00000000000E+00 0.  1.
      99926    2    1    2    0    0  0.17763568394E-14  0.00000000000E+00 -0.13297440358E+04  0.14036152054E+04  0.44935113679E+03 0.  0.
      99925    2    3    3    0    0 -0.54113644997E+00 -0.97763907875E+02 -0.98281780153E+03  0.10220874939E+04  0.26300939094E+03 0.  0.
         25    1    4    4    0    0  0.37625210573E+02 -0.51214159386E+02 -0.44184562363E+03  0.46358775848E+03  0.12509000000E+03 0.  0.
         25    1    4    4    0    0 -0.38166347023E+02 -0.46549748489E+02 -0.54097217790E+03  0.55849973544E+03  0.12509000000E+03 0.  0.
         25    1    3    3    0    0  0.54113644997E+00  0.97763907875E+02 -0.34692623425E+03  0.38152771147E+03  0.12509000000E+03 0.  0.
<mgrwt>
<rscale>  2 0.44935114E+03</rscale>
<asrwt>0</asrwt>
<pdfrwt beam="1">  1       21 0.54317043E-02 0.44935114E+03</pdfrwt>
<pdfrwt beam="2">  1       21 0.20098227E+00 0.44935114E+03</pdfrwt>
<totfact> 0.27419896E+04</totfact>
</mgrwt>
</event>
<event>
 7    0  0.4750554E-002  0.4618039E+03  0.7546771E-02  0.1024259E+00
         21   -1    0    0  502  501  0.00000000000E+00  0.00000000000E+00  0.21532492343E+03  0.21532492343E+03  0.00000000000E+00 0. -1.
         21   -1    0    0  501  502 -0.00000000000E+00 -0.00000000000E+00 -0.24760586388E+03  0.24760586388E+03  0.00000000000E+00 0. -1.
      99926    2    1    2    0    0  0.00000000000E+00  0.14210854715E-13 -0.32280940451E+02  0.46293078731E+03  0.46180391371E+03 0.  0.
      99925    2    3    3    0    0  0.91082335382E+02  0.75168716252E+02 -0.38519773856E+02  0.29078910478E+03  0.26292242726E+03 0.  0.
         25    1    4    4    0    0  0.78179101182E+02  0.66830009217E+02 -0.15614158278E+02  0.16269459743E+03  0.12509000000E+03 0.  0.
         25    1    4    4    0    0  0.12903234200E+02  0.83387070348E+01 -0.22905615579E+02  0.12809450735E+03  0.12509000000E+03 0.  0.
         25    1    3    3    0    0 -0.91082335382E+02 -0.75168716252E+02  0.62388334050E+01  0.17214168253E+03  0.12509000000E+03 0.  0.
<mgrwt>
<rscale>  2 0.46180391E+03</rscale>
<asrwt>0</asrwt>
<pdfrwt beam="1">  1       21 0.31665430E-01 0.46180391E+03</pdfrwt>
<pdfrwt beam="2">  1       21 0.36412627E-01 0.46180391E+03</pdfrwt>
<totfact> 0.64400913E+04</totfact>
</mgrwt>
</event>
<event>
 7    0  0.4750554E-002  0.4549186E+03  0.7546771E-02  0.1026265E+00
         21   -1    0    0  502  501  0.00000000000E+00  0.00000000000E+00  0.25621863351E+03  0.25621863351E+03  0.00000000000E+00 0. -1.
         21   -1    0    0  501  502 -0.00000000000E+00 -0.00000000000E+00 -0.20192808899E+03  0.20192808899E+03  0.00000000000E+00 0. -1.
      99926    2    1    2    0    0  0.00000000000E+00 -0.71054273576E-14  0.54290544520E+02  0.45814672251E+03  0.45491862582E+03 0.  0.
      99925    2    3    3    0    0 -0.94549147105E+02  0.51234263800E+02  0.69495775500E+02  0.29248683553E+03  0.26297223264E+03 0.  0.
         25    1    4    4    0    0 -0.22934440332E+02 -0.33343151000E+01  0.51765599888E+02  0.13734733941E+03  0.12509000000E+03 0.  0.
         25    1    4    4    0    0 -0.71614706773E+02  0.54568578900E+02  0.17730175612E+02  0.15513949612E+03  0.12509000000E+03 0.  0.
         25    1    3    3    0    0  0.94549147105E+02 -0.51234263800E+02 -0.15205230979E+02  0.16565988698E+03  0.12509000000E+03 0.  0.
<mgrwt>
<rscale>  2 0.45491863E+03</rscale>
<asrwt>0</asrwt>
<pdfrwt beam="1">  1       21 0.37679211E-01 0.45491863E+03</pdfrwt>
<pdfrwt beam="2">  1       21 0.29695307E-01 0.45491863E+03</pdfrwt>
<totfact> 0.68360135E+04</totfact>
</mgrwt>
</event>
<event>
 7    0  0.4750554E-002  0.4495898E+03  0.7546771E-02  0.1027844E+00
         21   -1    0    0  502  501  0.00000000000E+00  0.00000000000E+00  0.12833310859E+03  0.12833310859E+03  0.00000000000E+00 0.  1.
         21   -1    0    0  501  502 -0.00000000000E+00 -0.00000000000E+00 -0.39376241381E+03  0.39376241381E+03  0.00000000000E+00 0.  1.
      99926    2    1    2    0    0  0.14210854715E-13 -0.17763568394E-14 -0.26542930522E+03  0.52209552240E+03  0.44958983356E+03 0.  0.
      99925    2    3    3    0    0 -0.10586323678E+03  0.10972893042E+02 -0.18910941073E+03  0.34098874815E+03  0.26302761805E+03 0.  0.
         25    1    4    4    0    0 -0.77645747564E+02  0.13709900511E+02 -0.61768553199E+02  0.16024882449E+03  0.12509000000E+03 0.  0.
         25    1    4    4    0    0 -0.28217489213E+02 -0.27370074690E+01 -0.12734085753E+03  0.18073992366E+03  0.12509000000E+03 0.  0.
         25    1    3    3    0    0  0.10586323678E+03 -0.10972893042E+02 -0.76319894491E+02  0.18110677425E+03  0.12509000000E+03 0.  0.
<mgrwt>
<rscale>  2 0.44958983E+03</rscale>
<asrwt>0</asrwt>
<pdfrwt beam="1">  1       21 0.18872516E-01 0.44958983E+03</pdfrwt>
<pdfrwt beam="2">  1       21 0.57906238E-01 0.44958983E+03</pdfrwt>
<totfact> 0.66553607E+04</totfact>
</mgrwt>
</event>
<event>
 7    0  0.4750554E-002  0.4610956E+03  0.7546771E-02  0.1024464E+00
         21   -1    0    0  502  501  0.00000000000E+00  0.00000000000E+00  0.20909509604E+03  0.20909509604E+03  0.00000000000E+00 0. -1.
         21   -1    0    0  501  502 -0.00000000000E+00 -0.00000000000E+00 -0.25420151167E+03  0.25420151167E+03  0.00000000000E+00 0. -1.
      99926    2    1    2    0    0  0.00000000000E+00  0.00000000000E+00 -0.45106415629E+02  0.46329660770E+03  0.46109560611E+03 0.  0.
      99925    2    3    3    0    0  0.23123377851E+01  0.11739926164E+03 -0.10774086448E+02  0.28832760912E+03  0.26311365548E+03 0.  0.
         25    1    3    3    0    0 -0.23123377851E+01 -0.11739926164E+03 -0.34332329181E+02  0.17496899859E+03  0.12509000000E+03 0.  0.
         25    1    4    4    0    0 -0.30742275530E+02  0.78421259788E+02 -0.23403653510E+02  0.15261133834E+03  0.12509000000E+03 0.  0.
         25    1    4    4    0    0  0.33054613315E+02  0.38978001852E+02  0.12629567062E+02  0.13571627078E+03  0.12509000000E+03 0.  0.
<mgrwt>
<rscale>  2 0.46109561E+03</rscale>
<asrwt>0</asrwt>
<pdfrwt beam="1">  1       21 0.30749279E-01 0.46109561E+03</pdfrwt>
<pdfrwt beam="2">  1       21 0.37382575E-01 0.46109561E+03</pdfrwt>
<totfact> 0.64736063E+04</totfact>
</mgrwt>
</event>
<event>
 7    0  0.4750554E-002  0.4569614E+03  0.7546771E-02  0.1025666E+00
         21   -1    0    0  502  501  0.00000000000E+00  0.00000000000E+00  0.35211925170E+03  0.35211925170E+03  0.00000000000E+00 0.  1.
         21   -1    0    0  501  502 -0.00000000000E+00 -0.00000000000E+00 -0.14825496389E+03  0.14825496389E+03  0.00000000000E+00 0.  1.
      99926    2    1    2    0    0 -0.14210854715E-13 -0.14210854715E-13  0.20386428781E+03  0.50037421558E+03  0.45696138543E+03 0.  0.
      99925    2    3    3    0    0  0.85340693767E+02  0.73264428229E+02  0.10172994386E+03  0.30357573294E+03  0.26298010133E+03 0.  0.
         25    1    4    4    0    0  0.78228375020E+02  0.23658267518E+02  0.70653136798E+02  0.16528389552E+03  0.12509000000E+03 0.  0.
         25    1    3    3    0    0 -0.85340693767E+02 -0.73264428229E+02  0.10213434395E+03  0.19679848264E+03  0.12509000000E+03 0.  0.
         25    1    4    4    0    0  0.71123187462E+01  0.49606160711E+02  0.31076807058E+02  0.13829183741E+03  0.12509000000E+03 0.  0.
<mgrwt>
<rscale>  2 0.45696139E+03</rscale>
<asrwt>0</asrwt>
<pdfrwt beam="1">  1       21 0.51782243E-01 0.45696139E+03</pdfrwt>
<pdfrwt beam="2">  1       21 0.21802201E-01 0.45696139E+03</pdfrwt>
<totfact> 0.64238363E+04</totfact>
</mgrwt>
</event>
<event>
 7    0  0.4750554E-002  0.4574234E+03  0.7546771E-02  0.1025531E+00
         21   -1    0    0  502  501  0.00000000000E+00  0.00000000000E+00  0.33881161204E+03  0.33881161204E+03  0.00000000000E+00 0.  1.
         21   -1    0    0  501  502 -0.00000000000E+00 -0.00000000000E+00 -0.15438974106E+03  0.15438974106E+03  0.00000000000E+00 0.  1.
      99926    2    1    2    0    0  0.00000000000E+00  0.00000000000E+00  0.18442187098E+03  0.49320135309E+03  0.45742337959E+03 0.  0.
      99925    2    3    3    0    0  0.10182035771E+03 -0.53608190199E+02  0.12504937291E+03  0.31316295462E+03  0.26304461062E+03 0.  0.
         25    1    4    4    0    0  0.77319750885E+02 -0.18429666159E+02  0.32412589072E+02  0.15171051546E+03  0.12509000000E+03 0.  0.
         25    1    4    4    0    0  0.24500606824E+02 -0.35178524040E+02  0.92636783839E+02  0.16145243915E+03  0.12509000000E+03 0.  0.
         25    1    3    3    0    0 -0.10182035771E+03  0.53608190199E+02  0.59372498067E+02  0.18003839848E+03  0.12509000000E+03 0.  0.
<mgrwt>
<rscale>  2 0.45742338E+03</rscale>
<asrwt>0</asrwt>
<pdfrwt beam="1">  1       21 0.49825237E-01 0.45742338E+03</pdfrwt>
<pdfrwt beam="2">  1       21 0.22704374E-01 0.45742338E+03</pdfrwt>
<totfact> 0.64501112E+04</totfact>
</mgrwt>
</event>
<event>
 7    0  0.4750554E-002  0.4538218E+03  0.7546771E-02  0.1026588E+00
         21   -1    0    0  502  501  0.00000000000E+00  0.00000000000E+00  0.39291130108E+03  0.39291130108E+03  0.00000000000E+00 0.  1.
         21   -1    0    0  501  502 -0.00000000000E+00 -0.00000000000E+00 -0.13104373754E+03  0.13104373754E+03  0.00000000000E+00 0.  1.
      99926    2    1    2    0    0  0.35527136788E-14  0.00000000000E+00  0.26186756354E+03  0.52395503863E+03  0.45382183913E+03 0.  0.
      99925    2    3    3    0    0 -0.23524110599E+02 -0.97139219728E+02  0.10651467014E+03  0.30085989889E+03  0.26302450839E+03 0.  0.
         25    1    4    4    0    0 -0.45917467391E+02 -0.71698957963E+02  0.48812160042E+02  0.15899462083E+03  0.12509000000E+03 0.  0.
         25    1    4    4    0    0  0.22393356793E+02 -0.25440261765E+02  0.57702510101E+02  0.14186527806E+03  0.12509000000E+03 0.  0.
         25    1    3    3    0    0  0.23524110599E+02  0.97139219728E+02  0.15535289340E+03  0.22309513974E+03  0.12509000000E+03 0.  0.
<mgrwt>
<rscale>  2 0.45382184E+03</rscale>
<asrwt>0</asrwt>
<pdfrwt beam="1">  1       21 0.57781073E-01 0.45382184E+03</pdfrwt>
<pdfrwt beam="2">  1       21 0.19271138E-01 0.45382184E+03</pdfrwt>
<totfact> 0.64215230E+04</totfact>
</mgrwt>
</event>
<event>
 7    0  0.4750554E-002  0.4556697E+03  0.7546771E-02  0.1026045E+00
         21   -1    0    0  502  501  0.00000000000E+00  0.00000000000E+00  0.11740384285E+03  0.11740384285E+03  0.00000000000E+00 0.  1.
         21   -1    0    0  501  502 -0.00000000000E+00 -0.00000000000E+00 -0.44213808168E+03  0.44213808168E+03  0.00000000000E+00 0.  1.
      99926    2    1    2    0    0  0.00000000000E+00 -0.13322676296E-14 -0.32473423883E+03  0.55954192453E+03  0.45566966044E+03 0.  0.
      99925    2    3    3    0    0  0.70753788664E+02  0.22046275513E+01 -0.94716406340E+02  0.28831015951E+03  0.26294598581E+03 0.  0.
         25    1    4    4    0    0  0.37481639979E+01 -0.21876083295E+02 -0.58635335325E+02  0.13992220125E+03  0.12509000000E+03 0.  0.
         25    1    4    4    0    0  0.67005624666E+02  0.24080710847E+02 -0.36081071015E+02  0.14838795826E+03  0.12509000000E+03 0.  0.
         25    1    3    3    0    0 -0.70753788664E+02 -0.22046275513E+01 -0.23001783249E+03  0.27123176502E+03  0.12509000000E+03 0.  0.
<mgrwt>
<rscale>  2 0.45566966E+03</rscale>
<asrwt>0</asrwt>
<pdfrwt beam="1">  1       21 0.17265271E-01 0.45566966E+03</pdfrwt>
<pdfrwt beam="2">  1       21 0.65020306E-01 0.45566966E+03</pdfrwt>
<totfact> 0.60917024E+04</totfact>
</mgrwt>
</event>
<event>
 7    0  0.4750554E-002  0.4568763E+03  0.7546771E-02  0.1025691E+00
         21   -1    0    0  502  501  0.00000000000E+00  0.00000000000E+00  0.12619027110E+03  0.12619027110E+03  0.00000000000E+00 0.  1.
         21   -1    0    0  501  502 -0.00000000000E+00 -0.00000000000E+00 -0.41353417878E+03  0.41353417878E+03  0.00000000000E+00 0.  1.
      99926    2    1    2    0    0  0.00000000000E+00  0.71054273576E-14 -0.28734390768E+03  0.53972444988E+03  0.45687630768E+03 0.  0.
      99925    2    3    3    0    0 -0.41708621977E+02 -0.53984011457E+02 -0.71331285931E+02  0.28095265177E+03  0.26304440223E+03 0.  0.
         25    1    4    4    0    0 -0.19718697625E+02 -0.44032909087E+02 -0.74764881286E+02  0.15350902153E+03  0.12509000000E+03 0.  0.
         25    1    4    4    0    0 -0.21989924352E+02 -0.99511023697E+01  0.34335953549E+01  0.12744363024E+03  0.12509000000E+03 0.  0.
         25    1    3    3    0    0  0.41708621977E+02  0.53984011457E+02 -0.21601262175E+03  0.25877179810E+03  0.12509000000E+03 0.  0.
<mgrwt>
<rscale>  2 0.45687631E+03</rscale>
<asrwt>0</asrwt>
<pdfrwt beam="1">  1       21 0.18557393E-01 0.45687631E+03</pdfrwt>
<pdfrwt beam="2">  1       21 0.60813848E-01 0.45687631E+03</pdfrwt>
<totfact> 0.61630410E+04</totfact>
</mgrwt>
</event>
<event>
 7    0  0.4750554E-002  0.4563899E+03  0.7546771E-02  0.1025833E+00
         21   -1    0    0  502  501  0.00000000000E+00  0.00000000000E+00  0.46319200273E+03  0.46319200273E+03  0.00000000000E+00 0.  1.
         21   -1    0    0  501  502 -0.00000000000E+00 -0.00000000000E+00 -0.11242192968E+03  0.11242192968E+03  0.00000000000E+00 0.  1.
      99926    2    1    2    0    0 -0.71054273576E-14  0.00000000000E+00  0.35077007305E+03  0.57561393242E+03  0.45638991559E+03 0.  0.
      99925    2    3    3    0    0  0.60853190096E+02 -0.65729301993E+02  0.31034728216E+03  0.41653859804E+03  0.26299337677E+03 0.  0.
         25    1    4    4    0    0  0.20475141290E+02 -0.57406010713E+02  0.20557352415E+03  0.24823912546E+03  0.12509000000E+03 0.  0.
         25    1    3    3    0    0 -0.60853190096E+02  0.65729301993E+02  0.40422790889E+02  0.15907533438E+03  0.12509000000E+03 0.  0.
         25    1    4    4    0    0  0.40378048805E+02 -0.83232912792E+01  0.10477375801E+03  0.16829947258E+03  0.12509000000E+03 0.  0.
<mgrwt>
<rscale>  2 0.45638992E+03</rscale>
<asrwt>0</asrwt>
<pdfrwt beam="1">  1       21 0.68116470E-01 0.45638992E+03</pdfrwt>
<pdfrwt beam="2">  1       21 0.16532637E-01 0.45638992E+03</pdfrwt>
<totfact> 0.59547864E+04</totfact>
</mgrwt>
</event>
<event>
 7    0  0.4750554E-002  0.4538999E+03  0.7546771E-02  0.1026565E+00
         21   -1    0    0  502  501  0.00000000000E+00  0.00000000000E+00  0.26687946641E+03  0.26687946641E+03  0.00000000000E+00 0. -1.
         21   -1    0    0  501  502 -0.00000000000E+00 -0.00000000000E+00 -0.19299451174E+03  0.19299451174E+03  0.00000000000E+00 0. -1.
      99926    2    1    2    0    0 -0.35527136788E-14  0.14210854715E-13  0.73884954667E+02  0.45987397815E+03  0.45389986699E+03 0.  0.
      99925    2    3    3    0    0  0.29974336760E+02 -0.10083788323E+03  0.85278824795E+02  0.29603238412E+03  0.26324124854E+03 0.  0.
         25    1    3    3    0    0 -0.29974336760E+02  0.10083788323E+03 -0.11393870128E+02  0.16384159403E+03  0.12509000000E+03 0.  0.
         25    1    4    4    0    0  0.56478209416E+01 -0.92576700836E+02  0.43860053478E+02  0.16178243356E+03  0.12509000000E+03 0.  0.
         25    1    4    4    0    0  0.24326515818E+02 -0.82611823942E+01  0.41418771318E+02  0.13424995055E+03  0.12509000000E+03 0.  0.
<mgrwt>
<rscale>  2 0.45389987E+03</rscale>
<asrwt>0</asrwt>
<pdfrwt beam="1">  1       21 0.39246981E-01 0.45389987E+03</pdfrwt>
<pdfrwt beam="2">  1       21 0.28381546E-01 0.45389987E+03</pdfrwt>
<totfact> 0.68791228E+04</totfact>
</mgrwt>
</event>
<event>
 7    0  0.4750554E-002  0.4697407E+03  0.7546771E-02  0.1021993E+00
         21   -1    0    0  502  501  0.00000000000E+00  0.00000000000E+00  0.54639819958E+02  0.54639819958E+02  0.00000000000E+00 0. -1.
         21   -1    0    0  501  502 -0.00000000000E+00 -0.00000000000E+00 -0.10095950077E+04  0.10095950077E+04  0.00000000000E+00 0. -1.
      99926    2    1    2    0    0  0.00000000000E+00  0.14210854715E-13 -0.95495518778E+03  0.10642348277E+04  0.46974073468E+03 0.  0.
      99925    2    3    3    0    0  0.38878989682E+02  0.12029072592E+03 -0.60232031751E+03  0.66929142110E+03  0.26302054463E+03 0.  0.
         25    1    4    4    0    0  0.23622016338E+01  0.18754480897E+02 -0.27056840045E+03  0.29868390980E+03  0.12509000000E+03 0.  0.
         25    1    4    4    0    0  0.36516788048E+02  0.10153624502E+03 -0.33175191706E+03  0.37060751130E+03  0.12509000000E+03 0.  0.
         25    1    3    3    0    0 -0.38878989682E+02 -0.12029072592E+03 -0.35263487028E+03  0.39494340660E+03  0.12509000000E+03 0.  0.
<mgrwt>
<rscale>  2 0.46974073E+03</rscale>
<asrwt>0</asrwt>
<pdfrwt beam="1">  1       21 0.80352676E-02 0.46974073E+03</pdfrwt>
<pdfrwt beam="2">  1       21 0.14846986E+00 0.46974073E+03</pdfrwt>
<totfact> 0.32818230E+04</totfact>
</mgrwt>
</event>
<event>
 7    0  0.4750554E-002  0.4477447E+03  0.7546771E-02  0.1028397E+00
         21   -1    0    0  502  501  0.00000000000E+00  0.00000000000E+00  0.28048605445E+02  0.28048605445E+02  0.00000000000E+00 0. -1.
         21   -1    0    0  501  502 -0.00000000000E+00 -0.00000000000E+00 -0.17868567337E+04  0.17868567337E+04  0.00000000000E+00 0. -1.
      99926    2    1    2    0    0 -0.33306690739E-15  0.00000000000E+00 -0.17588081283E+04  0.18149053392E+04  0.44774474653E+03 0.  0.
      99925    2    3    3    0    0 -0.95749309527E+00 -0.32943637238E+02 -0.70384453717E+03  0.75204039634E+03  0.26283345525E+03 0.  0.
         25    1    4    4    0    0 -0.46740538832E+01 -0.48742026106E+02 -0.43100621891E+03  0.45145487120E+03  0.12509000000E+03 0.  0.
         25    1    3    3    0    0  0.95749309527E+00  0.32943637238E+02 -0.10549635911E+04  0.10628649428E+04  0.12509000000E+03 0.  0.
         25    1    4    4    0    0  0.37165607879E+01  0.15798388868E+02 -0.27283831826E+03  0.30058552514E+03  0.12509000000E+03 0.  0.
<mgrwt>
<rscale>  2 0.44774475E+03</rscale>
<asrwt>0</asrwt>
<pdfrwt beam="1">  1       21 0.41247936E-02 0.44774475E+03</pdfrwt>
<pdfrwt beam="2">  1       21 0.26277314E+00 0.44774475E+03</pdfrwt>
<totfact> 0.17965312E+04</totfact>
</mgrwt>
</event>
<event>
 7    0  0.4750554E-002  0.4530549E+03  0.7546771E-02  0.1026815E+00
         21   -1    0    0  502  501  0.00000000000E+00  0.00000000000E+00  0.78998510884E+03  0.78998510884E+03  0.00000000000E+00 0.  1.
         21   -1    0    0  501  502 -0.00000000000E+00 -0.00000000000E+00 -0.64956513111E+02  0.64956513111E+02  0.00000000000E+00 0.  1.
      99926    2    1    2    0    0 -0.35527136788E-14  0.00000000000E+00  0.72502859573E+03  0.85494162195E+03  0.45305486679E+03 0.  0.
      99925    2    3    3    0    0  0.24719580275E+02  0.72450626504E+02  0.30479361196E+03  0.40985163036E+03  0.26309515786E+03 0.  0.
         25    1    4    4    0    0  0.46086917402E+02  0.37708687726E+02  0.12180388020E+03  0.18447125093E+03  0.12509000000E+03 0.  0.
         25    1    3    3    0    0 -0.24719580275E+02 -0.72450626504E+02  0.42023498377E+03  0.44508999159E+03  0.12509000000E+03 0.  0.
         25    1    4    4    0    0 -0.21367337127E+02  0.34741938778E+02  0.18298973175E+03  0.22538037943E+03  0.12509000000E+03 0.  0.
<mgrwt>
<rscale>  2 0.45305487E+03</rscale>
<asrwt>0</asrwt>
<pdfrwt beam="1">  1       21 0.11617427E+00 0.45305487E+03</pdfrwt>
<pdfrwt beam="2">  1       21 0.95524289E-02 0.45305487E+03</pdfrwt>
<totfact> 0.45915686E+04</totfact>
</mgrwt>
</event>
<event>
 7    0  0.4750554E-002  0.4581000E+03  0.7546771E-02  0.1025334E+00
         21   -1    0    0  502  501  0.00000000000E+00  0.00000000000E+00  0.20043246226E+03  0.20043246226E+03  0.00000000000E+00 0. -1.
         21   -1    0    0  501  502 -0.00000000000E+00 -0.00000000000E+00 -0.26175347838E+03  0.26175347838E+03  0.00000000000E+00 0. -1.
      99926    2    1    2    0    0  0.00000000000E+00 -0.44408920985E-15 -0.61321016115E+02  0.46218594064E+03  0.45809996366E+03 0.  0.
      99925    2    3    3    0    0  0.57431042602E+02  0.21905965942E+01  0.63085931050E+02  0.27663885775E+03  0.26314653627E+03 0.  0.
         25    1    4    4    0    0  0.46170993394E+02  0.24034032479E+02  0.25425829702E+01  0.13551150570E+03  0.12509000000E+03 0.  0.
         25    1    3    3    0    0 -0.57431042602E+02 -0.21905965942E+01 -0.12440694717E+03  0.18554708289E+03  0.12509000000E+03 0.  0.
         25    1    4    4    0    0  0.11260049207E+02 -0.21843435884E+02  0.60543348080E+02  0.14112735205E+03  0.12509000000E+03 0.  0.
<mgrwt>
<rscale>  2 0.45809996E+03</rscale>
<asrwt>0</asrwt>
<pdfrwt beam="1">  1       21 0.29475362E-01 0.45809996E+03</pdfrwt>
<pdfrwt beam="2">  1       21 0.38493158E-01 0.45809996E+03</pdfrwt>
<totfact> 0.66365647E+04</totfact>
</mgrwt>
</event>
<event>
 7    0  0.4750554E-002  0.4487053E+03  0.7546771E-02  0.1028109E+00
         21   -1    0    0  502  501  0.00000000000E+00  0.00000000000E+00  0.53041476669E+03  0.53041476669E+03  0.00000000000E+00 0.  1.
         21   -1    0    0  501  502 -0.00000000000E+00 -0.00000000000E+00 -0.94895756229E+02  0.94895756229E+02  0.00000000000E+00 0.  1.
      99926    2    1    2    0    0  0.00000000000E+00  0.00000000000E+00  0.43551901046E+03  0.62531052292E+03  0.44870529482E+03 0.  0.
      99925    2    3    3    0    0  0.48118839491E+02 -0.40145394760E+02  0.15441511890E+03  0.31131373729E+03  0.26295463230E+03 0.  0.
         25    1    4    4    0    0  0.20436479197E+02 -0.46666126643E+02  0.11420386313E+03  0.17687681451E+03  0.12509000000E+03 0.  0.
         25    1    3    3    0    0 -0.48118839491E+02  0.40145394760E+02  0.28110389156E+03  0.31399678563E+03  0.12509000000E+03 0.  0.
         25    1    4    4    0    0  0.27682360294E+02  0.65207318830E+01  0.40211255769E+02  0.13443692278E+03  0.12509000000E+03 0.  0.
<mgrwt>
<rscale>  2 0.44870529E+03</rscale>
<asrwt>0</asrwt>
<pdfrwt beam="1">  1       21 0.78002170E-01 0.44870529E+03</pdfrwt>
<pdfrwt beam="2">  1       21 0.13955259E-01 0.44870529E+03</pdfrwt>
<totfact> 0.60077158E+04</totfact>
</mgrwt>
</event>
<event>
 7    0  0.4750554E-002  0.4482952E+03  0.7546771E-02  0.1028232E+00
         21   -1    0    0  502  501  0.00000000000E+00  0.00000000000E+00  0.66448735081E+03  0.66448735081E+03  0.00000000000E+00 0. -1.
         21   -1    0    0  501  502 -0.00000000000E+00 -0.00000000000E+00 -0.75610385780E+02  0.75610385780E+02  0.00000000000E+00 0. -1.
      99926    2    1    2    0    0 -0.44408920985E-15  0.00000000000E+00  0.58887696503E+03  0.74009773659E+03  0.44829519266E+03 0.  0.
      99925    2    3    3    0    0  0.26227271340E+01 -0.50469238299E+02  0.21764360983E+03  0.34510946483E+03  0.26301668978E+03 0.  0.
         25    1    3    3    0    0 -0.26227271340E+01  0.50469238299E+02  0.37123335520E+03  0.39498827176E+03  0.12509000000E+03 0.  0.
         25    1    4    4    0    0  0.55276179943E+01  0.12129269495E+02  0.81491824478E+02  0.14988695506E+03  0.12509000000E+03 0.  0.
         25    1    4    4    0    0 -0.29048908603E+01 -0.62598507794E+02  0.13615178535E+03  0.19522250977E+03  0.12509000000E+03 0.  0.
<mgrwt>
<rscale>  2 0.44829519E+03</rscale>
<asrwt>0</asrwt>
<pdfrwt beam="1">  1       21 0.97718725E-01 0.44829519E+03</pdfrwt>
<pdfrwt beam="2">  1       21 0.11119175E-01 0.44829519E+03</pdfrwt>
<totfact> 0.53546462E+04</totfact>
</mgrwt>
</event>
<event>
 7    0  0.4750554E-002  0.4562787E+03  0.7546771E-02  0.1025866E+00
         21   -1    0    0  502  501  0.00000000000E+00  0.00000000000E+00  0.29039713968E+03  0.29039713968E+03  0.00000000000E+00 0.  1.
         21   -1    0    0  501  502 -0.00000000000E+00 -0.00000000000E+00 -0.17922890218E+03  0.17922890218E+03  0.00000000000E+00 0.  1.
      99926    2    1    2    0    0 -0.14210854715E-13  0.00000000000E+00  0.11116823750E+03  0.46962604186E+03  0.45627868914E+03 0.  0.
      99925    2    3    3    0    0 -0.10166512175E+03 -0.46763487573E+02  0.94472689861E+02  0.30095811319E+03  0.26292218624E+03 0.  0.
         25    1    3    3    0    0  0.10166512175E+03  0.46763487573E+02  0.16695547642E+02  0.16866792867E+03  0.12509000000E+03 0.  0.
         25    1    4    4    0    0 -0.21372260351E+02  0.84237260130E+01  0.43148308083E+02  0.13430196299E+03  0.12509000000E+03 0.  0.
         25    1    4    4    0    0 -0.80292861403E+02 -0.55187213585E+02  0.51324381778E+02  0.16665615020E+03  0.12509000000E+03 0.  0.
<mgrwt>
<rscale>  2 0.45627869E+03</rscale>
<asrwt>0</asrwt>
<pdfrwt beam="1">  1       21 0.42705462E-01 0.45627869E+03</pdfrwt>
<pdfrwt beam="2">  1       21 0.26357192E-01 0.45627869E+03</pdfrwt>
<totfact> 0.66783624E+04</totfact>
</mgrwt>
</event>
<event>
 7    0  0.4750554E-002  0.4588377E+03  0.7546771E-02  0.1025119E+00
         21   -1    0    0  502  501  0.00000000000E+00  0.00000000000E+00  0.46550916411E+02  0.46550916411E+02  0.00000000000E+00 0. -1.
         21   -1    0    0  501  502 -0.00000000000E+00 -0.00000000000E+00 -0.11306544738E+04  0.11306544738E+04  0.00000000000E+00 0. -1.
      99926    2    1    2    0    0  0.00000000000E+00 -0.35527136788E-14 -0.10841035574E+04  0.11772053902E+04  0.45883767020E+03 0.  0.
      99925    2    3    3    0    0 -0.11342681206E+03 -0.25650985757E+02 -0.66787771195E+03  0.72729975868E+03  0.26340213763E+03 0.  0.
         25    1    3    3    0    0  0.11342681206E+03  0.25650985757E+02 -0.41622584543E+03  0.44990563152E+03  0.12509000000E+03 0.  0.
         25    1    4    4    0    0 -0.15862994800E+02 -0.28214052270E+02 -0.30729464350E+03  0.33335442606E+03  0.12509000000E+03 0.  0.
         25    1    4    4    0    0 -0.97563817258E+02  0.25630665132E+01 -0.36058306845E+03  0.39394533263E+03  0.12509000000E+03 0.  0.
<mgrwt>
<rscale>  2 0.45883767E+03</rscale>
<asrwt>0</asrwt>
<pdfrwt beam="1">  1       21 0.68457231E-02 0.45883767E+03</pdfrwt>
<pdfrwt beam="2">  1       21 0.16627272E+00 0.45883767E+03</pdfrwt>
<totfact> 0.31921656E+04</totfact>
</mgrwt>
</event>
<event>
 7    0  0.4750554E-002  0.4498674E+03  0.7546771E-02  0.1027762E+00
         21   -1    0    0  502  501  0.00000000000E+00  0.00000000000E+00  0.28998833200E+03  0.28998833200E+03  0.00000000000E+00 0. -1.
         21   -1    0    0  501  502 -0.00000000000E+00 -0.00000000000E+00 -0.17447315810E+03  0.17447315810E+03  0.00000000000E+00 0. -1.
      99926    2    1    2    0    0  0.14210854715E-13  0.00000000000E+00  0.11551517390E+03  0.46446149010E+03  0.44986744757E+03 0.  0.
      99925    2    3    3    0    0  0.95758166635E+02  0.24747221615E+02  0.27622369460E+02  0.28237715626E+03  0.26304336454E+03 0.  0.
         25    1    3    3    0    0 -0.95758166635E+02 -0.24747221615E+02  0.87892804444E+02  0.18208433383E+03  0.12509000000E+03 0.  0.
         25    1    4    4    0    0  0.79130858813E+02  0.32729404420E+02  0.35484205969E+02  0.15569053826E+03  0.12509000000E+03 0.  0.
         25    1    4    4    0    0  0.16627307822E+02 -0.79821828046E+01 -0.78618365092E+01  0.12668661800E+03  0.12509000000E+03 0.  0.
<mgrwt>
<rscale>  2 0.44986745E+03</rscale>
<asrwt>0</asrwt>
<pdfrwt beam="1">  1       21 0.42645343E-01 0.44986745E+03</pdfrwt>
<pdfrwt beam="2">  1       21 0.25657817E-01 0.44986745E+03</pdfrwt>
<totfact> 0.70684233E+04</totfact>
</mgrwt>
</event>
<event>
 7    0  0.4750554E-002  0.4499219E+03  0.7546771E-02  0.1027745E+00
         21   -1    0    0  502  501  0.00000000000E+00  0.00000000000E+00  0.85700951802E+02  0.85700951802E+02  0.00000000000E+00 0.  1.
         21   -1    0    0  501  502 -0.00000000000E+00 -0.00000000000E+00 -0.59051197627E+03  0.59051197627E+03  0.00000000000E+00 0.  1.
      99926    2    1    2    0    0  0.35527136788E-14  0.14210854715E-13 -0.50481102447E+03  0.67621292807E+03  0.44992194175E+03 0.  0.
      99925    2    3    3    0    0  0.30463224557E+02  0.10240028868E+03 -0.29292525369E+03  0.40796506670E+03  0.26309022070E+03 0.  0.
         25    1    3    3    0    0 -0.30463224557E+02 -0.10240028868E+03 -0.21188577078E+03  0.26824786137E+03  0.12509000000E+03 0.  0.
         25    1    4    4    0    0 -0.18648454160E+02  0.38937625021E+02 -0.16771054895E+03  0.21363108345E+03  0.12509000000E+03 0.  0.
         25    1    4    4    0    0  0.49111678717E+02  0.63462663658E+02 -0.12521470474E+03  0.19433398325E+03  0.12509000000E+03 0.  0.
<mgrwt>
<rscale>  2 0.44992194E+03</rscale>
<asrwt>0</asrwt>
<pdfrwt beam="1">  1       21 0.12603082E-01 0.44992194E+03</pdfrwt>
<pdfrwt beam="2">  1       21 0.86839994E-01 0.44992194E+03</pdfrwt>
<totfact> 0.56437436E+04</totfact>
</mgrwt>
</event>
<event>
 7    0  0.4750554E-002  0.4250264E+03  0.7546771E-02  0.1035443E+00
         21   -1    0    0  502  501  0.00000000000E+00  0.00000000000E+00  0.11165050316E+04  0.11165050316E+04  0.00000000000E+00 0. -1.
         21   -1    0    0  501  502 -0.00000000000E+00 -0.00000000000E+00 -0.40449319615E+02  0.40449319615E+02  0.00000000000E+00 0. -1.
      99926    2    1    2    0    0 -0.35527136788E-14  0.00000000000E+00  0.10760557120E+04  0.11569543512E+04  0.42502644094E+03 0.  0.
      99925    2    3    3    0    0  0.16101975191E+02 -0.74766085107E+02  0.77792761237E+03  0.82472383942E+03  0.26296159440E+03 0.  0.
         25    1    4    4    0    0 -0.26025784683E+02 -0.16043012922E+02  0.39438464703E+03  0.41487525552E+03  0.12509000000E+03 0.  0.
         25    1    3    3    0    0 -0.16101975191E+02  0.74766085107E+02  0.29812809959E+03  0.33223051177E+03  0.12509000000E+03 0.  0.
         25    1    4    4    0    0  0.42127759874E+02 -0.58723072185E+02  0.38354296534E+03  0.40984858390E+03  0.12509000000E+03 0.  0.
<mgrwt>
<rscale>  2 0.42502644E+03</rscale>
<asrwt>0</asrwt>
<pdfrwt beam="1">  1       21 0.16419190E+00 0.42502644E+03</pdfrwt>
<pdfrwt beam="2">  1       21 0.59484301E-02 0.42502644E+03</pdfrwt>
<totfact> 0.42682096E+04</totfact>
</mgrwt>
</event>
<event>
 7    0  0.4750554E-002  0.4534371E+03  0.7546771E-02  0.1026702E+00
         21   -1    0    0  502  501  0.00000000000E+00  0.00000000000E+00  0.85862951383E+02  0.85862951383E+02  0.00000000000E+00 0.  1.
         21   -1    0    0  501  502 -0.00000000000E+00 -0.00000000000E+00 -0.59864353479E+03  0.59864353479E+03  0.00000000000E+00 0.  1.
      99926    2    1    2    0    0  0.00000000000E+00 -0.14210854715E-13 -0.51278058341E+03  0.68450648617E+03  0.45343709916E+03 0.  0.
      99925    2    3    3    0    0  0.15666448623E+02  0.91085025070E+02 -0.22854591977E+03  0.36050220917E+03  0.26303362136E+03 0.  0.
         25    1    3    3    0    0 -0.15666448623E+02 -0.91085025070E+02 -0.28423466363E+03  0.32400427700E+03  0.12509000000E+03 0.  0.
         25    1    4    4    0    0  0.30723768167E+02  0.79429789756E+02 -0.10968570809E+03  0.18689971667E+03  0.12509000000E+03 0.  0.
         25    1    4    4    0    0 -0.15057319544E+02  0.11655235314E+02 -0.11886021168E+03  0.17360249250E+03  0.12509000000E+03 0.  0.
<mgrwt>
<rscale>  2 0.45343710E+03</rscale>
<asrwt>0</asrwt>
<pdfrwt beam="1">  1       21 0.12626905E-01 0.45343710E+03</pdfrwt>
<pdfrwt beam="2">  1       21 0.88035811E-01 0.45343710E+03</pdfrwt>
<totfact> 0.54419040E+04</totfact>
</mgrwt>
</event>
<event>
 7    0  0.4750554E-002  0.4591414E+03  0.7546771E-02  0.1025031E+00
         21   -1    0    0  502  501  0.00000000000E+00  0.00000000000E+00  0.13134972444E+03  0.13134972444E+03  0.00000000000E+00 0.  1.
         21   -1    0    0  501  502 -0.00000000000E+00 -0.00000000000E+00 -0.40123954593E+03  0.40123954593E+03  0.00000000000E+00 0.  1.
      99926    2    1    2    0    0  0.00000000000E+00  0.00000000000E+00 -0.26988982149E+03  0.53258927037E+03  0.45914138908E+03 0.  0.
      99925    2    3    3    0    0 -0.79032124244E+02 -0.85680062195E+02 -0.15591195145E+03  0.32710055370E+03  0.26286704987E+03 0.  0.
         25    1    4    4    0    0 -0.42232730848E+02 -0.94056086741E+00 -0.73238026328E+02  0.15098279640E+03  0.12509000000E+03 0.  0.
         25    1    4    4    0    0 -0.36799393396E+02 -0.84739501328E+02 -0.82673925124E+02  0.17611775730E+03  0.12509000000E+03 0.  0.
         25    1    3    3    0    0  0.79032124244E+02  0.85680062195E+02 -0.11397787004E+03  0.20548871667E+03  0.12509000000E+03 0.  0.
<mgrwt>
<rscale>  2 0.45914139E+03</rscale>
<asrwt>0</asrwt>
<pdfrwt beam="1">  1       21 0.19316136E-01 0.45914139E+03</pdfrwt>
<pdfrwt beam="2">  1       21 0.59005816E-01 0.45914139E+03</pdfrwt>
<totfact> 0.61004416E+04</totfact>
</mgrwt>
</event>
<event>
 7    0  0.4750554E-002  0.4342386E+03  0.7546771E-02  0.1032529E+00
         21   -1    0    0  502  501  0.00000000000E+00  0.00000000000E+00  0.19413441728E+03  0.19413441728E+03  0.00000000000E+00 0.  1.
         21   -1    0    0  501  502 -0.00000000000E+00 -0.00000000000E+00 -0.24282553011E+03  0.24282553011E+03  0.00000000000E+00 0.  1.
      99926    2    1    2    0    0  0.14210854715E-13  0.35527136788E-14 -0.48691112836E+02  0.43695994739E+03  0.43423861085E+03 0.  0.
      99925    2    3    3    0    0  0.88790809829E+02  0.15369788176E+02 -0.10891485761E+02  0.27822633971E+03  0.26300424588E+03 0.  0.
         25    1    4    4    0    0  0.43561836858E+02  0.41379047509E+02  0.17133352792E+02  0.13982460113E+03  0.12509000000E+03 0.  0.
         25    1    4    4    0    0  0.45228972971E+02 -0.26009259333E+02 -0.28024838553E+02  0.13840173858E+03  0.12509000000E+03 0.  0.
         25    1    3    3    0    0 -0.88790809829E+02 -0.15369788176E+02 -0.37799627076E+02  0.15873360768E+03  0.12509000000E+03 0.  0.
<mgrwt>
<rscale>  2 0.43423861E+03</rscale>
<asrwt>0</asrwt>
<pdfrwt beam="1">  1       21 0.28549179E-01 0.43423861E+03</pdfrwt>
<pdfrwt beam="2">  1       21 0.35709637E-01 0.43423861E+03</pdfrwt>
<totfact> 0.82772257E+04</totfact>
</mgrwt>
</event>
<event>
 7    0  0.4750554E-002  0.4601713E+03  0.7546771E-02  0.1024732E+00
         21   -1    0    0  502  501  0.00000000000E+00  0.00000000000E+00  0.23664604796E+03  0.23664604796E+03  0.00000000000E+00 0. -1.
         21   -1    0    0  501  502 -0.00000000000E+00 -0.00000000000E+00 -0.22370710481E+03  0.22370710481E+03  0.00000000000E+00 0. -1.
      99926    2    1    2    0    0  0.00000000000E+00  0.00000000000E+00  0.12938943142E+02  0.46035315277E+03  0.46017128226E+03 0.  0.
      99925    2    3    3    0    0 -0.30311095257E+02  0.72611094580E+02 -0.79798680498E+02  0.28588565296E+03  0.26300502582E+03 0.  0.
         25    1    3    3    0    0  0.30311095257E+02 -0.72611094580E+02  0.92737623640E+02  0.17446749981E+03  0.12509000000E+03 0.  0.
         25    1    4    4    0    0 -0.10045407698E+02 -0.39928848019E+01 -0.25168222719E+02  0.12805389834E+03  0.12509000000E+03 0.  0.
         25    1    4    4    0    0 -0.20265687559E+02  0.76603979382E+02 -0.54630457779E+02  0.15783175462E+03  0.12509000000E+03 0.  0.
<mgrwt>
<rscale>  2 0.46017128E+03</rscale>
<asrwt>0</asrwt>
<pdfrwt beam="1">  1       21 0.34800890E-01 0.46017128E+03</pdfrwt>
<pdfrwt beam="2">  1       21 0.32898104E-01 0.46017128E+03</pdfrwt>
<totfact> 0.65414365E+04</totfact>
</mgrwt>
</event>
<event>
 7    0  0.4750554E-002  0.4530908E+03  0.7546771E-02  0.1026804E+00
         21   -1    0    0  502  501  0.00000000000E+00  0.00000000000E+00  0.12546100507E+03  0.12546100507E+03  0.00000000000E+00 0. -1.
         21   -1    0    0  501  502 -0.00000000000E+00 -0.00000000000E+00 -0.40907377583E+03  0.40907377583E+03  0.00000000000E+00 0. -1.
      99926    2    1    2    0    0 -0.71054273576E-14  0.71054273576E-14 -0.28361277076E+03  0.53453478089E+03  0.45309075056E+03 0.  0.
      99925    2    3    3    0    0  0.63320469916E+02 -0.38842711773E+02 -0.27655690681E+03  0.38887925754E+03  0.26310666291E+03 0.  0.
         25    1    4    4    0    0  0.24212416205E+02 -0.58639739797E+02 -0.15489405136E+03  0.20896060736E+03  0.12509000000E+03 0.  0.
         25    1    3    3    0    0 -0.63320469916E+02  0.38842711773E+02 -0.70558639437E+01  0.14565552336E+03  0.12509000000E+03 0.  0.
         25    1    4    4    0    0  0.39108053711E+02  0.19797028024E+02 -0.12166285545E+03  0.17991865017E+03  0.12509000000E+03 0.  0.
<mgrwt>
<rscale>  2 0.45309075E+03</rscale>
<asrwt>0</asrwt>
<pdfrwt beam="1">  1       21 0.18450148E-01 0.45309075E+03</pdfrwt>
<pdfrwt beam="2">  1       21 0.60157908E-01 0.45309075E+03</pdfrwt>
<totfact> 0.63859752E+04</totfact>
</mgrwt>
</event>
<event>
 7    0  0.4750554E-002  0.4334734E+03  0.7546771E-02  0.1032768E+00
         21   -1    0    0  502  501  0.00000000000E+00  0.00000000000E+00  0.65992727508E+03  0.65992727508E+03  0.00000000000E+00 0. -1.
         21   -1    0    0  501  502 -0.00000000000E+00 -0.00000000000E+00 -0.71181769464E+02  0.71181769464E+02  0.00000000000E+00 0. -1.
      99926    2    1    2    0    0  0.71054273576E-14 -0.71054273576E-14  0.58874550561E+03  0.73110904454E+03  0.43347337246E+03 0.  0.
      99925    2    3    3    0    0  0.59665492546E+02 -0.57536518052E+02  0.44382031870E+03  0.52249159606E+03  0.26296496107E+03 0.  0.
         25    1    4    4    0    0  0.45699507792E+01  0.52642191570E+01  0.20414073166E+03  0.23951939979E+03  0.12509000000E+03 0.  0.
         25    1    4    4    0    0  0.55095541767E+02 -0.62800737209E+02  0.23967958704E+03  0.28297219627E+03  0.12509000000E+03 0.  0.
         25    1    3    3    0    0 -0.59665492546E+02  0.57536518052E+02  0.14492518691E+03  0.20861744849E+03  0.12509000000E+03 0.  0.
<mgrwt>
<rscale>  2 0.43347337E+03</rscale>
<asrwt>0</asrwt>
<pdfrwt beam="1">  1       21 0.97048125E-01 0.43347337E+03</pdfrwt>
<pdfrwt beam="2">  1       21 0.10467908E-01 0.43347337E+03</pdfrwt>
<totfact> 0.60921972E+04</totfact>
</mgrwt>
</event>
<event>
 7    0  0.4750554E-002  0.4321153E+03  0.7546771E-02  0.1033194E+00
         21   -1    0    0  502  501  0.00000000000E+00  0.00000000000E+00  0.92477287686E+03  0.92477287686E+03  0.00000000000E+00 0.  1.
         21   -1    0    0  501  502 -0.00000000000E+00 -0.00000000000E+00 -0.50478231151E+02  0.50478231151E+02  0.00000000000E+00 0.  1.
      99926    2    1    2    0    0 -0.14210854715E-13 -0.35527136788E-14  0.87429464571E+03  0.97525110801E+03  0.43211525796E+03 0.  0.
      99925    2    3    3    0    0  0.80648456210E+02  0.26720882710E+02  0.49491850572E+03  0.56684941512E+03  0.26297481449E+03 0.  0.
         25    1    4    4    0    0  0.63006709761E+02 -0.35870170707E+01  0.19606967931E+03  0.24098452110E+03  0.12509000000E+03 0.  0.
         25    1    3    3    0    0 -0.80648456210E+02 -0.26720882710E+02  0.37937613999E+03  0.40840169289E+03  0.12509000000E+03 0.  0.
         25    1    4    4    0    0  0.17641746449E+02  0.30307899781E+02  0.29884882642E+03  0.32586489402E+03  0.12509000000E+03 0.  0.
<mgrwt>
<rscale>  2 0.43211526E+03</rscale>
<asrwt>0</asrwt>
<pdfrwt beam="1">  1       21 0.13599600E+00 0.43211526E+03</pdfrwt>
<pdfrwt beam="2">  1       21 0.74232699E-02 0.43211526E+03</pdfrwt>
<totfact> 0.48196446E+04</totfact>
</mgrwt>
</event>
<event>
 7    0  0.4750554E-002  0.4542233E+03  0.7546771E-02  0.1026470E+00
         21   -1    0    0  502  501  0.00000000000E+00  0.00000000000E+00  0.13512032163E+03  0.13512032163E+03  0.00000000000E+00 0. -1.
         21   -1    0    0  501  502 -0.00000000000E+00 -0.00000000000E+00 -0.38173157204E+03  0.38173157204E+03  0.00000000000E+00 0. -1.
      99926    2    1    2    0    0  0.00000000000E+00 -0.35527136788E-14 -0.24661125042E+03  0.51685189367E+03  0.45422326136E+03 0.  0.
      99925    2    3    3    0    0  0.84194828324E+02  0.28643132950E+02 -0.23362709483E+03  0.36282171943E+03  0.26296156081E+03 0.  0.
         25    1    4    4    0    0  0.14055025086E+02  0.37137451765E+02 -0.86475696474E+02  0.15716961613E+03  0.12509000000E+03 0.  0.
         25    1    4    4    0    0  0.70139803238E+02 -0.84943188148E+01 -0.14715139836E+03  0.20565210330E+03  0.12509000000E+03 0.  0.
         25    1    3    3    0    0 -0.84194828324E+02 -0.28643132950E+02 -0.12984155581E+02  0.15403017424E+03  0.12509000000E+03 0.  0.
<mgrwt>
<rscale>  2 0.45422326E+03</rscale>
<asrwt>0</asrwt>
<pdfrwt beam="1">  1       21 0.19870636E-01 0.45422326E+03</pdfrwt>
<pdfrwt beam="2">  1       21 0.56136996E-01 0.45422326E+03</pdfrwt>
<totfact> 0.64498856E+04</totfact>
</mgrwt>
</event>
<event>
 7    0  0.4750554E-002  0.4628139E+03  0.7546771E-02  0.1023968E+00
         21   -1    0    0  502  501  0.00000000000E+00  0.00000000000E+00  0.38967323024E+02  0.38967323024E+02  0.00000000000E+00 0. -1.
         21   -1    0    0  501  502 -0.00000000000E+00 -0.00000000000E+00 -0.13742070691E+04  0.13742070691E+04  0.00000000000E+00 0. -1.
      99926    2    1    2    0    0  0.00000000000E+00  0.26645352591E-14 -0.13352397461E+04  0.14131743921E+04  0.46281387518E+03 0.  0.
      99925    2    3    3    0    0  0.11177273389E+02 -0.51531888204E+01 -0.12002912327E+04  0.12287561280E+04  0.26266155396E+03 0.  0.
         25    1    4    4    0    0 -0.40764413852E+01  0.30754303372E+02 -0.68840087080E+03  0.70036112940E+03  0.12509000000E+03 0.  0.
         25    1    4    4    0    0  0.15253714774E+02 -0.35907492192E+02 -0.51189036188E+03  0.52839499855E+03  0.12509000000E+03 0.  0.
         25    1    3    3    0    0 -0.11177273389E+02  0.51531888204E+01 -0.13494851341E+03  0.18441826419E+03  0.12509000000E+03 0.  0.
<mgrwt>
<rscale>  2 0.46281388E+03</rscale>
<asrwt>0</asrwt>
<pdfrwt beam="1">  1       21 0.57304889E-02 0.46281388E+03</pdfrwt>
<pdfrwt beam="2">  1       21 0.20208927E+00 0.46281388E+03</pdfrwt>
<totfact> 0.24463577E+04</totfact>
</mgrwt>
</event>
<event>
 7    0  0.4750554E-002  0.4584905E+03  0.7546771E-02  0.1025220E+00
         21   -1    0    0  502  501  0.00000000000E+00  0.00000000000E+00  0.22586219732E+03  0.22586219732E+03  0.00000000000E+00 0.  1.
         21   -1    0    0  501  502 -0.00000000000E+00 -0.00000000000E+00 -0.23267896014E+03  0.23267896014E+03  0.00000000000E+00 0.  1.
      99926    2    1    2    0    0  0.00000000000E+00 -0.17763568394E-14 -0.68167628160E+01  0.45854115746E+03  0.45849048500E+03 0.  0.
      99925    2    3    3    0    0 -0.67873303626E+02 -0.47609530909E+01 -0.98656471066E+02  0.28909649945E+03  0.26308598345E+03 0.  0.
         25    1    4    4    0    0 -0.36247701260E+02  0.19902098597E+02 -0.13252370121E+02  0.13241269875E+03  0.12509000000E+03 0.  0.
         25    1    4    4    0    0 -0.31625602366E+02 -0.24663051688E+02 -0.85404100945E+02  0.15668380070E+03  0.12509000000E+03 0.  0.
         25    1    3    3    0    0  0.67873303626E+02  0.47609530909E+01  0.91839708250E+02  0.16944465802E+03  0.12509000000E+03 0.  0.
<mgrwt>
<rscale>  2 0.45849048E+03</rscale>
<asrwt>0</asrwt>
<pdfrwt beam="1">  1       21 0.33215029E-01 0.45849048E+03</pdfrwt>
<pdfrwt beam="2">  1       21 0.34217494E-01 0.45849048E+03</pdfrwt>
<totfact> 0.66418013E+04</totfact>
</mgrwt>
</event>
<event>
 7    0  0.4750554E-002  0.4489361E+03  0.7546771E-02  0.1028040E+00
         21   -1    0    0  502  501  0.00000000000E+00  0.00000000000E+00  0.48076235826E+02  0.48076235826E+02  0.00000000000E+00 0.  1.
         21   -1    0    0  501  502 -0.00000000000E+00 -0.00000000000E+00 -0.10480415978E+04  0.10480415978E+04  0.00000000000E+00 0.  1.
      99926    2    1    2    0    0  0.00000000000E+00  0.00000000000E+00 -0.99996536195E+03  0.10961178336E+04  0.44893605340E+03 0.  0.
      99925    2    3    3    0    0  0.45556993232E+02  0.96962849830E+02 -0.64545651382E+03  0.70521980933E+03  0.26314185216E+03 0.  0.
         25    1    3    3    0    0 -0.45556993232E+02 -0.96962849830E+02 -0.35450884813E+03  0.39089802428E+03  0.12509000000E+03 0.  0.
         25    1    4    4    0    0  0.26050849419E+02  0.91938080333E+02 -0.35782815867E+03  0.39092167580E+03  0.12509000000E+03 0.  0.
         25    1    4    4    0    0  0.19506143813E+02  0.50247694967E+01 -0.28762835515E+03  0.31429813353E+03  0.12509000000E+03 0.  0.
<mgrwt>
<rscale>  2 0.44893605E+03</rscale>
<asrwt>0</asrwt>
<pdfrwt beam="1">  1       21 0.70700344E-02 0.44893605E+03</pdfrwt>
<pdfrwt beam="2">  1       21 0.15412377E+00 0.44893605E+03</pdfrwt>
<totfact> 0.37365758E+04</totfact>
</mgrwt>
</event>
<event>
 7    0  0.4750554E-002  0.4469390E+03  0.7546771E-02  0.1028639E+00
         21   -1    0    0  502  501  0.00000000000E+00  0.00000000000E+00  0.14437206315E+03  0.14437206315E+03  0.00000000000E+00 0.  1.
         21   -1    0    0  501  502 -0.00000000000E+00 -0.00000000000E+00 -0.34590225735E+03  0.34590225735E+03  0.00000000000E+00 0.  1.
      99926    2    1    2    0    0  0.00000000000E+00  0.00000000000E+00 -0.20153019420E+03  0.49027432049E+03  0.44693902287E+03 0.  0.
      99925    2    3    3    0    0 -0.26290858837E+02  0.13665214875E+02 -0.16636190914E+02  0.26508274005E+03  0.26289569960E+03 0.  0.
         25    1    4    4    0    0  0.18007437634E+01  0.37424298772E+02  0.13439763799E+02  0.13127054570E+03  0.12509000000E+03 0.  0.
         25    1    4    4    0    0 -0.28091602600E+02 -0.23759083897E+02 -0.30075954713E+02  0.13381219435E+03  0.12509000000E+03 0.  0.
         25    1    3    3    0    0  0.26290858837E+02 -0.13665214875E+02 -0.18489400328E+03  0.22519158045E+03  0.12509000000E+03 0.  0.
<mgrwt>
<rscale>  2 0.44693902E+03</rscale>
<asrwt>0</asrwt>
<pdfrwt beam="1">  1       21 0.21231186E-01 0.44693902E+03</pdfrwt>
<pdfrwt beam="2">  1       21 0.50867979E-01 0.44693902E+03</pdfrwt>
<totfact> 0.70354998E+04</totfact>
</mgrwt>
</event>
<event>
 7    0  0.4750554E-002  0.4475292E+03  0.7546771E-02  0.1028461E+00
         21   -1    0    0  502  501  0.00000000000E+00  0.00000000000E+00  0.15613361691E+03  0.15613361691E+03  0.00000000000E+00 0. -1.
         21   -1    0    0  501  502 -0.00000000000E+00 -0.00000000000E+00 -0.32069075073E+03  0.32069075073E+03  0.00000000000E+00 0. -1.
      99926    2    1    2    0    0  0.00000000000E+00  0.00000000000E+00 -0.16455713381E+03  0.47682436764E+03  0.44752924741E+03 0.  0.
      99925    2    3    3    0    0  0.11101149471E+02  0.56227859854E+02 -0.19936190215E+03  0.33489590769E+03  0.26291689413E+03 0.  0.
         25    1    4    4    0    0  0.90870413437E+01  0.52580539882E+02 -0.14391110622E+03  0.19800303555E+03  0.12509000000E+03 0.  0.
         25    1    3    3    0    0 -0.11101149471E+02 -0.56227859854E+02  0.34804768332E+02  0.14192845994E+03  0.12509000000E+03 0.  0.
         25    1    4    4    0    0  0.20141081273E+01  0.36473199715E+01 -0.55450795928E+02  0.13689287214E+03  0.12509000000E+03 0.  0.
<mgrwt>
<rscale>  2 0.44752925E+03</rscale>
<asrwt>0</asrwt>
<pdfrwt beam="1">  1       21 0.22960826E-01 0.44752925E+03</pdfrwt>
<pdfrwt beam="2">  1       21 0.47160404E-01 0.44752925E+03</pdfrwt>
<totfact> 0.71052896E+04</totfact>
</mgrwt>
</event>
<event>
 7    0  0.4750554E-002  0.4526748E+03  0.7546771E-02  0.1026927E+00
         21   -1    0    0  502  501  0.00000000000E+00  0.00000000000E+00  0.44963992292E+03  0.44963992292E+03  0.00000000000E+00 0. -1.
         21   -1    0    0  501  502 -0.00000000000E+00 -0.00000000000E+00 -0.11393255464E+03  0.11393255464E+03  0.00000000000E+00 0. -1.
      99926    2    1    2    0    0  0.00000000000E+00  0.00000000000E+00  0.33570736828E+03  0.56357247757E+03  0.45267482849E+03 0.  0.
      99925    2    3    3    0    0 -0.20785452026E+02 -0.10357123898E+03  0.25873123723E+03  0.38265296670E+03  0.26138554521E+03 0.  0.
         25    1    3    3    0    0  0.20785452026E+02  0.10357123898E+03  0.76976131047E+02  0.18091951086E+03  0.12509000000E+03 0.  0.
         25    1    4    4    0    0  0.19735716733E+02 -0.33729232675E+02  0.98619351928E+02  0.16401354922E+03  0.12509000000E+03 0.  0.
         25    1    4    4    0    0 -0.40521168760E+02 -0.69842006307E+02  0.16011188530E+03  0.21863941749E+03  0.12509000000E+03 0.  0.
<mgrwt>
<rscale>  2 0.45267483E+03</rscale>
<asrwt>0</asrwt>
<pdfrwt beam="1">  1       21 0.66123518E-01 0.45267483E+03</pdfrwt>
<pdfrwt beam="2">  1       21 0.16754788E-01 0.45267483E+03</pdfrwt>
<totfact> 0.62112843E+04</totfact>
</mgrwt>
</event>
<event>
 7    0  0.4750554E-002  0.4574282E+03  0.7546771E-02  0.1025530E+00
         21   -1    0    0  502  501  0.00000000000E+00  0.00000000000E+00  0.20598016451E+03  0.20598016451E+03  0.00000000000E+00 0.  1.
         21   -1    0    0  501  502 -0.00000000000E+00 -0.00000000000E+00 -0.25395715946E+03  0.25395715946E+03  0.00000000000E+00 0.  1.
      99926    2    1    2    0    0 -0.14210854715E-13  0.71054273576E-14 -0.47976994949E+02  0.45993732397E+03  0.45742819102E+03 0.  0.
      99925    2    3    3    0    0  0.76640976756E+02 -0.33543201751E+02 -0.11010676102E+03  0.29712884252E+03  0.26298871560E+03 0.  0.
         25    1    4    4    0    0  0.72090474248E+02 -0.23258736569E+02 -0.33537718562E+02  0.15003430265E+03  0.12509000000E+03 0.  0.
         25    1    4    4    0    0  0.45505025084E+01 -0.10284465182E+02 -0.76569042460E+02  0.14709453987E+03  0.12509000000E+03 0.  0.
         25    1    3    3    0    0 -0.76640976756E+02  0.33543201751E+02  0.62129766073E+02  0.16280848146E+03  0.12509000000E+03 0.  0.
<mgrwt>
<rscale>  2 0.45742819E+03</rscale>
<asrwt>0</asrwt>
<pdfrwt beam="1">  1       21 0.30291201E-01 0.45742819E+03</pdfrwt>
<pdfrwt beam="2">  1       21 0.37346641E-01 0.45742819E+03</pdfrwt>
<totfact> 0.66880440E+04</totfact>
</mgrwt>
</event>
<event>
 7    0  0.4750554E-002  0.4545331E+03  0.7546771E-02  0.1026379E+00
         21   -1    0    0  502  501  0.00000000000E+00  0.00000000000E+00  0.11895486878E+04  0.11895486878E+04  0.00000000000E+00 0.  1.
         21   -1    0    0  501  502 -0.00000000000E+00 -0.00000000000E+00 -0.43419901169E+02  0.43419901169E+02  0.00000000000E+00 0.  1.
      99926    2    1    2    0    0  0.00000000000E+00  0.00000000000E+00  0.11461287866E+04  0.12329685890E+04  0.45453310753E+03 0.  0.
      99925    2    3    3    0    0 -0.66444495629E+02  0.90338817731E+02  0.75214634485E+03  0.80466303738E+03  0.26302567682E+03 0.  0.
         25    1    4    4    0    0  0.51067550667E+01  0.30001984747E+02  0.37293086813E+03  0.39452647382E+03  0.12509000000E+03 0.  0.
         25    1    3    3    0    0  0.66444495629E+02 -0.90338817731E+02  0.39398244177E+03  0.42830555158E+03  0.12509000000E+03 0.  0.
         25    1    4    4    0    0 -0.71551250695E+02  0.60336832984E+02  0.37921547672E+03  0.41013656357E+03  0.12509000000E+03 0.  0.
<mgrwt>
<rscale>  2 0.45453311E+03</rscale>
<asrwt>0</asrwt>
<pdfrwt beam="1">  1       21 0.17493361E+00 0.45453311E+03</pdfrwt>
<pdfrwt beam="2">  1       21 0.63852804E-02 0.45453311E+03</pdfrwt>
<totfact> 0.31238655E+04</totfact>
</mgrwt>
</event>
<event>
 7    0  0.4750554E-002  0.4531777E+03  0.7546771E-02  0.1026779E+00
         21   -1    0    0  502  501  0.00000000000E+00  0.00000000000E+00  0.85331422590E+02  0.85331422590E+02  0.00000000000E+00 0.  1.
         21   -1    0    0  501  502 -0.00000000000E+00 -0.00000000000E+00 -0.60168334847E+03  0.60168334847E+03  0.00000000000E+00 0.  1.
      99926    2    1    2    0    0  0.00000000000E+00  0.14210854715E-13 -0.51635192588E+03  0.68701477106E+03  0.45317765202E+03 0.  0.
      99925    2    3    3    0    0  0.19083844422E+02  0.10842133290E+03 -0.29950563105E+03  0.41353862543E+03  0.26304218892E+03 0.  0.
         25    1    3    3    0    0 -0.19083844422E+02 -0.10842133290E+03 -0.21684629484E+03  0.27347614563E+03  0.12509000000E+03 0.  0.
         25    1    4    4    0    0  0.29322821091E+02  0.20860485856E+02 -0.11374202323E+03  0.17285758200E+03  0.12509000000E+03 0.  0.
         25    1    4    4    0    0 -0.10238976669E+02  0.87560847040E+02 -0.18576360782E+03  0.24068104343E+03  0.12509000000E+03 0.  0.
<mgrwt>
<rscale>  2 0.45317765E+03</rscale>
<asrwt>0</asrwt>
<pdfrwt beam="1">  1       21 0.12548738E-01 0.45317765E+03</pdfrwt>
<pdfrwt beam="2">  1       21 0.88482848E-01 0.45317765E+03</pdfrwt>
<totfact> 0.54389948E+04</totfact>
</mgrwt>
</event>
<event>
 7    0  0.4750554E-002  0.4564497E+03  0.7546771E-02  0.1025816E+00
         21   -1    0    0  502  501  0.00000000000E+00  0.00000000000E+00  0.25661457793E+03  0.25661457793E+03  0.00000000000E+00 0.  1.
         21   -1    0    0  501  502 -0.00000000000E+00 -0.00000000000E+00 -0.20297590773E+03  0.20297590773E+03  0.00000000000E+00 0.  1.
      99926    2    1    2    0    0 -0.14210854715E-13  0.00000000000E+00  0.53638670206E+02  0.45959048566E+03  0.45644967693E+03 0.  0.
      99925    2    3    3    0    0  0.72232383575E+02  0.31844400687E+02  0.11729155012E+03  0.29856011488E+03  0.26296245241E+03 0.  0.
         25    1    3    3    0    0 -0.72232383575E+02 -0.31844400687E+02 -0.63652879917E+02  0.16103037078E+03  0.12509000000E+03 0.  0.
         25    1    4    4    0    0  0.72310187622E+02  0.21103330810E+02  0.41074619694E+02  0.15168634180E+03  0.12509000000E+03 0.  0.
         25    1    4    4    0    0 -0.77804046768E-01  0.10741069877E+02  0.76216930430E+02  0.14687377308E+03  0.12509000000E+03 0.  0.
<mgrwt>
<rscale>  2 0.45644968E+03</rscale>
<asrwt>0</asrwt>
<pdfrwt beam="1">  1       21 0.37737438E-01 0.45644968E+03</pdfrwt>
<pdfrwt beam="2">  1       21 0.29849398E-01 0.45644968E+03</pdfrwt>
<totfact> 0.67427441E+04</totfact>
</mgrwt>
</event>
<event>
 7    0  0.4750554E-002  0.4499249E+03  0.7546771E-02  0.1027744E+00
         21   -1    0    0  502  501  0.00000000000E+00  0.00000000000E+00  0.75323741107E+03  0.75323741107E+03  0.00000000000E+00 0. -1.
         21   -1    0    0  501  502 -0.00000000000E+00 -0.00000000000E+00 -0.67187462496E+02  0.67187462496E+02  0.00000000000E+00 0. -1.
      99926    2    1    2    0    0  0.00000000000E+00  0.00000000000E+00  0.68604994857E+03  0.82042487356E+03  0.44992492843E+03 0.  0.
      99925    2    3    3    0    0  0.18507288281E+02  0.96513634123E+02  0.35055948323E+03  0.44913151013E+03  0.26300144642E+03 0.  0.
         25    1    4    4    0    0  0.12494201162E+02  0.46976997926E+02  0.23963812297E+03  0.27465775336E+03  0.12509000000E+03 0.  0.
         25    1    4    4    0    0  0.60130871190E+01  0.49536636197E+02  0.11092136025E+03  0.17447375677E+03  0.12509000000E+03 0.  0.
         25    1    3    3    0    0 -0.18507288281E+02 -0.96513634123E+02  0.33549046534E+03  0.37129336343E+03  0.12509000000E+03 0.  0.
<mgrwt>
<rscale>  2 0.44992493E+03</rscale>
<asrwt>0</asrwt>
<pdfrwt beam="1">  1       21 0.11077020E+00 0.44992493E+03</pdfrwt>
<pdfrwt beam="2">  1       21 0.98805096E-02 0.44992493E+03</pdfrwt>
<totfact> 0.48703412E+04</totfact>
</mgrwt>
</event>
<event>
 7    0  0.4750554E-002  0.4560846E+03  0.7546771E-02  0.1025923E+00
         21   -1    0    0  502  501  0.00000000000E+00  0.00000000000E+00  0.39319685273E+03  0.39319685273E+03  0.00000000000E+00 0.  1.
         21   -1    0    0  501  502 -0.00000000000E+00 -0.00000000000E+00 -0.13225767288E+03  0.13225767288E+03  0.00000000000E+00 0.  1.
      99926    2    1    2    0    0  0.00000000000E+00 -0.71054273576E-14  0.26093917985E+03  0.52545452561E+03  0.45608464445E+03 0.  0.
      99925    2    3    3    0    0 -0.81449000466E+02 -0.49414501489E+02  0.91485821624E+02  0.29428860825E+03  0.26298364351E+03 0.  0.
         25    1    4    4    0    0 -0.64351508873E+02 -0.13435916019E+00  0.69791210098E+02  0.15703329537E+03  0.12509000000E+03 0.  0.
         25    1    3    3    0    0  0.81449000466E+02  0.49414501489E+02  0.16945335823E+03  0.23116591736E+03  0.12509000000E+03 0.  0.
         25    1    4    4    0    0 -0.17097491592E+02 -0.49280142329E+02  0.21694611526E+02  0.13725531289E+03  0.12509000000E+03 0.  0.
<mgrwt>
<rscale>  2 0.45608464E+03</rscale>
<asrwt>0</asrwt>
<pdfrwt beam="1">  1       21 0.57823066E-01 0.45608464E+03</pdfrwt>
<pdfrwt beam="2">  1       21 0.19449658E-01 0.45608464E+03</pdfrwt>
<totfact> 0.62972069E+04</totfact>
</mgrwt>
</event>
<event>
 7    0  0.4750554E-002  0.4599036E+03  0.7546771E-02  0.1024809E+00
         21   -1    0    0  502  501  0.00000000000E+00  0.00000000000E+00  0.33721830696E+02  0.33721830696E+02  0.00000000000E+00 0.  1.
         21   -1    0    0  501  502 -0.00000000000E+00 -0.00000000000E+00 -0.15680596361E+04  0.15680596361E+04  0.00000000000E+00 0.  1.
      99926    2    1    2    0    0  0.19984014443E-14  0.00000000000E+00 -0.15343378054E+04  0.16017814668E+04  0.45990364891E+03 0.  0.
      99925    2    3    3    0    0 -0.13045298242E+01  0.80151668190E+02 -0.12615984210E+04  0.12912009271E+04  0.26295107275E+03 0.  0.
         25    1    3    3    0    0  0.13045298242E+01 -0.80151668190E+02 -0.27273938443E+03  0.31058053969E+03  0.12509000000E+03 0.  0.
         25    1    4    4    0    0  0.15293899808E+02  0.45987433098E+02 -0.81105614258E+03  0.82207561811E+03  0.12509000000E+03 0.  0.
         25    1    4    4    0    0 -0.16598429632E+02  0.34164235092E+02 -0.45054227841E+03  0.46912530902E+03  0.12509000000E+03 0.  0.
<mgrwt>
<rscale>  2 0.45990365E+03</rscale>
<asrwt>0</asrwt>
<pdfrwt beam="1">  1       21 0.49590921E-02 0.45990365E+03</pdfrwt>
<pdfrwt beam="2">  1       21 0.23059704E+00 0.45990365E+03</pdfrwt>
<totfact> 0.20594182E+04</totfact>
</mgrwt>
</event>
<event>
 7    0  0.4750554E-002  0.4522903E+03  0.7546771E-02  0.1027041E+00
         21   -1    0    0  502  501  0.00000000000E+00  0.00000000000E+00  0.45516981438E+03  0.45516981438E+03  0.00000000000E+00 0.  1.
         21   -1    0    0  501  502 -0.00000000000E+00 -0.00000000000E+00 -0.11235722575E+03  0.11235722575E+03  0.00000000000E+00 0.  1.
      99926    2    1    2    0    0  0.14210854715E-13 -0.22204460493E-15  0.34281258863E+03  0.56752704013E+03  0.45229025012E+03 0.  0.
      99925    2    3    3    0    0 -0.10300453634E+03  0.18327583609E+01  0.26676346043E+03  0.38851790207E+03  0.26300213477E+03 0.  0.
         25    1    4    4    0    0 -0.85887605844E+02  0.11153099946E+01  0.17947184274E+03  0.23502249933E+03  0.12509000000E+03 0.  0.
         25    1    3    3    0    0  0.10300453634E+03 -0.18327583609E+01  0.76049128202E+02  0.17900913807E+03  0.12509000000E+03 0.  0.
         25    1    4    4    0    0 -0.17116930500E+02  0.71744836625E+00  0.87291617687E+02  0.15349540273E+03  0.12509000000E+03 0.  0.
<mgrwt>
<rscale>  2 0.45229025E+03</rscale>
<asrwt>0</asrwt>
<pdfrwt beam="1">  1       21 0.66936737E-01 0.45229025E+03</pdfrwt>
<pdfrwt beam="2">  1       21 0.16523122E-01 0.45229025E+03</pdfrwt>
<totfact> 0.62041827E+04</totfact>
</mgrwt>
</event>
<event>
 7    0  0.4750554E-002  0.4472466E+03  0.7546771E-02  0.1028546E+00
         21   -1    0    0  502  501  0.00000000000E+00  0.00000000000E+00  0.53602441934E+03  0.53602441934E+03  0.00000000000E+00 0. -1.
         21   -1    0    0  501  502 -0.00000000000E+00 -0.00000000000E+00 -0.93293105244E+02  0.93293105244E+02  0.00000000000E+00 0. -1.
      99926    2    1    2    0    0  0.14210854715E-13  0.00000000000E+00  0.44273131409E+03  0.62931752458E+03  0.44724661012E+03 0.  0.
      99925    2    3    3    0    0  0.86725466760E+02 -0.85504090055E+01  0.36479363266E+03  0.45809776414E+03  0.26302994316E+03 0.  0.
         25    1    3    3    0    0 -0.86725466760E+02  0.85504090055E+01  0.77937681427E+02  0.17121976044E+03  0.12509000000E+03 0.  0.
         25    1    4    4    0    0  0.68317879252E+02  0.15386782649E+02  0.23534640977E+03  0.27557127281E+03  0.12509000000E+03 0.  0.
         25    1    4    4    0    0  0.18407587509E+02 -0.23937191655E+02  0.12944722290E+03  0.18252649133E+03  0.12509000000E+03 0.  0.
<mgrwt>
<rscale>  2 0.44724661E+03</rscale>
<asrwt>0</asrwt>
<pdfrwt beam="1">  1       21 0.78827119E-01 0.44724661E+03</pdfrwt>
<pdfrwt beam="2">  1       21 0.13719575E-01 0.44724661E+03</pdfrwt>
<totfact> 0.60529454E+04</totfact>
</mgrwt>
</event>
<event>
 7    0  0.4750554E-002  0.4561500E+03  0.7546771E-02  0.1025904E+00
         21   -1    0    0  502  501  0.00000000000E+00  0.00000000000E+00  0.15328694052E+03  0.15328694052E+03  0.00000000000E+00 0. -1.
         21   -1    0    0  501  502 -0.00000000000E+00 -0.00000000000E+00 -0.33935189095E+03  0.33935189095E+03  0.00000000000E+00 0. -1.
      99926    2    1    2    0    0  0.00000000000E+00  0.00000000000E+00 -0.18606495043E+03  0.49263883147E+03  0.45615003288E+03 0.  0.
      99925    2    3    3    0    0 -0.13160908545E+02  0.10176513099E+03 -0.17122444920E+03  0.33016698783E+03  0.26298873826E+03 0.  0.
         25    1    3    3    0    0  0.13160908545E+02 -0.10176513099E+03 -0.14840501229E+02  0.16247184364E+03  0.12509000000E+03 0.  0.
         25    1    4    4    0    0 -0.59877520764E+01  0.62514668318E+02 -0.13381120913E+03  0.19364112352E+03  0.12509000000E+03 0.  0.
         25    1    4    4    0    0 -0.71731564682E+01  0.39250462668E+02 -0.37413240073E+02  0.13652586431E+03  0.12509000000E+03 0.  0.
<mgrwt>
<rscale>  2 0.45615003E+03</rscale>
<asrwt>0</asrwt>
<pdfrwt beam="1">  1       21 0.22542197E-01 0.45615003E+03</pdfrwt>
<pdfrwt beam="2">  1       21 0.49904690E-01 0.45615003E+03</pdfrwt>
<totfact> 0.65193720E+04</totfact>
</mgrwt>
</event>
<event>
 7    0  0.4750554E-002  0.4500929E+03  0.7546771E-02  0.1027694E+00
         21   -1    0    0  502  501  0.00000000000E+00  0.00000000000E+00  0.24509790605E+04  0.24509790605E+04  0.00000000000E+00 0.  1.
         21   -1    0    0  501  502 -0.00000000000E+00 -0.00000000000E+00 -0.20663537178E+02  0.20663537178E+02  0.00000000000E+00 0.  1.
      99926    2    1    2    0    0  0.00000000000E+00  0.00000000000E+00  0.24303155234E+04  0.24716425977E+04  0.45009286571E+03 0.  0.
      99925    2    3    3    0    0 -0.60755593797E+02  0.61911933509E+02  0.11785314723E+04  0.12106369878E+04  0.26302310793E+03 0.  0.
         25    1    4    4    0    0 -0.14615645943E+02  0.83405655187E+01  0.68850125236E+03  0.69997476008E+03  0.12509000000E+03 0.  0.
         25    1    4    4    0    0 -0.46139947853E+02  0.53571367990E+02  0.49003021991E+03  0.51066222769E+03  0.12509000000E+03 0.  0.
         25    1    3    3    0    0  0.60755593797E+02 -0.61911933509E+02  0.12517840511E+04  0.12610056099E+04  0.12509000000E+03 0.  0.
<mgrwt>
<rscale>  2 0.45009287E+03</rscale>
<asrwt>0</asrwt>
<pdfrwt beam="1">  1       21 0.36043790E+00 0.45009287E+03</pdfrwt>
<pdfrwt beam="2">  1       21 0.30387571E-02 0.45009287E+03</pdfrwt>
<totfact> 0.77165354E+03</totfact>
</mgrwt>
</event>
<event>
 7    0  0.4750554E-002  0.4541719E+03  0.7546771E-02  0.1026485E+00
         21   -1    0    0  502  501  0.00000000000E+00  0.00000000000E+00  0.45072555967E+03  0.45072555967E+03  0.00000000000E+00 0. -1.
         21   -1    0    0  501  502 -0.00000000000E+00 -0.00000000000E+00 -0.11441113556E+03  0.11441113556E+03  0.00000000000E+00 0. -1.
      99926    2    1    2    0    0  0.00000000000E+00  0.71054273576E-14  0.33631442411E+03  0.56513669524E+03  0.45417187544E+03 0.  0.
      99925    2    3    3    0    0 -0.96535233839E+02 -0.51176099615E+02  0.17887463775E+03  0.33628556683E+03  0.26297110466E+03 0.  0.
         25    1    4    4    0    0 -0.42784523451E+02  0.10590549519E+02  0.61412504802E+02  0.14615635132E+03  0.12509000000E+03 0.  0.
         25    1    3    3    0    0  0.96535233839E+02  0.51176099615E+02  0.15743978636E+03  0.22885112841E+03  0.12509000000E+03 0.  0.
         25    1    4    4    0    0 -0.53750710388E+02 -0.61766649133E+02  0.11746213295E+03  0.19012921551E+03  0.12509000000E+03 0.  0.
<mgrwt>
<rscale>  2 0.45417188E+03</rscale>
<asrwt>0</asrwt>
<pdfrwt beam="1">  1       21 0.66283170E-01 0.45417188E+03</pdfrwt>
<pdfrwt beam="2">  1       21 0.16825167E-01 0.45417188E+03</pdfrwt>
<totfact> 0.61277562E+04</totfact>
</mgrwt>
</event>
<event>
 7    0  0.4750554E-002  0.4513486E+03  0.7546771E-02  0.1027321E+00
         21   -1    0    0  502  501  0.00000000000E+00  0.00000000000E+00  0.59914550382E+02  0.59914550382E+02  0.00000000000E+00 0. -1.
         21   -1    0    0  501  502 -0.00000000000E+00 -0.00000000000E+00 -0.85002530249E+03  0.85002530249E+03  0.00000000000E+00 0. -1.
      99926    2    1    2    0    0  0.00000000000E+00  0.00000000000E+00 -0.79011075210E+03  0.90993985287E+03  0.45134857399E+03 0.  0.
      99925    2    3    3    0    0  0.21705296391E+02 -0.69952543809E+02 -0.33422503432E+03  0.43156366821E+03  0.26301396896E+03 0.  0.
         25    1    4    4    0    0  0.17963463204E+02 -0.76441096343E+02 -0.17864089784E+03  0.23178870918E+03  0.12509000000E+03 0.  0.
         25    1    4    4    0    0  0.37418331877E+01  0.64885525340E+01 -0.15558413648E+03  0.19977495903E+03  0.12509000000E+03 0.  0.
         25    1    3    3    0    0 -0.21705296391E+02  0.69952543809E+02 -0.45588571778E+03  0.47837618466E+03  0.12509000000E+03 0.  0.
<mgrwt>
<rscale>  2 0.45134857E+03</rscale>
<asrwt>0</asrwt>
<pdfrwt beam="1">  1       21 0.88109641E-02 0.45134857E+03</pdfrwt>
<pdfrwt beam="2">  1       21 0.12500371E+00 0.45134857E+03</pdfrwt>
<totfact> 0.44052084E+04</totfact>
</mgrwt>
</event>
<event>
 7    0  0.4750554E-002  0.4584097E+03  0.7546771E-02  0.1025243E+00
         21   -1    0    0  502  501  0.00000000000E+00  0.00000000000E+00  0.75017978615E+02  0.75017978615E+02  0.00000000000E+00 0.  1.
         21   -1    0    0  501  502 -0.00000000000E+00 -0.00000000000E+00 -0.70029684587E+03  0.70029684587E+03  0.00000000000E+00 0.  1.
      99926    2    1    2    0    0  0.00000000000E+00  0.00000000000E+00 -0.62527886725E+03  0.77531482448E+03  0.45840965874E+03 0.  0.
      99925    2    3    3    0    0 -0.10220718931E+03  0.30498635690E+02 -0.31367103989E+03  0.42300328266E+03  0.26299387741E+03 0.  0.
         25    1    3    3    0    0  0.10220718931E+03 -0.30498635690E+02 -0.31160782736E+03  0.35231154182E+03  0.12509000000E+03 0.  0.
         25    1    4    4    0    0 -0.19816258534E+02  0.41355282916E+02 -0.13641581023E+03  0.19068226165E+03  0.12509000000E+03 0.  0.
         25    1    4    4    0    0 -0.82390930774E+02 -0.10856647227E+02 -0.17725522966E+03  0.23232102101E+03  0.12509000000E+03 0.  0.
<mgrwt>
<rscale>  2 0.45840966E+03</rscale>
<asrwt>0</asrwt>
<pdfrwt beam="1">  1       21 0.11032055E-01 0.45840966E+03</pdfrwt>
<pdfrwt beam="2">  1       21 0.10298484E+00 0.45840966E+03</pdfrwt>
<totfact> 0.47692663E+04</totfact>
</mgrwt>
</event>
<event>
 7    0  0.4750554E-002  0.4455495E+03  0.7546771E-02  0.1029058E+00
         21   -1    0    0  502  501  0.00000000000E+00  0.00000000000E+00  0.14782502840E+04  0.14782502840E+04  0.00000000000E+00 0.  1.
         21   -1    0    0  501  502 -0.00000000000E+00 -0.00000000000E+00 -0.33572519816E+02  0.33572519816E+02  0.00000000000E+00 0.  1.
      99926    2    1    2    0    0  0.00000000000E+00  0.00000000000E+00  0.14446777642E+04  0.15118228038E+04  0.44554948974E+03 0.  0.
      99925    2    3    3    0    0  0.26808331189E+02 -0.11162444989E+02  0.57370763961E+03  0.63143666535E+03  0.26216124772E+03 0.  0.
         25    1    4    4    0    0  0.45646835196E+02 -0.58845263902E+01  0.24017183110E+03  0.27467849892E+03  0.12509000000E+03 0.  0.
         25    1    3    3    0    0 -0.26808331189E+02  0.11162444989E+02  0.87097012457E+03  0.88038613846E+03  0.12509000000E+03 0.  0.
         25    1    4    4    0    0 -0.18838504007E+02 -0.52779185986E+01  0.33353580850E+03  0.35675816643E+03  0.12509000000E+03 0.  0.
<mgrwt>
<rscale>  2 0.44554949E+03</rscale>
<asrwt>0</asrwt>
<pdfrwt beam="1">  1       21 0.21738970E+00 0.44554949E+03</pdfrwt>
<pdfrwt beam="2">  1       21 0.49371363E-02 0.44554949E+03</pdfrwt>
<totfact> 0.25297460E+04</totfact>
</mgrwt>
</event>
<event>
 7    0  0.4750554E-002  0.4514999E+03  0.7546771E-02  0.1027276E+00
         21   -1    0    0  502  501  0.00000000000E+00  0.00000000000E+00  0.52459906959E+03  0.52459906959E+03  0.00000000000E+00 0. -1.
         21   -1    0    0  501  502 -0.00000000000E+00 -0.00000000000E+00 -0.97146661615E+02  0.97146661615E+02  0.00000000000E+00 0. -1.
      99926    2    1    2    0    0  0.88817841970E-15  0.00000000000E+00  0.42745240798E+03  0.62174573121E+03  0.45149993709E+03 0.  0.
      99925    2    3    3    0    0 -0.46794762072E+01 -0.83167655146E+02  0.36849408644E+03  0.46030735864E+03  0.26297569529E+03 0.  0.
         25    1    4    4    0    0 -0.97295888254E+01 -0.76402065835E+02  0.23527940014E+03  0.27737311476E+03  0.12509000000E+03 0.  0.
         25    1    4    4    0    0  0.50501126182E+01 -0.67655893112E+01  0.13321468630E+03  0.18293424387E+03  0.12509000000E+03 0.  0.
         25    1    3    3    0    0  0.46794762072E+01  0.83167655146E+02  0.58958321539E+02  0.16143837257E+03  0.12509000000E+03 0.  0.
<mgrwt>
<rscale>  2 0.45149994E+03</rscale>
<asrwt>0</asrwt>
<pdfrwt beam="1">  1       21 0.77146921E-01 0.45149994E+03</pdfrwt>
<pdfrwt beam="2">  1       21 0.14286274E-01 0.45149994E+03</pdfrwt>
<totfact> 0.58972287E+04</totfact>
</mgrwt>
</event>
<event>
 7    0  0.4750554E-002  0.4539945E+03  0.7546771E-02  0.1026537E+00
         21   -1    0    0  502  501  0.00000000000E+00  0.00000000000E+00  0.20630439362E+03  0.20630439362E+03  0.00000000000E+00 0.  1.
         21   -1    0    0  501  502 -0.00000000000E+00 -0.00000000000E+00 -0.24976565974E+03  0.24976565974E+03  0.00000000000E+00 0.  1.
      99926    2    1    2    0    0  0.00000000000E+00  0.14210854715E-13 -0.43461266125E+02  0.45607005336E+03  0.45399450649E+03 0.  0.
      99925    2    3    3    0    0 -0.47083188341E+02 -0.73679672102E+02 -0.97946113030E+02  0.29401565710E+03  0.26307079819E+03 0.  0.
         25    1    3    3    0    0  0.47083188341E+02  0.73679672102E+02  0.54484846905E+02  0.16205439626E+03  0.12509000000E+03 0.  0.
         25    1    4    4    0    0 -0.35148528770E+02 -0.33300698505E+02 -0.90520910740E+02  0.16182057649E+03  0.12509000000E+03 0.  0.
         25    1    4    4    0    0 -0.11934659570E+02 -0.40378973598E+02 -0.74252022904E+01  0.13219508061E+03  0.12509000000E+03 0.  0.
<mgrwt>
<rscale>  2 0.45399451E+03</rscale>
<asrwt>0</asrwt>
<pdfrwt beam="1">  1       21 0.30338882E-01 0.45399451E+03</pdfrwt>
<pdfrwt beam="2">  1       21 0.36730244E-01 0.45399451E+03</pdfrwt>
<totfact> 0.69019521E+04</totfact>
</mgrwt>
</event>
<event>
 7    0  0.4750554E-002  0.4533198E+03  0.7546771E-02  0.1026737E+00
         21   -1    0    0  502  501  0.00000000000E+00  0.00000000000E+00  0.31842830512E+03  0.31842830512E+03  0.00000000000E+00 0.  1.
         21   -1    0    0  501  502 -0.00000000000E+00 -0.00000000000E+00 -0.16133839343E+03  0.16133839343E+03  0.00000000000E+00 0.  1.
      99926    2    1    2    0    0  0.35527136788E-14 -0.14210854715E-13  0.15708991169E+03  0.47976669856E+03  0.45331980399E+03 0.  0.
      99925    2    3    3    0    0 -0.19323268979E+02  0.96107340278E+02  0.42606561112E+02  0.28389951080E+03  0.26300875195E+03 0.  0.
         25    1    3    3    0    0  0.19323268979E+02 -0.96107340278E+02  0.11448335058E+03  0.19586718775E+03  0.12509000000E+03 0.  0.
         25    1    4    4    0    0 -0.37241850124E+02  0.29012789516E+02  0.44193319760E+02  0.14081638743E+03  0.12509000000E+03 0.  0.
         25    1    4    4    0    0  0.17918581146E+02  0.67094550762E+02 -0.15867586478E+01  0.14308312338E+03  0.12509000000E+03 0.  0.
<mgrwt>
<rscale>  2 0.45331980E+03</rscale>
<asrwt>0</asrwt>
<pdfrwt beam="1">  1       21 0.46827692E-01 0.45331980E+03</pdfrwt>
<pdfrwt beam="2">  1       21 0.23726234E-01 0.45331980E+03</pdfrwt>
<totfact> 0.67614351E+04</totfact>
</mgrwt>
</event>
<event>
 7    0  0.4750554E-002  0.4577821E+03  0.7546771E-02  0.1025426E+00
         21   -1    0    0  502  501  0.00000000000E+00  0.00000000000E+00  0.46882484879E+03  0.46882484879E+03  0.00000000000E+00 0.  1.
         21   -1    0    0  501  502 -0.00000000000E+00 -0.00000000000E+00 -0.11174988642E+03  0.11174988642E+03  0.00000000000E+00 0.  1.
      99926    2    1    2    0    0  0.00000000000E+00 -0.14210854715E-13  0.35707496237E+03  0.58057473520E+03  0.45778214732E+03 0.  0.
      99925    2    3    3    0    0 -0.41983164831E+02 -0.76792673223E+02  0.12717213427E+03  0.30459915792E+03  0.26257988209E+03 0.  0.
         25    1    4    4    0    0 -0.11692589522E+02 -0.20382964311E+02  0.99075188198E+02  0.16129346825E+03  0.12509000000E+03 0.  0.
         25    1    3    3    0    0  0.41983164831E+02  0.76792673223E+02  0.22990282810E+03  0.27597557729E+03  0.12509000000E+03 0.  0.
         25    1    4    4    0    0 -0.30290575309E+02 -0.56409708912E+02  0.28096946072E+02  0.14330568967E+03  0.12509000000E+03 0.  0.
<mgrwt>
<rscale>  2 0.45778215E+03</rscale>
<asrwt>0</asrwt>
<pdfrwt beam="1">  1       21 0.68944830E-01 0.45778215E+03</pdfrwt>
<pdfrwt beam="2">  1       21 0.16433807E-01 0.45778215E+03</pdfrwt>
<totfact> 0.58590801E+04</totfact>
</mgrwt>
</event>
<event>
 7    0  0.4750554E-002  0.4734470E+03  0.7546771E-02  0.1020952E+00
         21   -1    0    0  502  501  0.00000000000E+00  0.00000000000E+00  0.38128013494E+02  0.38128013494E+02  0.00000000000E+00 0.  1.
         21   -1    0    0  501  502 -0.00000000000E+00 -0.00000000000E+00 -0.14697331247E+04  0.14697331247E+04  0.00000000000E+00 0.  1.
      99926    2    1    2    0    0  0.00000000000E+00 -0.88817841970E-15 -0.14316051112E+04  0.15078611381E+04  0.47344695335E+03 0.  0.
      99925    2    3    3    0    0  0.10247374077E+03 -0.34147388872E+00 -0.63473757617E+03  0.69475206762E+03  0.26322549404E+03 0.  0.
         25    1    3    3    0    0 -0.10247374077E+03  0.34147388872E+00 -0.79686753499E+03  0.81310907052E+03  0.12509000000E+03 0.  0.
         25    1    4    4    0    0  0.47344384315E+02 -0.32377545753E+02 -0.25284981596E+03  0.28787207876E+03  0.12509000000E+03 0.  0.
         25    1    4    4    0    0  0.55129356450E+02  0.32036071864E+02 -0.38188776020E+03  0.40687998886E+03  0.12509000000E+03 0.  0.
<mgrwt>
<rscale>  2 0.47344695E+03</rscale>
<asrwt>0</asrwt>
<pdfrwt beam="1">  1       21 0.56070614E-02 0.47344695E+03</pdfrwt>
<pdfrwt beam="2">  1       21 0.21613720E+00 0.47344695E+03</pdfrwt>
<totfact> 0.20490313E+04</totfact>
</mgrwt>
</event>
<event>
 7    0  0.4750554E-002  0.4958789E+03  0.7546771E-02  0.1014860E+00
         21   -1    0    0  502  501  0.00000000000E+00  0.00000000000E+00  0.38366895927E+03  0.38366895927E+03  0.00000000000E+00 0.  1.
         21   -1    0    0  501  502 -0.00000000000E+00 -0.00000000000E+00 -0.16022661833E+03  0.16022661833E+03  0.00000000000E+00 0.  1.
      99926    2    1    2    0    0 -0.14210854715E-13  0.00000000000E+00  0.22344234093E+03  0.54389557760E+03  0.49587893645E+03 0.  0.
      99925    2    3    3    0    0 -0.69280454374E+02  0.75657421797E+02  0.18719811726E+02  0.28296905749E+03  0.26305366243E+03 0.  0.
         25    1    4    4    0    0 -0.71249252253E+02  0.19736017633E+02  0.84786332622E+01  0.14555192084E+03  0.12509000000E+03 0.  0.
         25    1    3    3    0    0  0.69280454374E+02 -0.75657421797E+02  0.20472252921E+03  0.26092652011E+03  0.12509000000E+03 0.  0.
         25    1    4    4    0    0  0.19687978791E+01  0.55921404164E+02  0.10241178464E+02  0.13741713665E+03  0.12509000000E+03 0.  0.
<mgrwt>
<rscale>  2 0.49587894E+03</rscale>
<asrwt>0</asrwt>
<pdfrwt beam="1">  1       21 0.56421906E-01 0.49587894E+03</pdfrwt>
<pdfrwt beam="2">  1       21 0.23562738E-01 0.49587894E+03</pdfrwt>
<totfact> 0.45603221E+04</totfact>
</mgrwt>
</event>
<event>
 7    0  0.4750554E-002  0.4431979E+03  0.7546771E-02  0.1029770E+00
         21   -1    0    0  502  501  0.00000000000E+00  0.00000000000E+00  0.39620597904E+02  0.39620597904E+02  0.00000000000E+00 0. -1.
         21   -1    0    0  501  502 -0.00000000000E+00 -0.00000000000E+00 -0.12394080957E+04  0.12394080957E+04  0.00000000000E+00 0. -1.
      99926    2    1    2    0    0  0.14210854715E-13  0.00000000000E+00 -0.11997874978E+04  0.12790286936E+04  0.44319787814E+03 0.  0.
      99925    2    3    3    0    0 -0.91098807508E+02 -0.32602436538E+02 -0.85277937507E+03  0.89768363078E+03  0.26313746756E+03 0.  0.
         25    1    4    4    0    0 -0.79725896298E+02 -0.50579001364E+01 -0.38719311895E+03  0.41466591414E+03  0.12509000000E+03 0.  0.
         25    1    3    3    0    0  0.91098807508E+02  0.32602436538E+02 -0.34700812268E+03  0.38134506278E+03  0.12509000000E+03 0.  0.
         25    1    4    4    0    0 -0.11372911210E+02 -0.27544536401E+02 -0.46558625612E+03  0.48301771664E+03  0.12509000000E+03 0.  0.
<mgrwt>
<rscale>  2 0.44319788E+03</rscale>
<asrwt>0</asrwt>
<pdfrwt beam="1">  1       21 0.58265590E-02 0.44319788E+03</pdfrwt>
<pdfrwt beam="2">  1       21 0.18226588E+00 0.44319788E+03</pdfrwt>
<totfact> 0.32623646E+04</totfact>
</mgrwt>
</event>
<event>
 7    0  0.4750554E-002  0.4406182E+03  0.7546771E-02  0.1030557E+00
         21   -1    0    0  502  501  0.00000000000E+00  0.00000000000E+00  0.74108178880E+03  0.74108178880E+03  0.00000000000E+00 0.  1.
         21   -1    0    0  501  502 -0.00000000000E+00 -0.00000000000E+00 -0.65493590704E+02  0.65493590704E+02  0.00000000000E+00 0.  1.
      99926    2    1    2    0    0  0.14210854715E-13  0.00000000000E+00  0.67558819809E+03  0.80657537950E+03  0.44061823546E+03 0.  0.
      99925    2    3    3    0    0 -0.83176106332E+02  0.49942392150E+02  0.39417718989E+03  0.48369433200E+03  0.26300578431E+03 0.  0.
         25    1    3    3    0    0  0.83176106332E+02 -0.49942392150E+02  0.28141100821E+03  0.32288104751E+03  0.12509000000E+03 0.  0.
         25    1    4    4    0    0 -0.65279143246E+02  0.29648585778E+02  0.26599665646E+03  0.30255930746E+03  0.12509000000E+03 0.  0.
         25    1    4    4    0    0 -0.17896963085E+02  0.20293806372E+02  0.12818053342E+03  0.18113502453E+03  0.12509000000E+03 0.  0.
<mgrwt>
<rscale>  2 0.44061824E+03</rscale>
<asrwt>0</asrwt>
<pdfrwt beam="1">  1       21 0.10898261E+00 0.44061824E+03</pdfrwt>
<pdfrwt beam="2">  1       21 0.96314108E-02 0.44061824E+03</pdfrwt>
<totfact> 0.53203658E+04</totfact>
</mgrwt>
</event>
<event>
 7    0  0.4750554E-002  0.4563862E+03  0.7546771E-02  0.1025835E+00
         21   -1    0    0  502  501  0.00000000000E+00  0.00000000000E+00  0.55694703763E+03  0.55694703763E+03  0.00000000000E+00 0.  1.
         21   -1    0    0  501  502 -0.00000000000E+00 -0.00000000000E+00 -0.93495571441E+02  0.93495571441E+02  0.00000000000E+00 0.  1.
      99926    2    1    2    0    0  0.00000000000E+00  0.00000000000E+00  0.46345146619E+03  0.65044260907E+03  0.45638615906E+03 0.  0.
      99925    2    3    3    0    0  0.64777145469E+02 -0.94321394547E+02  0.29016747172E+03  0.40802261220E+03  0.26304502728E+03 0.  0.
         25    1    4    4    0    0  0.87461369986E+01 -0.77024570173E+02  0.17071026563E+03  0.22538585185E+03  0.12509000000E+03 0.  0.
         25    1    3    3    0    0 -0.64777145469E+02  0.94321394547E+02  0.17328399447E+03  0.24241999687E+03  0.12509000000E+03 0.  0.
         25    1    4    4    0    0  0.56031008470E+02 -0.17296824375E+02  0.11945720609E+03  0.18263676035E+03  0.12509000000E+03 0.  0.
<mgrwt>
<rscale>  2 0.45638616E+03</rscale>
<asrwt>0</asrwt>
<pdfrwt beam="1">  1       21 0.81903975E-01 0.45638616E+03</pdfrwt>
<pdfrwt beam="2">  1       21 0.13749349E-01 0.45638616E+03</pdfrwt>
<totfact> 0.55071302E+04</totfact>
</mgrwt>
</event>
<event>
 7    0  0.4750554E-002  0.4563204E+03  0.7546771E-02  0.1025854E+00
         21   -1    0    0  502  501  0.00000000000E+00  0.00000000000E+00  0.33964958942E+03  0.33964958942E+03  0.00000000000E+00 0.  1.
         21   -1    0    0  501  502 -0.00000000000E+00 -0.00000000000E+00 -0.15326701446E+03  0.15326701446E+03  0.00000000000E+00 0.  1.
      99926    2    1    2    0    0  0.00000000000E+00  0.00000000000E+00  0.18638257496E+03  0.49291660388E+03  0.45632040731E+03 0.  0.
      99925    2    3    3    0    0  0.34886918334E+02 -0.10857452686E+03  0.12647942746E+03  0.31335764383E+03  0.26304076190E+03 0.  0.
         25    1    4    4    0    0  0.52651369524E+02 -0.35612271658E+02  0.52896326001E+02  0.14995309270E+03  0.12509000000E+03 0.  0.
         25    1    4    4    0    0 -0.17764451190E+02 -0.72962255197E+02  0.73583101457E+02  0.16340455113E+03  0.12509000000E+03 0.  0.
         25    1    3    3    0    0 -0.34886918334E+02  0.10857452686E+03  0.59903147506E+02  0.17955896005E+03  0.12509000000E+03 0.  0.
<mgrwt>
<rscale>  2 0.45632041E+03</rscale>
<asrwt>0</asrwt>
<pdfrwt beam="1">  1       21 0.49948469E-01 0.45632041E+03</pdfrwt>
<pdfrwt beam="2">  1       21 0.22539267E-01 0.45632041E+03</pdfrwt>
<totfact> 0.65086275E+04</totfact>
</mgrwt>
</event>
<event>
 7    0  0.4750554E-002  0.4633421E+03  0.7546771E-02  0.1023816E+00
         21   -1    0    0  502  501  0.00000000000E+00  0.00000000000E+00  0.12771268603E+03  0.12771268603E+03  0.00000000000E+00 0.  1.
         21   -1    0    0  501  502 -0.00000000000E+00 -0.00000000000E+00 -0.42025176941E+03  0.42025176941E+03  0.00000000000E+00 0.  1.
      99926    2    1    2    0    0  0.00000000000E+00  0.00000000000E+00 -0.29253908338E+03  0.54796445543E+03  0.46334212965E+03 0.  0.
      99925    2    3    3    0    0  0.29617446559E+02 -0.82523471793E+02 -0.86038750953E+02  0.29110415891E+03  0.26391598688E+03 0.  0.
         25    1    4    4    0    0  0.70939268134E+01 -0.24886739918E+02 -0.81395653984E+02  0.15146760119E+03  0.12509000000E+03 0.  0.
         25    1    4    4    0    0  0.22523519746E+02 -0.57636731875E+02 -0.46430969691E+01  0.13963655772E+03  0.12509000000E+03 0.  0.
         25    1    3    3    0    0 -0.29617446559E+02  0.82523471793E+02 -0.20650033243E+03  0.25686029652E+03  0.12509000000E+03 0.  0.
<mgrwt>
<rscale>  2 0.46334213E+03</rscale>
<asrwt>0</asrwt>
<pdfrwt beam="1">  1       21 0.18781277E-01 0.46334213E+03</pdfrwt>
<pdfrwt beam="2">  1       21 0.61801731E-01 0.46334213E+03</pdfrwt>
<totfact> 0.58071867E+04</totfact>
</mgrwt>
</event>
<event>
 7    0  0.4750554E-002  0.4548201E+03  0.7546771E-02  0.1026294E+00
         21   -1    0    0  502  501  0.00000000000E+00  0.00000000000E+00  0.13267834938E+04  0.13267834938E+04  0.00000000000E+00 0.  1.
         21   -1    0    0  501  502 -0.00000000000E+00 -0.00000000000E+00 -0.38977973570E+02  0.38977973570E+02  0.00000000000E+00 0.  1.
      99926    2    1    2    0    0 -0.35527136788E-14  0.00000000000E+00  0.12878055202E+04  0.13657614673E+04  0.45482010489E+03 0.  0.
      99925    2    3    3    0    0  0.19977527692E+02  0.11099408841E+03  0.82845899936E+03  0.87651150711E+03  0.26307664131E+03 0.  0.
         25    1    4    4    0    0 -0.69867781966E+01  0.37770901612E+02  0.28854226298E+03  0.31682740049E+03  0.12509000000E+03 0.  0.
         25    1    3    3    0    0 -0.19977527692E+02 -0.11099408841E+03  0.45934652085E+03  0.48924996024E+03  0.12509000000E+03 0.  0.
         25    1    4    4    0    0  0.26964305889E+02  0.73223186800E+02  0.53991673638E+03  0.55968410662E+03  0.12509000000E+03 0.  0.
<mgrwt>
<rscale>  2 0.45482010E+03</rscale>
<asrwt>0</asrwt>
<pdfrwt beam="1">  1       21 0.19511519E+00 0.45482010E+03</pdfrwt>
<pdfrwt beam="2">  1       21 0.57320558E-02 0.45482010E+03</pdfrwt>
<totfact> 0.27297020E+04</totfact>
</mgrwt>
</event>
<event>
 7    0  0.4750554E-002  0.4533064E+03  0.7546771E-02  0.1026741E+00
         21   -1    0    0  502  501  0.00000000000E+00  0.00000000000E+00  0.28023307348E+03  0.28023307348E+03  0.00000000000E+00 0.  1.
         21   -1    0    0  501  502 -0.00000000000E+00 -0.00000000000E+00 -0.18331766867E+03  0.18331766867E+03  0.00000000000E+00 0.  1.
      99926    2    1    2    0    0  0.00000000000E+00  0.00000000000E+00  0.96915404811E+02  0.46355074214E+03  0.45330640283E+03 0.  0.
      99925    2    3    3    0    0  0.88345929130E+01  0.92509651769E+02 -0.18564500659E+01  0.27905284752E+03  0.26311776755E+03 0.  0.
         25    1    4    4    0    0  0.11095727870E+01  0.34048959411E+02  0.38055872430E+02  0.13511595137E+03  0.12509000000E+03 0.  0.
         25    1    3    3    0    0 -0.88345929130E+01 -0.92509651769E+02  0.98771854877E+02  0.18449789462E+03  0.12509000000E+03 0.  0.
         25    1    4    4    0    0  0.77250201259E+01  0.58460692358E+02 -0.39912322496E+02  0.14393689615E+03  0.12509000000E+03 0.  0.
<mgrwt>
<rscale>  2 0.45330640E+03</rscale>
<asrwt>0</asrwt>
<pdfrwt beam="1">  1       21 0.41210746E-01 0.45330640E+03</pdfrwt>
<pdfrwt beam="2">  1       21 0.26958481E-01 0.45330640E+03</pdfrwt>
<totfact> 0.68839148E+04</totfact>
</mgrwt>
</event>
<event>
 7    0  0.4750554E-002  0.4564709E+03  0.7546771E-02  0.1025810E+00
         21   -1    0    0  502  501  0.00000000000E+00  0.00000000000E+00  0.21241089644E+03  0.21241089644E+03  0.00000000000E+00 0. -1.
         21   -1    0    0  501  502 -0.00000000000E+00 -0.00000000000E+00 -0.24523892053E+03  0.24523892053E+03  0.00000000000E+00 0. -1.
      99926    2    1    2    0    0 -0.35527136788E-14  0.00000000000E+00 -0.32828024092E+02  0.45764981697E+03  0.45647089262E+03 0.  0.
      99925    2    3    3    0    0  0.29128040660E+02  0.81639860383E+02 -0.95732032269E+02  0.29297458537E+03  0.26297523860E+03 0.  0.
         25    1    3    3    0    0 -0.29128040660E+02 -0.81639860383E+02  0.62904008177E+02  0.16467523159E+03  0.12509000000E+03 0.  0.
         25    1    4    4    0    0  0.37219909753E+02  0.56875553356E+02 -0.82438490321E+02  0.16451067758E+03  0.12509000000E+03 0.  0.
         25    1    4    4    0    0 -0.80918690926E+01  0.24764307026E+02 -0.13293541948E+02  0.12846390779E+03  0.12509000000E+03 0.  0.
<mgrwt>
<rscale>  2 0.45647089E+03</rscale>
<asrwt>0</asrwt>
<pdfrwt beam="1">  1       21 0.31236897E-01 0.45647089E+03</pdfrwt>
<pdfrwt beam="2">  1       21 0.36064547E-01 0.45647089E+03</pdfrwt>
<totfact> 0.67555824E+04</totfact>
</mgrwt>
</event>
<event>
 7    0  0.4750554E-002  0.4467493E+03  0.7546771E-02  0.1028696E+00
         21   -1    0    0  502  501  0.00000000000E+00  0.00000000000E+00  0.11924678975E+03  0.11924678975E+03  0.00000000000E+00 0.  1.
         21   -1    0    0  501  502 -0.00000000000E+00 -0.00000000000E+00 -0.41842841301E+03  0.41842841301E+03  0.00000000000E+00 0.  1.
      99926    2    1    2    0    0 -0.35527136788E-14  0.14210854715E-13 -0.29918162326E+03  0.53767520275E+03  0.44674934802E+03 0.  0.
      99925    2    3    3    0    0 -0.26107260973E+02  0.94431981112E+02 -0.23580309064E+03  0.36660990929E+03  0.26306033509E+03 0.  0.
         25    1    4    4    0    0 -0.24511748097E+02  0.96575403328E+01 -0.87758252995E+02  0.15505841786E+03  0.12509000000E+03 0.  0.
         25    1    4    4    0    0 -0.15955128763E+01  0.84774440779E+02 -0.14804483765E+03  0.21155149143E+03  0.12509000000E+03 0.  0.
         25    1    3    3    0    0  0.26107260973E+02 -0.94431981112E+02 -0.63378532617E+02  0.17106529347E+03  0.12509000000E+03 0.  0.
<mgrwt>
<rscale>  2 0.44674935E+03</rscale>
<asrwt>0</asrwt>
<pdfrwt beam="1">  1       21 0.17536293E-01 0.44674935E+03</pdfrwt>
<pdfrwt beam="2">  1       21 0.61533590E-01 0.44674935E+03</pdfrwt>
<totfact> 0.66954415E+04</totfact>
</mgrwt>
</event>
<event>
 7    0  0.4750554E-002  0.4569486E+03  0.7546771E-02  0.1025670E+00
         21   -1    0    0  502  501  0.00000000000E+00  0.00000000000E+00  0.15478112294E+04  0.15478112294E+04  0.00000000000E+00 0. -1.
         21   -1    0    0  501  502 -0.00000000000E+00 -0.00000000000E+00 -0.33725375563E+02  0.33725375563E+02  0.00000000000E+00 0. -1.
      99926    2    1    2    0    0  0.00000000000E+00  0.00000000000E+00  0.15140858539E+04  0.15815366050E+04  0.45694864050E+03 0.  0.
      99925    2    3    3    0    0 -0.84679744552E+02  0.61133269451E+02  0.78460724278E+03  0.83407791857E+03  0.26300097539E+03 0.  0.
         25    1    4    4    0    0 -0.19684473334E+01  0.32911044655E+02  0.32490471055E+03  0.34971072428E+03  0.12509000000E+03 0.  0.
         25    1    3    3    0    0  0.84679744552E+02 -0.61133269451E+02  0.72947861109E+03  0.74745868642E+03  0.12509000000E+03 0.  0.
         25    1    4    4    0    0 -0.82711297219E+02  0.28222224795E+02  0.45970253223E+03  0.48436719429E+03  0.12509000000E+03 0.  0.
<mgrwt>
<rscale>  2 0.45694864E+03</rscale>
<asrwt>0</asrwt>
<pdfrwt beam="1">  1       21 0.22761925E+00 0.45694864E+03</pdfrwt>
<pdfrwt beam="2">  1       21 0.49596151E-02 0.45694864E+03</pdfrwt>
<totfact> 0.21522093E+04</totfact>
</mgrwt>
</event>
<event>
 7    0  0.4750554E-002  0.4540032E+03  0.7546771E-02  0.1026535E+00
         21   -1    0    0  502  501  0.00000000000E+00  0.00000000000E+00  0.93785522149E+03  0.93785522149E+03  0.00000000000E+00 0.  1.
         21   -1    0    0  501  502 -0.00000000000E+00 -0.00000000000E+00 -0.54944220098E+02  0.54944220098E+02  0.00000000000E+00 0.  1.
      99926    2    1    2    0    0  0.00000000000E+00 -0.71054273576E-14  0.88291100139E+03  0.99279944159E+03  0.45400318814E+03 0.  0.
      99925    2    3    3    0    0 -0.92698609446E+02 -0.55370339032E+02  0.48917766197E+03  0.56579551032E+03  0.26300355112E+03 0.  0.
         25    1    4    4    0    0 -0.43267226121E+02 -0.30356087200E+01  0.29944793515E+03  0.32741081495E+03  0.12509000000E+03 0.  0.
         25    1    3    3    0    0  0.92698609446E+02  0.55370339032E+02  0.39373333943E+03  0.42700393126E+03  0.12509000000E+03 0.  0.
         25    1    4    4    0    0 -0.49431383325E+02 -0.52334730312E+02  0.18972972681E+03  0.23838469538E+03  0.12509000000E+03 0.  0.
<mgrwt>
<rscale>  2 0.45400319E+03</rscale>
<asrwt>0</asrwt>
<pdfrwt beam="1">  1       21 0.13791988E+00 0.45400319E+03</pdfrwt>
<pdfrwt beam="2">  1       21 0.80800330E-02 0.45400319E+03</pdfrwt>
<totfact> 0.39756642E+04</totfact>
</mgrwt>
</event>
<event>
 7    0  0.4750554E-002  0.4584710E+03  0.7546771E-02  0.1025226E+00
         21   -1    0    0  502  501  0.00000000000E+00  0.00000000000E+00  0.61605408285E+02  0.61605408285E+02  0.00000000000E+00 0.  1.
         21   -1    0    0  501  502 -0.00000000000E+00 -0.00000000000E+00 -0.85299192230E+03  0.85299192230E+03  0.00000000000E+00 0.  1.
      99926    2    1    2    0    0  0.00000000000E+00 -0.35527136788E-14 -0.79138651401E+03  0.91459733058E+03  0.45847100513E+03 0.  0.
      99925    2    3    3    0    0 -0.39389864164E+02  0.19813794849E+02 -0.71138023677E+03  0.75970168712E+03  0.26294612429E+03 0.  0.
         25    1    4    4    0    0 -0.84106444362E+01  0.45523301670E+02 -0.40269959771E+03  0.42421407807E+03  0.12509000000E+03 0.  0.
         25    1    4    4    0    0 -0.30979219728E+02 -0.25709506820E+02 -0.30868063906E+03  0.33548760905E+03  0.12509000000E+03 0.  0.
         25    1    3    3    0    0  0.39389864164E+02 -0.19813794849E+02 -0.80006277237E+02  0.15489564346E+03  0.12509000000E+03 0.  0.
<mgrwt>
<rscale>  2 0.45847101E+03</rscale>
<asrwt>0</asrwt>
<pdfrwt beam="1">  1       21 0.90596191E-02 0.45847101E+03</pdfrwt>
<pdfrwt beam="2">  1       21 0.12543999E+00 0.45847101E+03</pdfrwt>
<totfact> 0.41470344E+04</totfact>
</mgrwt>
</event>
<event>
 7    0  0.4750554E-002  0.4582165E+03  0.7546771E-02  0.1025300E+00
         21   -1    0    0  502  501  0.00000000000E+00  0.00000000000E+00  0.62371742955E+03  0.62371742955E+03  0.00000000000E+00 0.  1.
         21   -1    0    0  501  502 -0.00000000000E+00 -0.00000000000E+00 -0.84157662289E+02  0.84157662289E+02  0.00000000000E+00 0.  1.
      99926    2    1    2    0    0  0.35527136788E-14 -0.14210854715E-13  0.53955976726E+03  0.70787509184E+03  0.45821654619E+03 0.  0.
      99925    2    3    3    0    0 -0.10294978580E+02  0.10086885229E+03  0.25103479477E+03  0.37745917243E+03  0.26301415689E+03 0.  0.
         25    1    3    3    0    0  0.10294978580E+02 -0.10086885229E+03  0.28852497249E+03  0.33041591941E+03  0.12509000000E+03 0.  0.
         25    1    4    4    0    0 -0.37864923269E+02  0.43479632171E+02  0.93552612160E+02  0.16650474519E+03  0.12509000000E+03 0.  0.
         25    1    4    4    0    0  0.27569944689E+02  0.57389220115E+02  0.15748218261E+03  0.21095442725E+03  0.12509000000E+03 0.  0.
<mgrwt>
<rscale>  2 0.45821655E+03</rscale>
<asrwt>0</asrwt>
<pdfrwt beam="1">  1       21 0.91723149E-01 0.45821655E+03</pdfrwt>
<pdfrwt beam="2">  1       21 0.12376127E-01 0.45821655E+03</pdfrwt>
<totfact> 0.51170098E+04</totfact>
</mgrwt>
</event>
<event>
 7    0  0.4750554E-002  0.4489916E+03  0.7546771E-02  0.1028023E+00
         21   -1    0    0  502  501  0.00000000000E+00  0.00000000000E+00  0.46848861664E+03  0.46848861664E+03  0.00000000000E+00 0. -1.
         21   -1    0    0  501  502 -0.00000000000E+00 -0.00000000000E+00 -0.10757649903E+03  0.10757649903E+03  0.00000000000E+00 0. -1.
      99926    2    1    2    0    0  0.35527136788E-14  0.00000000000E+00  0.36091211761E+03  0.57606511568E+03  0.44899160445E+03 0.  0.
      99925    2    3    3    0    0 -0.24790807089E+02 -0.10018868404E+03  0.19396787218E+03  0.34332009273E+03  0.26380446187E+03 0.  0.
         25    1    4    4    0    0  0.18009864928E+02 -0.79839205243E+02  0.10019040468E+03  0.17995632586E+03  0.12509000000E+03 0.  0.
         25    1    4    4    0    0 -0.42800672017E+02 -0.20349478800E+02  0.93777467505E+02  0.16336376686E+03  0.12509000000E+03 0.  0.
         25    1    3    3    0    0  0.24790807089E+02  0.10018868404E+03  0.16694424543E+03  0.23274502295E+03  0.12509000000E+03 0.  0.
<mgrwt>
<rscale>  2 0.44899160E+03</rscale>
<asrwt>0</asrwt>
<pdfrwt beam="1">  1       21 0.68895384E-01 0.44899160E+03</pdfrwt>
<pdfrwt beam="2">  1       21 0.15820074E-01 0.44899160E+03</pdfrwt>
<totfact> 0.63121824E+04</totfact>
</mgrwt>
</event>
<event>
 7    0  0.4750554E-002  0.4436486E+03  0.7546771E-02  0.1029633E+00
         21   -1    0    0  502  501  0.00000000000E+00  0.00000000000E+00  0.99807233440E+03  0.99807233440E+03  0.00000000000E+00 0. -1.
         21   -1    0    0  501  502 -0.00000000000E+00 -0.00000000000E+00 -0.49301063368E+02  0.49301063368E+02  0.00000000000E+00 0. -1.
      99926    2    1    2    0    0  0.00000000000E+00  0.00000000000E+00  0.94877127103E+03  0.10473733978E+04  0.44364863306E+03 0.  0.
      99925    2    3    3    0    0 -0.39806641893E+02 -0.66339597169E+02  0.76059122437E+03  0.80853297206E+03  0.26313693285E+03 0.  0.
         25    1    3    3    0    0  0.39806641893E+02  0.66339597169E+02  0.18818004667E+03  0.23884042571E+03  0.12509000000E+03 0.  0.
         25    1    4    4    0    0 -0.33905251916E+02 -0.44930568510E+02  0.50221887652E+03  0.52061466569E+03  0.12509000000E+03 0.  0.
         25    1    4    4    0    0 -0.59013899778E+01 -0.21409028659E+02  0.25837234784E+03  0.28791830637E+03  0.12509000000E+03 0.  0.
<mgrwt>
<rscale>  2 0.44364863E+03</rscale>
<asrwt>0</asrwt>
<pdfrwt beam="1">  1       21 0.14677533E+00 0.44364863E+03</pdfrwt>
<pdfrwt beam="2">  1       21 0.72501570E-02 0.44364863E+03</pdfrwt>
<totfact> 0.40877395E+04</totfact>
</mgrwt>
</event>
<event>
 7    0  0.4750554E-002  0.4559367E+03  0.7546771E-02  0.1025966E+00
         21   -1    0    0  502  501  0.00000000000E+00  0.00000000000E+00  0.23152250614E+03  0.23152250614E+03  0.00000000000E+00 0. -1.
         21   -1    0    0  501  502 -0.00000000000E+00 -0.00000000000E+00 -0.22446873164E+03  0.22446873164E+03  0.00000000000E+00 0. -1.
      99926    2    1    2    0    0  0.00000000000E+00  0.00000000000E+00  0.70537745029E+01  0.45599123778E+03  0.45593667674E+03 0.  0.
      99925    2    3    3    0    0  0.84201292675E+02 -0.86585925893E+01  0.80820680674E+02  0.28790229269E+03  0.26304166742E+03 0.  0.
         25    1    3    3    0    0 -0.84201292675E+02  0.86585925893E+01 -0.73766906171E+02  0.16808894509E+03  0.12509000000E+03 0.  0.
         25    1    4    4    0    0  0.58062001983E+02 -0.31161696551E+02  0.69802252285E+02  0.15767723339E+03  0.12509000000E+03 0.  0.
         25    1    4    4    0    0  0.26139290692E+02  0.22503103962E+02  0.11018428388E+02  0.13022505930E+03  0.12509000000E+03 0.  0.
<mgrwt>
<rscale>  2 0.45593668E+03</rscale>
<asrwt>0</asrwt>
<pdfrwt beam="1">  1       21 0.34047427E-01 0.45593668E+03</pdfrwt>
<pdfrwt beam="2">  1       21 0.33010108E-01 0.45593668E+03</pdfrwt>
<totfact> 0.67963873E+04</totfact>
</mgrwt>
</event>
<event>
 7    0  0.4750554E-002  0.4532257E+03  0.7546771E-02  0.1026764E+00
         21   -1    0    0  502  501  0.00000000000E+00  0.00000000000E+00  0.69653927856E+03  0.69653927856E+03  0.00000000000E+00 0. -1.
         21   -1    0    0  501  502 -0.00000000000E+00 -0.00000000000E+00 -0.73726466528E+02  0.73726466528E+02  0.00000000000E+00 0. -1.
      99926    2    1    2    0    0  0.35527136788E-14  0.00000000000E+00  0.62281281203E+03  0.77026574509E+03  0.45322568244E+03 0.  0.
      99925    2    3    3    0    0 -0.27415664018E+02  0.91625644619E+01  0.57556866226E+03  0.63346264202E+03  0.26298300827E+03 0.  0.
         25    1    4    4    0    0  0.23513306275E+02 -0.10568512230E+02  0.26187603150E+03  0.29136082955E+03  0.12509000000E+03 0.  0.
         25    1    3    3    0    0  0.27415664018E+02 -0.91625644619E+01  0.47244149773E+02  0.13680310307E+03  0.12509000000E+03 0.  0.
         25    1    4    4    0    0 -0.50928970294E+02  0.19731076692E+02  0.31369263076E+03  0.34210181247E+03  0.12509000000E+03 0.  0.
<mgrwt>
<rscale>  2 0.45322568E+03</rscale>
<asrwt>0</asrwt>
<pdfrwt beam="1">  1       21 0.10243224E+00 0.45322568E+03</pdfrwt>
<pdfrwt beam="2">  1       21 0.10842128E-01 0.45322568E+03</pdfrwt>
<totfact> 0.49928409E+04</totfact>
</mgrwt>
</event>
<event>
 7    0  0.4750554E-002  0.4529379E+03  0.7546771E-02  0.1026850E+00
         21   -1    0    0  502  501  0.00000000000E+00  0.00000000000E+00  0.16563318979E+03  0.16563318979E+03  0.00000000000E+00 0.  1.
         21   -1    0    0  501  502 -0.00000000000E+00 -0.00000000000E+00 -0.30964918967E+03  0.30964918967E+03  0.00000000000E+00 0.  1.
      99926    2    1    2    0    0  0.00000000000E+00  0.00000000000E+00 -0.14401599989E+03  0.47528237946E+03  0.45293788978E+03 0.  0.
      99925    2    3    3    0    0 -0.75895449167E+02  0.79223118840E+02 -0.97522340340E+02  0.30252361632E+03  0.26452506460E+03 0.  0.
         25    1    4    4    0    0 -0.70426211552E+01  0.43407992129E+02 -0.14160446273E+02  0.13334871065E+03  0.12509000000E+03 0.  0.
         25    1    3    3    0    0  0.75895449167E+02 -0.79223118840E+02 -0.46493659546E+02  0.17275876314E+03  0.12509000000E+03 0.  0.
         25    1    4    4    0    0 -0.68852828012E+02  0.35815126711E+02 -0.83361894068E+02  0.16917490567E+03  0.12509000000E+03 0.  0.
<mgrwt>
<rscale>  2 0.45293789E+03</rscale>
<asrwt>0</asrwt>
<pdfrwt beam="1">  1       21 0.24357822E-01 0.45293789E+03</pdfrwt>
<pdfrwt beam="2">  1       21 0.45536645E-01 0.45293789E+03</pdfrwt>
<totfact> 0.68153713E+04</totfact>
</mgrwt>
</event>
<event>
 7    0  0.4750554E-002  0.4673810E+03  0.7546771E-02  0.1022662E+00
         21   -1    0    0  502  501  0.00000000000E+00  0.00000000000E+00  0.53995170100E+03  0.53995170100E+03  0.00000000000E+00 0. -1.
         21   -1    0    0  501  502 -0.00000000000E+00 -0.00000000000E+00 -0.10114097034E+03  0.10114097034E+03  0.00000000000E+00 0. -1.
      99926    2    1    2    0    0 -0.14210854715E-13  0.00000000000E+00  0.43881073066E+03  0.64109267134E+03  0.46738095373E+03 0.  0.
      99925    2    3    3    0    0  0.83689642643E+02  0.88464774838E+02  0.23836238214E+03  0.37527878684E+03  0.26303530174E+03 0.  0.
         25    1    4    4    0    0  0.18724293697E+02  0.72271573620E+01  0.11510730471E+03  0.17117251729E+03  0.12509000000E+03 0.  0.
         25    1    4    4    0    0  0.64965348946E+02  0.81237617476E+02  0.12325507743E+03  0.20410626955E+03  0.12509000000E+03 0.  0.
         25    1    3    3    0    0 -0.83689642643E+02 -0.88464774838E+02  0.20044834852E+03  0.26581388451E+03  0.12509000000E+03 0.  0.
<mgrwt>
<rscale>  2 0.46738095E+03</rscale>
<asrwt>0</asrwt>
<pdfrwt beam="1">  1       21 0.79404661E-01 0.46738095E+03</pdfrwt>
<pdfrwt beam="2">  1       21 0.14873672E-01 0.46738095E+03</pdfrwt>
<totfact> 0.51044151E+04</totfact>
</mgrwt>
</event>
<event>
 7    0  0.4750554E-002  0.4500730E+03  0.7546771E-02  0.1027700E+00
         21   -1    0    0  502  501  0.00000000000E+00  0.00000000000E+00  0.54496910139E+03  0.54496910139E+03  0.00000000000E+00 0.  1.
         21   -1    0    0  501  502 -0.00000000000E+00 -0.00000000000E+00 -0.92925331314E+02  0.92925331314E+02  0.00000000000E+00 0.  1.
      99926    2    1    2    0    0 -0.71054273576E-14  0.00000000000E+00  0.45204377007E+03  0.63789443270E+03  0.45007303542E+03 0.  0.
      99925    2    3    3    0    0  0.49688316034E+02 -0.58835879173E+02  0.17746953993E+03  0.32649580492E+03  0.26300852381E+03 0.  0.
         25    1    3    3    0    0 -0.49688316034E+02  0.58835879173E+02  0.27457423014E+03  0.31139862778E+03  0.12509000000E+03 0.  0.
         25    1    4    4    0    0  0.64589037982E+02 -0.42170947968E+02  0.97040295499E+02  0.17610922670E+03  0.12509000000E+03 0.  0.
         25    1    4    4    0    0 -0.14900721947E+02 -0.16664931205E+02  0.80429244433E+02  0.15038657821E+03  0.12509000000E+03 0.  0.
<mgrwt>
<rscale>  2 0.45007304E+03</rscale>
<asrwt>0</asrwt>
<pdfrwt beam="1">  1       21 0.80142514E-01 0.45007304E+03</pdfrwt>
<pdfrwt beam="2">  1       21 0.13665490E-01 0.45007304E+03</pdfrwt>
<totfact> 0.58651809E+04</totfact>
</mgrwt>
</event>
<event>
 7    0  0.4750554E-002  0.4666090E+03  0.7546771E-02  0.1022882E+00
         21   -1    0    0  502  501  0.00000000000E+00  0.00000000000E+00  0.81362357784E+02  0.81362357784E+02  0.00000000000E+00 0. -1.
         21   -1    0    0  501  502 -0.00000000000E+00 -0.00000000000E+00 -0.66899484230E+03  0.66899484230E+03  0.00000000000E+00 0. -1.
      99926    2    1    2    0    0 -0.26645352591E-14 -0.14210854715E-13 -0.58763248452E+03  0.75035720009E+03  0.46660903427E+03 0.  0.
      99925    2    3    3    0    0  0.50505885311E+01  0.12125591797E+03 -0.40546393044E+03  0.49824334430E+03  0.26290097977E+03 0.  0.
         25    1    3    3    0    0 -0.50505885311E+01 -0.12125591797E+03 -0.18216855408E+03  0.25211385579E+03  0.12509000000E+03 0.  0.
         25    1    4    4    0    0  0.34801629909E+02  0.87668118087E+02 -0.21890703602E+03  0.26919259071E+03  0.12509000000E+03 0.  0.
         25    1    4    4    0    0 -0.29751041378E+02  0.33587799878E+02 -0.18655689442E+03  0.22905075359E+03  0.12509000000E+03 0.  0.
<mgrwt>
<rscale>  2 0.46660903E+03</rscale>
<asrwt>0</asrwt>
<pdfrwt beam="1">  1       21 0.11965053E-01 0.46660903E+03</pdfrwt>
<pdfrwt beam="2">  1       21 0.98381592E-01 0.46660903E+03</pdfrwt>
<totfact> 0.45917456E+04</totfact>
</mgrwt>
</event>
<event>
 7    0  0.4750554E-002  0.4351259E+03  0.7546771E-02  0.1032253E+00
         21   -1    0    0  502  501  0.00000000000E+00  0.00000000000E+00  0.49139707689E+03  0.49139707689E+03  0.00000000000E+00 0. -1.
         21   -1    0    0  501  502 -0.00000000000E+00 -0.00000000000E+00 -0.96324613842E+02  0.96324613842E+02  0.00000000000E+00 0. -1.
      99926    2    1    2    0    0  0.35527136788E-14 -0.17763568394E-14  0.39507246305E+03  0.58772169073E+03  0.43512588374E+03 0.  0.
      99925    2    3    3    0    0  0.17836230205E+02  0.93134057121E+01  0.37639201665E+03  0.45965398281E+03  0.26307026264E+03 0.  0.
         25    1    3    3    0    0 -0.17836230205E+02 -0.93134057121E+01  0.18680446398E+02  0.12806770792E+03  0.12509000000E+03 0.  0.
         25    1    4    4    0    0 -0.11694878418E+02  0.35396444347E+02  0.15838339259E+03  0.20523763203E+03  0.12509000000E+03 0.  0.
         25    1    4    4    0    0  0.29531108623E+02 -0.26083038634E+02  0.21800862406E+03  0.25441635078E+03  0.12509000000E+03 0.  0.
<mgrwt>
<rscale>  2 0.43512588E+03</rscale>
<asrwt>0</asrwt>
<pdfrwt beam="1">  1       21 0.72264275E-01 0.43512588E+03</pdfrwt>
<pdfrwt beam="2">  1       21 0.14165385E-01 0.43512588E+03</pdfrwt>
<totfact> 0.69770589E+04</totfact>
</mgrwt>
</event>
<event>
 7    0  0.4750554E-002  0.4514290E+03  0.7546771E-02  0.1027297E+00
         21   -1    0    0  502  501  0.00000000000E+00  0.00000000000E+00  0.22922583120E+03  0.22922583120E+03  0.00000000000E+00 0. -1.
         21   -1    0    0  501  502 -0.00000000000E+00 -0.00000000000E+00 -0.22225693309E+03  0.22225693309E+03  0.00000000000E+00 0. -1.
      99926    2    1    2    0    0  0.00000000000E+00  0.00000000000E+00  0.69688981181E+01  0.45148276429E+03  0.45142897660E+03 0.  0.
      99925    2    3    3    0    0 -0.10513919724E+03  0.25522360075E+02  0.21418822368E+02  0.28546484336E+03  0.26329787159E+03 0.  0.
         25    1    3    3    0    0  0.10513919724E+03 -0.25522360075E+02 -0.14449924250E+02  0.16601792093E+03  0.12509000000E+03 0.  0.
         25    1    4    4    0    0 -0.85549190144E+01  0.14226098351E+02  0.73623672409E+01  0.12640127003E+03  0.12509000000E+03 0.  0.
         25    1    4    4    0    0 -0.96584278226E+02  0.11296261724E+02  0.14056455127E+02  0.15906357333E+03  0.12509000000E+03 0.  0.
<mgrwt>
<rscale>  2 0.45142898E+03</rscale>
<asrwt>0</asrwt>
<pdfrwt beam="1">  1       21 0.33709681E-01 0.45142898E+03</pdfrwt>
<pdfrwt beam="2">  1       21 0.32684843E-01 0.45142898E+03</pdfrwt>
<totfact> 0.70800142E+04</totfact>
</mgrwt>
</event>
<event>
 7    0  0.4750554E-002  0.4592987E+03  0.7546771E-02  0.1024985E+00
         21   -1    0    0  502  501  0.00000000000E+00  0.00000000000E+00  0.20313510261E+04  0.20313510261E+04  0.00000000000E+00 0.  1.
         21   -1    0    0  501  502 -0.00000000000E+00 -0.00000000000E+00 -0.25962439807E+02  0.25962439807E+02  0.00000000000E+00 0.  1.
      99926    2    1    2    0    0  0.00000000000E+00 -0.71054273576E-14  0.20053885863E+04  0.20573134659E+04  0.45929872084E+03 0.  0.
      99925    2    3    3    0    0  0.98192949708E+02 -0.46426200743E+02  0.10578899714E+04  0.10954411351E+04  0.26279809997E+03 0.  0.
         25    1    4    4    0    0  0.57802517238E+02 -0.63628202490E+02  0.56032314062E+03  0.58051632981E+03  0.12509000000E+03 0.  0.
         25    1    3    3    0    0 -0.98192949708E+02  0.46426200743E+02  0.94749861487E+03  0.96187233080E+03  0.12509000000E+03 0.  0.
         25    1    4    4    0    0  0.40390432470E+02  0.17202001748E+02  0.49756683079E+03  0.51492480529E+03  0.12509000000E+03 0.  0.
<mgrwt>
<rscale>  2 0.45929872E+03</rscale>
<asrwt>0</asrwt>
<pdfrwt beam="1">  1       21 0.29872798E+00 0.45929872E+03</pdfrwt>
<pdfrwt beam="2">  1       21 0.38180072E-02 0.45929872E+03</pdfrwt>
<totfact> 0.12378268E+04</totfact>
</mgrwt>
</event>
<event>
 7    0  0.4750554E-002  0.4794130E+03  0.7546771E-02  0.1019297E+00
         21   -1    0    0  502  501  0.00000000000E+00  0.00000000000E+00  0.16317913751E+03  0.16317913751E+03  0.00000000000E+00 0.  1.
         21   -1    0    0  501  502 -0.00000000000E+00 -0.00000000000E+00 -0.35212353875E+03  0.35212353875E+03  0.00000000000E+00 0.  1.
      99926    2    1    2    0    0  0.71054273576E-14 -0.14210854715E-13 -0.18894440124E+03  0.51530267626E+03  0.47941303842E+03 0.  0.
      99925    2    3    3    0    0  0.53851279976E+02 -0.67253047306E+02 -0.50207909275E+01  0.27676895694E+03  0.26296941734E+03 0.  0.
         25    1    3    3    0    0 -0.53851279976E+02  0.67253047306E+02 -0.18392361031E+03  0.23853371933E+03  0.12509000000E+03 0.  0.
         25    1    4    4    0    0  0.11444547269E+02 -0.14029823922E+02 -0.35199735204E+02  0.13120344157E+03  0.12509000000E+03 0.  0.
         25    1    4    4    0    0  0.42406732706E+02 -0.53223223384E+02  0.30178944276E+02  0.14556551537E+03  0.12509000000E+03 0.  0.
<mgrwt>
<rscale>  2 0.47941304E+03</rscale>
<asrwt>0</asrwt>
<pdfrwt beam="1">  1       21 0.23996933E-01 0.47941304E+03</pdfrwt>
<pdfrwt beam="2">  1       21 0.51782872E-01 0.47941304E+03</pdfrwt>
<totfact> 0.53139877E+04</totfact>
</mgrwt>
</event>
<event>
 7    0  0.4750554E-002  0.4394722E+03  0.7546771E-02  0.1030909E+00
         21   -1    0    0  502  501  0.00000000000E+00  0.00000000000E+00  0.14763033061E+03  0.14763033061E+03  0.00000000000E+00 0. -1.
         21   -1    0    0  501  502 -0.00000000000E+00 -0.00000000000E+00 -0.32705980499E+03  0.32705980499E+03  0.00000000000E+00 0. -1.
      99926    2    1    2    0    0  0.35527136788E-14 -0.22204460493E-14 -0.17942947438E+03  0.47469013560E+03  0.43947217040E+03 0.  0.
      99925    2    3    3    0    0  0.21476607010E+02  0.25307328658E+01 -0.21790445538E+03  0.34204217473E+03  0.26276005854E+03 0.  0.
         25    1    3    3    0    0 -0.21476607010E+02 -0.25307328658E+01  0.38474981002E+02  0.13264796086E+03  0.12509000000E+03 0.  0.
         25    1    4    4    0    0 -0.23159928275E+02  0.18546319672E+02 -0.12383240272E+03  0.17850019696E+03  0.12509000000E+03 0.  0.
         25    1    4    4    0    0  0.44636535285E+02 -0.16015586807E+02 -0.94072052658E+02  0.16354197777E+03  0.12509000000E+03 0.  0.
<mgrwt>
<rscale>  2 0.43947217E+03</rscale>
<asrwt>0</asrwt>
<pdfrwt beam="1">  1       21 0.21710343E-01 0.43947217E+03</pdfrwt>
<pdfrwt beam="2">  1       21 0.48097030E-01 0.43947217E+03</pdfrwt>
<totfact> 0.76037672E+04</totfact>
</mgrwt>
</event>
<event>
 7    0  0.4750554E-002  0.4601141E+03  0.7546771E-02  0.1024748E+00
         21   -1    0    0  502  501  0.00000000000E+00  0.00000000000E+00  0.15091222483E+04  0.15091222483E+04  0.00000000000E+00 0. -1.
         21   -1    0    0  501  502 -0.00000000000E+00 -0.00000000000E+00 -0.35070884354E+02  0.35070884354E+02  0.00000000000E+00 0. -1.
      99926    2    1    2    0    0  0.00000000000E+00  0.00000000000E+00  0.14740513639E+04  0.15441931326E+04  0.46011412430E+03 0.  0.
      99925    2    3    3    0    0  0.55851981288E+02  0.65784532976E+02  0.65365057996E+03  0.70983589318E+03  0.26298453562E+03 0.  0.
         25    1    4    4    0    0  0.53294721578E+02  0.98595972567E+01  0.38151245165E+03  0.40513799855E+03  0.12509000000E+03 0.  0.
         25    1    3    3    0    0 -0.55851981288E+02 -0.65784532976E+02  0.82040078396E+03  0.83435723945E+03  0.12509000000E+03 0.  0.
         25    1    4    4    0    0  0.25572597099E+01  0.55924935719E+02  0.27213812831E+03  0.30469789463E+03  0.12509000000E+03 0.  0.
<mgrwt>
<rscale>  2 0.46011412E+03</rscale>
<asrwt>0</asrwt>
<pdfrwt beam="1">  1       21 0.22192970E+00 0.46011412E+03</pdfrwt>
<pdfrwt beam="2">  1       21 0.51574840E-02 0.46011412E+03</pdfrwt>
<totfact> 0.21836274E+04</totfact>
</mgrwt>
</event>
<event>
 7    0  0.4750554E-002  0.4551915E+03  0.7546771E-02  0.1026185E+00
         21   -1    0    0  502  501  0.00000000000E+00  0.00000000000E+00  0.17604336730E+03  0.17604336730E+03  0.00000000000E+00 0.  1.
         21   -1    0    0  501  502 -0.00000000000E+00 -0.00000000000E+00 -0.29424464919E+03  0.29424464919E+03  0.00000000000E+00 0.  1.
      99926    2    1    2    0    0  0.35527136788E-14  0.00000000000E+00 -0.11820128188E+03  0.47028801649E+03  0.45519147116E+03 0.  0.
      99925    2    3    3    0    0 -0.23103978341E+02  0.92874112205E+02 -0.11580270424E+02  0.28009090106E+03  0.26297797562E+03 0.  0.
         25    1    4    4    0    0 -0.43270928968E+02  0.26356386638E+02  0.10166938219E+02  0.13534366311E+03  0.12509000000E+03 0.  0.
         25    1    3    3    0    0  0.23103978341E+02 -0.92874112205E+02 -0.10662101146E+03  0.19019711543E+03  0.12509000000E+03 0.  0.
         25    1    4    4    0    0  0.20166950627E+02  0.66517725567E+02 -0.21747208643E+02  0.14474723796E+03  0.12509000000E+03 0.  0.
<mgrwt>
<rscale>  2 0.45519147E+03</rscale>
<asrwt>0</asrwt>
<pdfrwt beam="1">  1       21 0.25888731E-01 0.45519147E+03</pdfrwt>
<pdfrwt beam="2">  1       21 0.43271272E-01 0.45519147E+03</pdfrwt>
<totfact> 0.67311996E+04</totfact>
</mgrwt>
</event>
<event>
 7    0  0.4750554E-002  0.4489454E+03  0.7546771E-02  0.1028037E+00
         21   -1    0    0  502  501  0.00000000000E+00  0.00000000000E+00  0.17297001153E+03  0.17297001153E+03  0.00000000000E+00 0.  1.
         21   -1    0    0  501  502 -0.00000000000E+00 -0.00000000000E+00 -0.29131061570E+03  0.29131061570E+03  0.00000000000E+00 0.  1.
      99926    2    1    2    0    0  0.14210854715E-13 -0.71054273576E-14 -0.11834060416E+03  0.46428062723E+03  0.44894543346E+03 0.  0.
      99925    2    3    3    0    0 -0.84418258809E+02  0.56764161785E+02 -0.11031254525E+03  0.30284776096E+03  0.26305759102E+03 0.  0.
         25    1    4    4    0    0 -0.37288278816E+02 -0.62630231910E+01 -0.75842670595E+02  0.15109354711E+03  0.12509000000E+03 0.  0.
         25    1    3    3    0    0  0.84418258809E+02 -0.56764161785E+02 -0.80280589116E+01  0.16143286627E+03  0.12509000000E+03 0.  0.
         25    1    4    4    0    0 -0.47129979994E+02  0.63027184976E+02 -0.34469874656E+02  0.15175421384E+03  0.12509000000E+03 0.  0.
<mgrwt>
<rscale>  2 0.44894543E+03</rscale>
<asrwt>0</asrwt>
<pdfrwt beam="1">  1       21 0.25436767E-01 0.44894543E+03</pdfrwt>
<pdfrwt beam="2">  1       21 0.42839796E-01 0.44894543E+03</pdfrwt>
<totfact> 0.71223300E+04</totfact>
</mgrwt>
</event>
<event>
 7    0  0.4750554E-002  0.4558690E+03  0.7546771E-02  0.1025986E+00
         21   -1    0    0  502  501  0.00000000000E+00  0.00000000000E+00  0.80191700864E+03  0.80191700864E+03  0.00000000000E+00 0. -1.
         21   -1    0    0  501  502 -0.00000000000E+00 -0.00000000000E+00 -0.64787408609E+02  0.64787408609E+02  0.00000000000E+00 0. -1.
      99926    2    1    2    0    0 -0.28421709430E-13  0.00000000000E+00  0.73712960003E+03  0.86670441725E+03  0.45586895007E+03 0.  0.
      99925    2    3    3    0    0  0.95761291536E+02  0.17854253652E+02  0.35743295751E+03  0.45523625593E+03  0.26456139226E+03 0.  0.
         25    1    4    4    0    0  0.25687043003E+02 -0.15699168582E+02  0.21382618149E+03  0.24955045995E+03  0.12509000000E+03 0.  0.
         25    1    4    4    0    0  0.70074248533E+02  0.33553422233E+02  0.14360677602E+03  0.20568579598E+03  0.12509000000E+03 0.  0.
         25    1    3    3    0    0 -0.95761291536E+02 -0.17854253652E+02  0.37969664252E+03  0.41146816131E+03  0.12509000000E+03 0.  0.
<mgrwt>
<rscale>  2 0.45586895E+03</rscale>
<asrwt>0</asrwt>
<pdfrwt beam="1">  1       21 0.11792897E+00 0.45586895E+03</pdfrwt>
<pdfrwt beam="2">  1       21 0.95275605E-02 0.45586895E+03</pdfrwt>
<totfact> 0.44397675E+04</totfact>
</mgrwt>
</event>
<event>
 7    0  0.4750554E-002  0.4526297E+03  0.7546771E-02  0.1026941E+00
         21   -1    0    0  502  501  0.00000000000E+00  0.00000000000E+00  0.54227283975E+02  0.54227283975E+02  0.00000000000E+00 0. -1.
         21   -1    0    0  501  502 -0.00000000000E+00 -0.00000000000E+00 -0.94451350579E+03  0.94451350579E+03  0.00000000000E+00 0. -1.
      99926    2    1    2    0    0  0.00000000000E+00  0.00000000000E+00 -0.89028622181E+03  0.99874078976E+03  0.45262965920E+03 0.  0.
      99925    2    3    3    0    0  0.56186506385E+02 -0.37486734067E+02 -0.36737050131E+03  0.45684547000E+03  0.26302950309E+03 0.  0.
         25    1    4    4    0    0  0.53795980731E+02 -0.43140297016E+02 -0.15903330200E+03  0.21376199852E+03  0.12509000000E+03 0.  0.
         25    1    4    4    0    0  0.23905256538E+01  0.56535629493E+01 -0.20833719932E+03  0.24308347148E+03  0.12509000000E+03 0.  0.
         25    1    3    3    0    0 -0.56186506385E+02  0.37486734067E+02 -0.52291572050E+03  0.54189531976E+03  0.12509000000E+03 0.  0.
<mgrwt>
<rscale>  2 0.45262966E+03</rscale>
<asrwt>0</asrwt>
<pdfrwt beam="1">  1       21 0.79746010E-02 0.45262966E+03</pdfrwt>
<pdfrwt beam="2">  1       21 0.13889904E+00 0.45262966E+03</pdfrwt>
<totfact> 0.39950265E+04</totfact>
</mgrwt>
</event>
<event>
 7    0  0.4750554E-002  0.4559794E+03  0.7546771E-02  0.1025954E+00
         21   -1    0    0  502  501  0.00000000000E+00  0.00000000000E+00  0.47915120352E+03  0.47915120352E+03  0.00000000000E+00 0. -1.
         21   -1    0    0  501  502 -0.00000000000E+00 -0.00000000000E+00 -0.10848206503E+03  0.10848206503E+03  0.00000000000E+00 0. -1.
      99926    2    1    2    0    0  0.00000000000E+00 -0.71054273576E-14  0.37066913849E+03  0.58763326855E+03  0.45597943821E+03 0.  0.
      99925    2    3    3    0    0 -0.97254918202E+02 -0.59432496869E+02  0.22813503608E+03  0.36637726468E+03  0.26305125848E+03 0.  0.
         25    1    4    4    0    0 -0.55941796658E+02  0.36727706050E+01  0.81874997833E+02  0.15966839771E+03  0.12509000000E+03 0.  0.
         25    1    3    3    0    0  0.97254918202E+02  0.59432496869E+02  0.14253410242E+03  0.22125600387E+03  0.12509000000E+03 0.  0.
         25    1    4    4    0    0 -0.41313121544E+02 -0.63105267474E+02  0.14626003824E+03  0.20670886697E+03  0.12509000000E+03 0.  0.
<mgrwt>
<rscale>  2 0.45597944E+03</rscale>
<asrwt>0</asrwt>
<pdfrwt beam="1">  1       21 0.70463411E-01 0.45597944E+03</pdfrwt>
<pdfrwt beam="2">  1       21 0.15953245E-01 0.45597944E+03</pdfrwt>
<totfact> 0.58988014E+04</totfact>
</mgrwt>
</event>
<event>
 7    0  0.4750554E-002  0.4583189E+03  0.7546771E-02  0.1025270E+00
         21   -1    0    0  502  501  0.00000000000E+00  0.00000000000E+00  0.61899775026E+03  0.61899775026E+03  0.00000000000E+00 0.  1.
         21   -1    0    0  501  502 -0.00000000000E+00 -0.00000000000E+00 -0.84837219010E+02  0.84837219010E+02  0.00000000000E+00 0.  1.
      99926    2    1    2    0    0  0.00000000000E+00  0.71054273576E-14  0.53416053125E+03  0.70383496927E+03  0.45831887461E+03 0.  0.
      99925    2    3    3    0    0 -0.74871329345E+02 -0.59925343466E+02  0.23430804414E+03  0.36507873704E+03  0.26303129461E+03 0.  0.
         25    1    4    4    0    0 -0.67389516070E+02 -0.63641874461E+01  0.13823249713E+03  0.19833703921E+03  0.12509000000E+03 0.  0.
         25    1    4    4    0    0 -0.74818132755E+01 -0.53561156020E+02  0.96075547012E+02  0.16674169784E+03  0.12509000000E+03 0.  0.
         25    1    3    3    0    0  0.74871329345E+02  0.59925343466E+02  0.29985248711E+03  0.33875623223E+03  0.12509000000E+03 0.  0.
<mgrwt>
<rscale>  2 0.45831887E+03</rscale>
<asrwt>0</asrwt>
<pdfrwt beam="1">  1       21 0.91029078E-01 0.45831887E+03</pdfrwt>
<pdfrwt beam="2">  1       21 0.12476062E-01 0.45831887E+03</pdfrwt>
<totfact> 0.51341191E+04</totfact>
</mgrwt>
</event>
<event>
 7    0  0.4750554E-002  0.4436942E+03  0.7546771E-02  0.1029619E+00
         21   -1    0    0  502  501  0.00000000000E+00  0.00000000000E+00  0.18629333372E+03  0.18629333372E+03  0.00000000000E+00 0.  1.
         21   -1    0    0  501  502 -0.00000000000E+00 -0.00000000000E+00 -0.26418628327E+03  0.26418628327E+03  0.00000000000E+00 0.  1.
      99926    2    1    2    0    0  0.00000000000E+00  0.00000000000E+00 -0.77892949551E+02  0.45047961699E+03  0.44369423451E+03 0.  0.
      99925    2    3    3    0    0  0.27867842318E+02 -0.95463639752E+02 -0.73243660277E+02  0.29060764590E+03  0.26305559666E+03 0.  0.
         25    1    4    4    0    0  0.39009424745E+02 -0.27996592800E+02 -0.91471395993E+01  0.13430086630E+03  0.12509000000E+03 0.  0.
         25    1    4    4    0    0 -0.11141582427E+02 -0.67467046952E+02 -0.64096520678E+02  0.15630677959E+03  0.12509000000E+03 0.  0.
         25    1    3    3    0    0 -0.27867842318E+02  0.95463639752E+02 -0.46492892738E+01  0.15987197109E+03  0.12509000000E+03 0.  0.
<mgrwt>
<rscale>  2 0.44369423E+03</rscale>
<asrwt>0</asrwt>
<pdfrwt beam="1">  1       21 0.27396078E-01 0.44369423E+03</pdfrwt>
<pdfrwt beam="2">  1       21 0.38850924E-01 0.44369423E+03</pdfrwt>
<totfact> 0.75456682E+04</totfact>
</mgrwt>
</event>
<event>
 7    0  0.4750554E-002  0.4248571E+03  0.7546771E-02  0.1035497E+00
         21   -1    0    0  502  501  0.00000000000E+00  0.00000000000E+00  0.34099276424E+02  0.34099276424E+02  0.00000000000E+00 0.  1.
         21   -1    0    0  501  502 -0.00000000000E+00 -0.00000000000E+00 -0.13233677360E+04  0.13233677360E+04  0.00000000000E+00 0.  1.
      99926    2    1    2    0    0 -0.71054273576E-14 -0.71054273576E-14 -0.12892684596E+04  0.13574670124E+04  0.42485706886E+03 0.  0.
      99925    2    3    3    0    0 -0.56382765143E+02 -0.48360392887E+02 -0.94483116806E+03  0.98356555523E+03  0.26301620005E+03 0.  0.
         25    1    3    3    0    0  0.56382765143E+02  0.48360392887E+02 -0.34443729150E+03  0.37390145718E+03  0.12509000000E+03 0.  0.
         25    1    4    4    0    0 -0.17551908643E+01 -0.22278040784E+02 -0.56493771292E+03  0.57905225962E+03  0.12509000000E+03 0.  0.
         25    1    4    4    0    0 -0.54627574279E+02 -0.26082352103E+02 -0.37989345515E+03  0.40451329561E+03  0.12509000000E+03 0.  0.
<mgrwt>
<rscale>  2 0.42485707E+03</rscale>
<asrwt>0</asrwt>
<pdfrwt beam="1">  1       21 0.50146003E-02 0.42485707E+03</pdfrwt>
<pdfrwt beam="2">  1       21 0.19461287E+00 0.42485707E+03</pdfrwt>
<totfact> 0.34997612E+04</totfact>
</mgrwt>
</event>
<event>
 7    0  0.4750554E-002  0.4514997E+03  0.7546771E-02  0.1027276E+00
         21   -1    0    0  502  501  0.00000000000E+00  0.00000000000E+00  0.59433055187E+02  0.59433055187E+02  0.00000000000E+00 0. -1.
         21   -1    0    0  501  502 -0.00000000000E+00 -0.00000000000E+00 -0.85748558467E+03  0.85748558467E+03  0.00000000000E+00 0. -1.
      99926    2    1    2    0    0 -0.71054273576E-14  0.00000000000E+00 -0.79805252948E+03  0.91691863986E+03  0.45149967032E+03 0.  0.
      99925    2    3    3    0    0 -0.26383147664E+02 -0.32395247150E+02 -0.29690173550E+03  0.39870521961E+03  0.26281112815E+03 0.  0.
         25    1    4    4    0    0 -0.21788843626E+02 -0.46259246620E+02 -0.11491631678E+03  0.17739205046E+03  0.12509000000E+03 0.  0.
         25    1    4    4    0    0 -0.45943040380E+01  0.13863999470E+02 -0.18198541872E+03  0.22131316914E+03  0.12509000000E+03 0.  0.
         25    1    3    3    0    0  0.26383147664E+02  0.32395247150E+02 -0.50115079398E+03  0.51821342025E+03  0.12509000000E+03 0.  0.
<mgrwt>
<rscale>  2 0.45149967E+03</rscale>
<asrwt>0</asrwt>
<pdfrwt beam="1">  1       21 0.87401560E-02 0.45149967E+03</pdfrwt>
<pdfrwt beam="2">  1       21 0.12610081E+00 0.45149967E+03</pdfrwt>
<totfact> 0.43694530E+04</totfact>
</mgrwt>
</event>
<event>
 7    0  0.4750554E-002  0.4468573E+03  0.7546771E-02  0.1028663E+00
         21   -1    0    0  502  501  0.00000000000E+00  0.00000000000E+00  0.83128850356E+02  0.83128850356E+02  0.00000000000E+00 0.  1.
         21   -1    0    0  501  502 -0.00000000000E+00 -0.00000000000E+00 -0.60051782660E+03  0.60051782660E+03  0.00000000000E+00 0.  1.
      99926    2    1    2    0    0  0.00000000000E+00  0.35527136788E-14 -0.51738897625E+03  0.68364667696E+03  0.44685727719E+03 0.  0.
      99925    2    3    3    0    0 -0.29090232877E+02 -0.20458920781E+02 -0.17440978782E+03  0.31684013274E+03  0.26211464389E+03 0.  0.
         25    1    3    3    0    0  0.29090232877E+02  0.20458920781E+02 -0.34297918842E+03  0.36680654422E+03  0.12509000000E+03 0.  0.
         25    1    4    4    0    0  0.58015639304E+01 -0.26441476041E+02 -0.12153280769E+03  0.17649515927E+03  0.12509000000E+03 0.  0.
         25    1    4    4    0    0 -0.34891796807E+02  0.59825552602E+01 -0.52876980132E+02  0.14034497348E+03  0.12509000000E+03 0.  0.
<mgrwt>
<rscale>  2 0.44685728E+03</rscale>
<asrwt>0</asrwt>
<pdfrwt beam="1">  1       21 0.12224831E-01 0.44685728E+03</pdfrwt>
<pdfrwt beam="2">  1       21 0.88311442E-01 0.44685728E+03</pdfrwt>
<totfact> 0.57391929E+04</totfact>
</mgrwt>
</event>
<event>
 7    0  0.4750554E-002  0.4545380E+03  0.7546771E-02  0.1026377E+00
         21   -1    0    0  502  501  0.00000000000E+00  0.00000000000E+00  0.73555207115E+03  0.73555207115E+03  0.00000000000E+00 0. -1.
         21   -1    0    0  501  502 -0.00000000000E+00 -0.00000000000E+00 -0.70220996490E+02  0.70220996490E+02  0.00000000000E+00 0. -1.
      99926    2    1    2    0    0  0.35527136788E-14  0.00000000000E+00  0.66533107466E+03  0.80577306764E+03  0.45453800460E+03 0.  0.
      99925    2    3    3    0    0  0.25217818478E+02 -0.10933737411E+03  0.39834410734E+03  0.49030492572E+03  0.26292640146E+03 0.  0.
         25    1    4    4    0    0  0.51753283828E+02 -0.51326600076E+02  0.21903750382E+03  0.26256000922E+03  0.12509000000E+03 0.  0.
         25    1    4    4    0    0 -0.26535465350E+02 -0.58010774039E+02  0.17930660353E+03  0.22774491650E+03  0.12509000000E+03 0.  0.
         25    1    3    3    0    0 -0.25217818478E+02  0.10933737411E+03  0.26698696732E+03  0.31546814192E+03  0.12509000000E+03 0.  0.
<mgrwt>
<rscale>  2 0.45453800E+03</rscale>
<asrwt>0</asrwt>
<pdfrwt beam="1">  1       21 0.10816942E+00 0.45453800E+03</pdfrwt>
<pdfrwt beam="2">  1       21 0.10326618E-01 0.45453800E+03</pdfrwt>
<totfact> 0.47659393E+04</totfact>
</mgrwt>
</event>
<event>
 7    0  0.4750554E-002  0.4531813E+03  0.7546771E-02  0.1026778E+00
         21   -1    0    0  502  501  0.00000000000E+00  0.00000000000E+00  0.29567879025E+03  0.29567879025E+03  0.00000000000E+00 0. -1.
         21   -1    0    0  501  502 -0.00000000000E+00 -0.00000000000E+00 -0.17364563761E+03  0.17364563761E+03  0.00000000000E+00 0. -1.
      99926    2    1    2    0    0  0.26645352591E-14  0.00000000000E+00  0.12203315264E+03  0.46932442786E+03  0.45318134146E+03 0.  0.
      99925    2    3    3    0    0 -0.41460053372E+01 -0.69394819128E+02  0.16743220878E+03  0.31918644905E+03  0.26270442410E+03 0.  0.
         25    1    4    4    0    0  0.28540429851E+02 -0.23863568181E+02  0.10956376895E+03  0.17039880748E+03  0.12509000000E+03 0.  0.
         25    1    3    3    0    0  0.41460053372E+01  0.69394819128E+02 -0.45399056145E+02  0.15013797881E+03  0.12509000000E+03 0.  0.
         25    1    4    4    0    0 -0.32686435188E+02 -0.45531250946E+02  0.57868439832E+02  0.14878764158E+03  0.12509000000E+03 0.  0.
<mgrwt>
<rscale>  2 0.45318134E+03</rscale>
<asrwt>0</asrwt>
<pdfrwt beam="1">  1       21 0.43482175E-01 0.45318134E+03</pdfrwt>
<pdfrwt beam="2">  1       21 0.25536123E-01 0.45318134E+03</pdfrwt>
<totfact> 0.68468522E+04</totfact>
</mgrwt>
</event>
<event>
 7    0  0.4750554E-002  0.4562905E+03  0.7546771E-02  0.1025863E+00
         21   -1    0    0  502  501  0.00000000000E+00  0.00000000000E+00  0.47563320449E+03  0.47563320449E+03  0.00000000000E+00 0.  1.
         21   -1    0    0  501  502 -0.00000000000E+00 -0.00000000000E+00 -0.10943359397E+03  0.10943359397E+03  0.00000000000E+00 0.  1.
      99926    2    1    2    0    0  0.00000000000E+00  0.00000000000E+00  0.36619961052E+03  0.58506679847E+03  0.45629048196E+03 0.  0.
      99925    2    3    3    0    0  0.99780787984E+01 -0.42472899475E+02  0.36570529592E+03  0.45258562360E+03  0.26303968138E+03 0.  0.
         25    1    3    3    0    0 -0.99780787984E+01  0.42472899475E+02  0.49431459507E+00  0.13248117486E+03  0.12509000000E+03 0.  0.
         25    1    4    4    0    0  0.10918682881E+02  0.17679247456E+02  0.19445650105E+03  0.23214782430E+03  0.12509000000E+03 0.  0.
         25    1    4    4    0    0 -0.94060408299E+00 -0.60152146931E+02  0.17124879487E+03  0.22043779931E+03  0.12509000000E+03 0.  0.
<mgrwt>
<rscale>  2 0.45629048E+03</rscale>
<asrwt>0</asrwt>
<pdfrwt beam="1">  1       21 0.69946059E-01 0.45629048E+03</pdfrwt>
<pdfrwt beam="2">  1       21 0.16093176E-01 0.45629048E+03</pdfrwt>
<totfact> 0.59002805E+04</totfact>
</mgrwt>
</event>
<event>
 7    0  0.4750554E-002  0.4577907E+03  0.7546771E-02  0.1025424E+00
         21   -1    0    0  502  501  0.00000000000E+00  0.00000000000E+00  0.31899600011E+03  0.31899600011E+03  0.00000000000E+00 0. -1.
         21   -1    0    0  501  502 -0.00000000000E+00 -0.00000000000E+00 -0.16424368586E+03  0.16424368586E+03  0.00000000000E+00 0. -1.
      99926    2    1    2    0    0  0.00000000000E+00  0.00000000000E+00  0.15475231425E+03  0.48323968597E+03  0.45779068943E+03 0.  0.
      99925    2    3    3    0    0 -0.90135668869E+02 -0.72539730407E+02  0.10073777153E+03  0.30448977628E+03  0.26301991171E+03 0.  0.
         25    1    3    3    0    0  0.90135668869E+02  0.72539730407E+02  0.54014542720E+02  0.17874990969E+03  0.12509000000E+03 0.  0.
         25    1    4    4    0    0 -0.62724035745E+02 -0.87352498490E+00  0.59465949831E+02  0.15204859419E+03  0.12509000000E+03 0.  0.
         25    1    4    4    0    0 -0.27411633123E+02 -0.71666205422E+02  0.41271821700E+02  0.15244118209E+03  0.12509000000E+03 0.  0.
<mgrwt>
<rscale>  2 0.45779069E+03</rscale>
<asrwt>0</asrwt>
<pdfrwt beam="1">  1       21 0.46911177E-01 0.45779069E+03</pdfrwt>
<pdfrwt beam="2">  1       21 0.24153483E-01 0.45779069E+03</pdfrwt>
<totfact> 0.65012879E+04</totfact>
</mgrwt>
</event>
<event>
 7    0  0.4750554E-002  0.4515216E+03  0.7546771E-02  0.1027269E+00
         21   -1    0    0  502  501  0.00000000000E+00  0.00000000000E+00  0.66506931757E+02  0.66506931757E+02  0.00000000000E+00 0.  1.
         21   -1    0    0  501  502 -0.00000000000E+00 -0.00000000000E+00 -0.76635533646E+03  0.76635533646E+03  0.00000000000E+00 0.  1.
      99926    2    1    2    0    0 -0.17763568394E-14  0.00000000000E+00 -0.69984840471E+03  0.83286226822E+03  0.45152161438E+03 0.  0.
      99925    2    3    3    0    0 -0.96121815461E+01 -0.10410715592E+03 -0.38941510770E+03  0.48222422987E+03  0.26450971215E+03 0.  0.
         25    1    3    3    0    0  0.96121815461E+01  0.10410715592E+03 -0.31043329701E+03  0.35063803835E+03  0.12509000000E+03 0.  0.
         25    1    4    4    0    0  0.14151768312E+02 -0.93173194586E+02 -0.21252431838E+03  0.26399926276E+03  0.12509000000E+03 0.  0.
         25    1    4    4    0    0 -0.23763949858E+02 -0.10933961332E+02 -0.17689078932E+03  0.21822496711E+03  0.12509000000E+03 0.  0.
<mgrwt>
<rscale>  2 0.45152161E+03</rscale>
<asrwt>0</asrwt>
<pdfrwt beam="1">  1       21 0.97804306E-02 0.45152161E+03</pdfrwt>
<pdfrwt beam="2">  1       21 0.11269932E+00 0.45152161E+03</pdfrwt>
<totfact> 0.47499092E+04</totfact>
</mgrwt>
</event>
<event>
 7    0  0.4750554E-002  0.4577417E+03  0.7546771E-02  0.1025438E+00
         21   -1    0    0  502  501  0.00000000000E+00  0.00000000000E+00  0.11373901888E+04  0.11373901888E+04  0.00000000000E+00 0.  1.
         21   -1    0    0  501  502 -0.00000000000E+00 -0.00000000000E+00 -0.46054440648E+02  0.46054440648E+02  0.00000000000E+00 0.  1.
      99926    2    1    2    0    0  0.00000000000E+00  0.35527136788E-14  0.10913357481E+04  0.11834446294E+04  0.45774171294E+03 0.  0.
      99925    2    3    3    0    0  0.72167745113E+02  0.20223451526E+02  0.45686001757E+03  0.53242686300E+03  0.26294508432E+03 0.  0.
         25    1    4    4    0    0  0.23436371849E+02  0.30054341886E+02  0.16122343171E+03  0.20758860765E+03  0.12509000000E+03 0.  0.
         25    1    3    3    0    0 -0.72167745113E+02 -0.20223451526E+02  0.63447573054E+03  0.65101776640E+03  0.12509000000E+03 0.  0.
         25    1    4    4    0    0  0.48731373264E+02 -0.98308903605E+01  0.29563658586E+03  0.32483825536E+03  0.12509000000E+03 0.  0.
<mgrwt>
<rscale>  2 0.45774171E+03</rscale>
<asrwt>0</asrwt>
<pdfrwt beam="1">  1       21 0.16726324E+00 0.45774171E+03</pdfrwt>
<pdfrwt beam="2">  1       21 0.67727126E-02 0.45774171E+03</pdfrwt>
<totfact> 0.31996159E+04</totfact>
</mgrwt>
</event>
<event>
 7    0  0.4750554E-002  0.4446660E+03  0.7546771E-02  0.1029325E+00
         21   -1    0    0  502  501  0.00000000000E+00  0.00000000000E+00  0.53155018530E+03  0.53155018530E+03  0.00000000000E+00 0.  1.
         21   -1    0    0  501  502 -0.00000000000E+00 -0.00000000000E+00 -0.92995866470E+02  0.92995866470E+02  0.00000000000E+00 0.  1.
      99926    2    1    2    0    0  0.14210854715E-13  0.00000000000E+00  0.43855431883E+03  0.62454605177E+03  0.44466603223E+03 0.  0.
      99925    2    3    3    0    0 -0.89227652080E+02  0.37359372323E+02  0.22754269413E+03  0.36085928598E+03  0.26284301404E+03 0.  0.
         25    1    4    4    0    0 -0.58368896071E+01  0.14051834373E+02  0.82169342854E+02  0.15043547565E+03  0.12509000000E+03 0.  0.
         25    1    4    4    0    0 -0.83390762473E+02  0.23307537949E+02  0.14537335128E+03  0.21042381033E+03  0.12509000000E+03 0.  0.
         25    1    3    3    0    0  0.89227652080E+02 -0.37359372323E+02  0.21101162470E+03  0.26368676579E+03  0.12509000000E+03 0.  0.
<mgrwt>
<rscale>  2 0.44466603E+03</rscale>
<asrwt>0</asrwt>
<pdfrwt beam="1">  1       21 0.78169144E-01 0.44466603E+03</pdfrwt>
<pdfrwt beam="2">  1       21 0.13675863E-01 0.44466603E+03</pdfrwt>
<totfact> 0.62106232E+04</totfact>
</mgrwt>
</event>
<event>
 7    0  0.4750554E-002  0.4557896E+03  0.7546771E-02  0.1026009E+00
         21   -1    0    0  502  501  0.00000000000E+00  0.00000000000E+00  0.48198897841E+03  0.48198897841E+03  0.00000000000E+00 0.  1.
         21   -1    0    0  501  502 -0.00000000000E+00 -0.00000000000E+00 -0.10775357148E+03  0.10775357148E+03  0.00000000000E+00 0.  1.
      99926    2    1    2    0    0  0.00000000000E+00  0.00000000000E+00  0.37423540693E+03  0.58974254990E+03  0.45578957355E+03 0.  0.
      99925    2    3    3    0    0 -0.89216568859E+02 -0.63935096619E+02  0.27365103853E+03  0.39528942957E+03  0.26328985834E+03 0.  0.
         25    1    4    4    0    0 -0.10540062407E+02 -0.36402048333E+01  0.12465807256E+03  0.17695052179E+03  0.12509000000E+03 0.  0.
         25    1    4    4    0    0 -0.78676506452E+02 -0.60294891786E+02  0.14899296597E+03  0.21833890778E+03  0.12509000000E+03 0.  0.
         25    1    3    3    0    0  0.89216568859E+02  0.63935096619E+02  0.10058436840E+03  0.19445312033E+03  0.12509000000E+03 0.  0.
<mgrwt>
<rscale>  2 0.45578957E+03</rscale>
<asrwt>0</asrwt>
<pdfrwt beam="1">  1       21 0.70880731E-01 0.45578957E+03</pdfrwt>
<pdfrwt beam="2">  1       21 0.15846114E-01 0.45578957E+03</pdfrwt>
<totfact> 0.58945413E+04</totfact>
</mgrwt>
</event>
<event>
 7    0  0.4750554E-002  0.4563893E+03  0.7546771E-02  0.1025834E+00
         21   -1    0    0  502  501  0.00000000000E+00  0.00000000000E+00  0.15932320360E+03  0.15932320360E+03  0.00000000000E+00 0. -1.
         21   -1    0    0  501  502 -0.00000000000E+00 -0.00000000000E+00 -0.32683752327E+03  0.32683752327E+03  0.00000000000E+00 0. -1.
      99926    2    1    2    0    0  0.00000000000E+00 -0.14210854715E-13 -0.16751431967E+03  0.48616072687E+03  0.45638931304E+03 0.  0.
      99925    2    3    3    0    0 -0.27736699757E+02 -0.11104335341E+03 -0.10532313236E+03  0.30556393086E+03  0.26301407336E+03 0.  0.
         25    1    3    3    0    0  0.27736699757E+02  0.11104335341E+03 -0.62191187305E+02  0.18059679601E+03  0.12509000000E+03 0.  0.
         25    1    4    4    0    0 -0.10326769152E+01 -0.72484481268E+02 -0.91863297960E+02  0.17129343262E+03  0.12509000000E+03 0.  0.
         25    1    4    4    0    0 -0.26704022842E+02 -0.38558872141E+02 -0.13459834402E+02  0.13427049824E+03  0.12509000000E+03 0.  0.
<mgrwt>
<rscale>  2 0.45638931E+03</rscale>
<asrwt>0</asrwt>
<pdfrwt beam="1">  1       21 0.23429883E-01 0.45638931E+03</pdfrwt>
<pdfrwt beam="2">  1       21 0.48064341E-01 0.45638931E+03</pdfrwt>
<totfact> 0.65528612E+04</totfact>
</mgrwt>
</event>
<event>
 7    0  0.4750554E-002  0.4414928E+03  0.7546771E-02  0.1030290E+00
         21   -1    0    0  502  501  0.00000000000E+00  0.00000000000E+00  0.37787706864E+03  0.37787706864E+03  0.00000000000E+00 0.  1.
         21   -1    0    0  501  502 -0.00000000000E+00 -0.00000000000E+00 -0.12895455268E+03  0.12895455268E+03  0.00000000000E+00 0.  1.
      99926    2    1    2    0    0 -0.71054273576E-14  0.14210854715E-13  0.24892251597E+03  0.50683162132E+03  0.44149277844E+03 0.  0.
      99925    2    3    3    0    0 -0.59969593147E+02  0.79852588313E+02  0.16209874972E+03  0.32473641971E+03  0.26306833649E+03 0.  0.
         25    1    4    4    0    0 -0.38022366878E+02  0.62349915160E+02  0.12486432288E+03  0.19123759968E+03  0.12509000000E+03 0.  0.
         25    1    4    4    0    0 -0.21947226268E+02  0.17502673153E+02  0.37234426840E+02  0.13349882003E+03  0.12509000000E+03 0.  0.
         25    1    3    3    0    0  0.59969593147E+02 -0.79852588313E+02  0.86823766252E+02  0.18209520161E+03  0.12509000000E+03 0.  0.
<mgrwt>
<rscale>  2 0.44149278E+03</rscale>
<asrwt>0</asrwt>
<pdfrwt beam="1">  1       21 0.55570157E-01 0.44149278E+03</pdfrwt>
<pdfrwt beam="2">  1       21 0.18963905E-01 0.44149278E+03</pdfrwt>
<totfact> 0.72230097E+04</totfact>
</mgrwt>
</event>
<event>
 7    0  0.4750554E-002  0.4686404E+03  0.7546771E-02  0.1022305E+00
         21   -1    0    0  502  501  0.00000000000E+00  0.00000000000E+00  0.37107220927E+02  0.37107220927E+02  0.00000000000E+00 0.  1.
         21   -1    0    0  501  502 -0.00000000000E+00 -0.00000000000E+00 -0.14796567960E+04  0.14796567960E+04  0.00000000000E+00 0.  1.
      99926    2    1    2    0    0  0.00000000000E+00  0.13322676296E-14 -0.14425495750E+04  0.15167640169E+04  0.46864038078E+03 0.  0.
      99925    2    3    3    0    0  0.27988085028E+02 -0.15845441282E+01 -0.50177671489E+03  0.56729736336E+03  0.26317405492E+03 0.  0.
         25    1    4    4    0    0  0.56837597991E+01  0.22355637318E+02 -0.31887037277E+03  0.34330438735E+03  0.12509000000E+03 0.  0.
         25    1    3    3    0    0 -0.27988085028E+02  0.15845441282E+01 -0.94077286014E+03  0.94946665353E+03  0.12509000000E+03 0.  0.
         25    1    4    4    0    0  0.22304325229E+02 -0.23940181446E+02 -0.18290634212E+03  0.22399297600E+03  0.12509000000E+03 0.  0.
<mgrwt>
<rscale>  2 0.46864038E+03</rscale>
<asrwt>0</asrwt>
<pdfrwt beam="1">  1       21 0.54569444E-02 0.46864038E+03</pdfrwt>
<pdfrwt beam="2">  1       21 0.21759658E+00 0.46864038E+03</pdfrwt>
<totfact> 0.21051146E+04</totfact>
</mgrwt>
</event>
<event>
 7    0  0.4750554E-002  0.4531374E+03  0.7546771E-02  0.1026791E+00
         21   -1    0    0  502  501  0.00000000000E+00  0.00000000000E+00  0.94281070759E+02  0.94281070759E+02  0.00000000000E+00 0. -1.
         21   -1    0    0  501  502 -0.00000000000E+00 -0.00000000000E+00 -0.54447172041E+03  0.54447172041E+03  0.00000000000E+00 0. -1.
      99926    2    1    2    0    0  0.00000000000E+00  0.00000000000E+00 -0.45019064965E+03  0.63875279117E+03  0.45313740432E+03 0.  0.
      99925    2    3    3    0    0 -0.35199791464E+00 -0.32168735474E+02 -0.43407497828E+03  0.50859068298E+03  0.26307497906E+03 0.  0.
         25    1    4    4    0    0  0.79970426404E+01  0.18786987996E+02 -0.17220100704E+03  0.21381674054E+03  0.12509000000E+03 0.  0.
         25    1    3    3    0    0  0.35199791464E+00  0.32168735474E+02 -0.16115671378E+02  0.13016210819E+03  0.12509000000E+03 0.  0.
         25    1    4    4    0    0 -0.83490405550E+01 -0.50955723470E+02 -0.26187397124E+03  0.29477394244E+03  0.12509000000E+03 0.  0.
<mgrwt>
<rscale>  2 0.45313740E+03</rscale>
<asrwt>0</asrwt>
<pdfrwt beam="1">  1       21 0.13864863E-01 0.45313740E+03</pdfrwt>
<pdfrwt beam="2">  1       21 0.80069370E-01 0.45313740E+03</pdfrwt>
<totfact> 0.57190155E+04</totfact>
</mgrwt>
</event>
<event>
 7    0  0.4750554E-002  0.4573331E+03  0.7546771E-02  0.1025558E+00
         21   -1    0    0  502  501  0.00000000000E+00  0.00000000000E+00  0.17643229704E+03  0.17643229704E+03  0.00000000000E+00 0. -1.
         21   -1    0    0  501  502 -0.00000000000E+00 -0.00000000000E+00 -0.29636516442E+03  0.29636516442E+03  0.00000000000E+00 0. -1.
      99926    2    1    2    0    0  0.00000000000E+00  0.00000000000E+00 -0.11993286738E+03  0.47279746146E+03  0.45733308090E+03 0.  0.
      99925    2    3    3    0    0 -0.17353954436E+02  0.43185043600E+02  0.33772633184E+02  0.26923175529E+03  0.26301908596E+03 0.  0.
         25    1    4    4    0    0 -0.14941264555E+02  0.15777406710E+02  0.56814530104E+02  0.13909553149E+03  0.12509000000E+03 0.  0.
         25    1    4    4    0    0 -0.24126898808E+01  0.27407636890E+02 -0.23041896920E+02  0.13013622380E+03  0.12509000000E+03 0.  0.
         25    1    3    3    0    0  0.17353954436E+02 -0.43185043600E+02 -0.15370550057E+03  0.20356570617E+03  0.12509000000E+03 0.  0.
<mgrwt>
<rscale>  2 0.45733308E+03</rscale>
<asrwt>0</asrwt>
<pdfrwt beam="1">  1       21 0.25945926E-01 0.45733308E+03</pdfrwt>
<pdfrwt beam="2">  1       21 0.43583112E-01 0.45733308E+03</pdfrwt>
<totfact> 0.65998162E+04</totfact>
</mgrwt>
</event>
<event>
 7    0  0.4750554E-002  0.4622549E+03  0.7546771E-02  0.1024129E+00
         21   -1    0    0  502  501  0.00000000000E+00  0.00000000000E+00  0.42088557148E+03  0.42088557148E+03  0.00000000000E+00 0.  1.
         21   -1    0    0  501  502 -0.00000000000E+00 -0.00000000000E+00 -0.12692259723E+03  0.12692259723E+03  0.00000000000E+00 0.  1.
      99926    2    1    2    0    0  0.00000000000E+00  0.14210854715E-13  0.29396297425E+03  0.54780816870E+03  0.46225486419E+03 0.  0.
      99925    2    3    3    0    0  0.81723635122E+02 -0.85738163582E+02  0.16159992476E+03  0.33055884142E+03  0.26291600699E+03 0.  0.
         25    1    4    4    0    0  0.56871300196E+02 -0.10465162399E+02  0.99491895229E+02  0.16997061430E+03  0.12509000000E+03 0.  0.
         25    1    4    4    0    0  0.24852334926E+02 -0.75273001183E+02  0.62108029527E+02  0.16058822712E+03  0.12509000000E+03 0.  0.
         25    1    3    3    0    0 -0.81723635122E+02  0.85738163582E+02  0.13236304950E+03  0.21724932728E+03  0.12509000000E+03 0.  0.
<mgrwt>
<rscale>  2 0.46225486E+03</rscale>
<asrwt>0</asrwt>
<pdfrwt beam="1">  1       21 0.61894937E-01 0.46225486E+03</pdfrwt>
<pdfrwt beam="2">  1       21 0.18665088E-01 0.46225486E+03</pdfrwt>
<totfact> 0.58575960E+04</totfact>
</mgrwt>
</event>
<event>
 7    0  0.4750554E-002  0.4583732E+03  0.7546771E-02  0.1025254E+00
         21   -1    0    0  502  501  0.00000000000E+00  0.00000000000E+00  0.79887708930E+03  0.79887708930E+03  0.00000000000E+00 0. -1.
         21   -1    0    0  501  502 -0.00000000000E+00 -0.00000000000E+00 -0.65750408188E+02  0.65750408188E+02  0.00000000000E+00 0. -1.
      99926    2    1    2    0    0  0.00000000000E+00  0.13322676296E-14  0.73312668112E+03  0.86462749749E+03  0.45837318732E+03 0.  0.
      99925    2    3    3    0    0  0.10398836900E+03  0.34470713711E+01  0.55932962043E+03  0.62655526141E+03  0.26248125290E+03 0.  0.
         25    1    4    4    0    0  0.72738306712E+02  0.24053632757E+02  0.35447878031E+03  0.38363022861E+03  0.12509000000E+03 0.  0.
         25    1    4    4    0    0  0.31250062288E+02 -0.20606561386E+02  0.20485084012E+03  0.24292503281E+03  0.12509000000E+03 0.  0.
         25    1    3    3    0    0 -0.10398836900E+03 -0.34470713711E+01  0.17379706069E+03  0.23807223608E+03  0.12509000000E+03 0.  0.
<mgrwt>
<rscale>  2 0.45837319E+03</rscale>
<asrwt>0</asrwt>
<pdfrwt beam="1">  1       21 0.11748192E+00 0.45837319E+03</pdfrwt>
<pdfrwt beam="2">  1       21 0.96691782E-02 0.45837319E+03</pdfrwt>
<totfact> 0.43626195E+04</totfact>
</mgrwt>
</event>
<event>
 7    0  0.4750554E-002  0.4619179E+03  0.7546771E-02  0.1024226E+00
         21   -1    0    0  502  501  0.00000000000E+00  0.00000000000E+00  0.47188160521E+02  0.47188160521E+02  0.00000000000E+00 0.  1.
         21   -1    0    0  501  502 -0.00000000000E+00 -0.00000000000E+00 -0.11304115935E+04  0.11304115935E+04  0.00000000000E+00 0.  1.
      99926    2    1    2    0    0  0.00000000000E+00  0.00000000000E+00 -0.10832234330E+04  0.11775997540E+04  0.46191793093E+03 0.  0.
      99925    2    3    3    0    0 -0.11872556415E+02 -0.65590884534E+02 -0.42437228146E+03  0.50367433553E+03  0.26296935424E+03 0.  0.
         25    1    4    4    0    0 -0.62668389073E+01 -0.37311490763E+02 -0.28867728380E+03  0.31688089702E+03  0.12509000000E+03 0.  0.
         25    1    3    3    0    0  0.11872556415E+02  0.65590884534E+02 -0.65885115152E+03  0.67392541849E+03  0.12509000000E+03 0.  0.
         25    1    4    4    0    0 -0.56057175073E+01 -0.28279393770E+02 -0.13569499766E+03  0.18679343851E+03  0.12509000000E+03 0.  0.
<mgrwt>
<rscale>  2 0.46191793E+03</rscale>
<asrwt>0</asrwt>
<pdfrwt beam="1">  1       21 0.69394346E-02 0.46191793E+03</pdfrwt>
<pdfrwt beam="2">  1       21 0.16623702E+00 0.46191793E+03</pdfrwt>
<totfact> 0.31160316E+04</totfact>
</mgrwt>
</event>
<event>
 7    0  0.4750554E-002  0.4587485E+03  0.7546771E-02  0.1025145E+00
         21   -1    0    0  502  501  0.00000000000E+00  0.00000000000E+00  0.20271130377E+03  0.20271130377E+03  0.00000000000E+00 0.  1.
         21   -1    0    0  501  502 -0.00000000000E+00 -0.00000000000E+00 -0.25954420855E+03  0.25954420855E+03  0.00000000000E+00 0.  1.
      99926    2    1    2    0    0  0.00000000000E+00  0.00000000000E+00 -0.56832904782E+02  0.46225551233E+03  0.45874849276E+03 0.  0.
      99925    2    3    3    0    0 -0.95362781477E+00 -0.88324736406E+02 -0.11243986785E+03  0.29933893580E+03  0.26298080944E+03 0.  0.
         25    1    4    4    0    0 -0.19745199817E+01 -0.75754812579E+02 -0.30883615825E+02  0.14947908277E+03  0.12509000000E+03 0.  0.
         25    1    4    4    0    0  0.10208921669E+01 -0.12569923827E+02 -0.81556252024E+02  0.14985985303E+03  0.12509000000E+03 0.  0.
         25    1    3    3    0    0  0.95362781477E+00  0.88324736406E+02  0.55606963068E+02  0.16291657653E+03  0.12509000000E+03 0.  0.
<mgrwt>
<rscale>  2 0.45874849E+03</rscale>
<asrwt>0</asrwt>
<pdfrwt beam="1">  1       21 0.29810486E-01 0.45874849E+03</pdfrwt>
<pdfrwt beam="2">  1       21 0.38168266E-01 0.45874849E+03</pdfrwt>
<totfact> 0.66020669E+04</totfact>
</mgrwt>
</event>
<event>
 7    0  0.4750554E-002  0.4541758E+03  0.7546771E-02  0.1026484E+00
         21   -1    0    0  502  501  0.00000000000E+00  0.00000000000E+00  0.16108015840E+03  0.16108015840E+03  0.00000000000E+00 0. -1.
         21   -1    0    0  501  502 -0.00000000000E+00 -0.00000000000E+00 -0.32014447619E+03  0.32014447619E+03  0.00000000000E+00 0. -1.
      99926    2    1    2    0    0  0.00000000000E+00  0.17763568394E-14 -0.15906431779E+03  0.48122463459E+03  0.45417583791E+03 0.  0.
      99925    2    3    3    0    0 -0.17334132538E+02  0.14718092668E+02  0.16613123309E+02  0.26436715647E+03  0.26286289801E+03 0.  0.
         25    1    4    4    0    0  0.87596368809E+01  0.15113062921E+02  0.43876583360E+02  0.13370788524E+03  0.12509000000E+03 0.  0.
         25    1    4    4    0    0 -0.26093769418E+02 -0.39497025289E+00 -0.27263460050E+02  0.13065927123E+03  0.12509000000E+03 0.  0.
         25    1    3    3    0    0  0.17334132538E+02 -0.14718092668E+02 -0.17567744110E+03  0.21685747811E+03  0.12509000000E+03 0.  0.
<mgrwt>
<rscale>  2 0.45417584E+03</rscale>
<asrwt>0</asrwt>
<pdfrwt beam="1">  1       21 0.23688259E-01 0.45417584E+03</pdfrwt>
<pdfrwt beam="2">  1       21 0.47080069E-01 0.45417584E+03</pdfrwt>
<totfact> 0.67048627E+04</totfact>
</mgrwt>
</event>
<event>
 7    0  0.4750554E-002  0.4562524E+03  0.7546771E-02  0.1025874E+00
         21   -1    0    0  502  501  0.00000000000E+00  0.00000000000E+00  0.15180310813E+03  0.15180310813E+03  0.00000000000E+00 0. -1.
         21   -1    0    0  501  502 -0.00000000000E+00 -0.00000000000E+00 -0.34282273589E+03  0.34282273589E+03  0.00000000000E+00 0. -1.
      99926    2    1    2    0    0  0.00000000000E+00  0.00000000000E+00 -0.19101962776E+03  0.49462584402E+03  0.45625237247E+03 0.  0.
      99925    2    3    3    0    0  0.94025495938E+02  0.46939317043E+02 -0.16892390618E+03  0.32976280273E+03  0.26299073484E+03 0.  0.
         25    1    4    4    0    0  0.55402688228E+02  0.43384761638E+02 -0.47529746371E+02  0.15118955088E+03  0.12509000000E+03 0.  0.
         25    1    4    4    0    0  0.38622807711E+02  0.35545554050E+01 -0.12139415981E+03  0.17857325185E+03  0.12509000000E+03 0.  0.
         25    1    3    3    0    0 -0.94025495938E+02 -0.46939317043E+02 -0.22095721573E+02  0.16486304129E+03  0.12509000000E+03 0.  0.
<mgrwt>
<rscale>  2 0.45625237E+03</rscale>
<asrwt>0</asrwt>
<pdfrwt beam="1">  1       21 0.22323987E-01 0.45625237E+03</pdfrwt>
<pdfrwt beam="2">  1       21 0.50415108E-01 0.45625237E+03</pdfrwt>
<totfact> 0.65001224E+04</totfact>
</mgrwt>
</event>
<event>
 7    0  0.4750554E-002  0.4609698E+03  0.7546771E-02  0.1024500E+00
         21   -1    0    0  502  501  0.00000000000E+00  0.00000000000E+00  0.46951149877E+02  0.46951149877E+02  0.00000000000E+00 0.  1.
         21   -1    0    0  501  502 -0.00000000000E+00 -0.00000000000E+00 -0.11314587536E+04  0.11314587536E+04  0.00000000000E+00 0.  1.
      99926    2    1    2    0    0  0.22204460493E-15  0.00000000000E+00 -0.10845076037E+04  0.11784099035E+04  0.46096980170E+03 0.  0.
      99925    2    3    3    0    0 -0.17699077706E+01 -0.64078831825E+02 -0.42330287343E+03  0.50243029378E+03  0.26294799523E+03 0.  0.
         25    1    4    4    0    0  0.25674397991E+02 -0.41516689094E+02 -0.26891534297E+03  0.30057574747E+03  0.12509000000E+03 0.  0.
         25    1    3    3    0    0  0.17699077706E+01  0.64078831825E+02 -0.66120473027E+03  0.67597960967E+03  0.12509000000E+03 0.  0.
         25    1    4    4    0    0 -0.27444305762E+02 -0.22562142731E+02 -0.15438753046E+03  0.20185454631E+03  0.12509000000E+03 0.  0.
<mgrwt>
<rscale>  2 0.46096980E+03</rscale>
<asrwt>0</asrwt>
<pdfrwt beam="1">  1       21 0.69045800E-02 0.46096980E+03</pdfrwt>
<pdfrwt beam="2">  1       21 0.16639101E+00 0.46096980E+03</pdfrwt>
<totfact> 0.31363407E+04</totfact>
</mgrwt>
</event>
<event>
 7    0  0.4750554E-002  0.4509617E+03  0.7546771E-02  0.1027436E+00
         21   -1    0    0  502  501  0.00000000000E+00  0.00000000000E+00  0.16396114496E+03  0.16396114496E+03  0.00000000000E+00 0. -1.
         21   -1    0    0  501  502 -0.00000000000E+00 -0.00000000000E+00 -0.31008334238E+03  0.31008334238E+03  0.00000000000E+00 0. -1.
      99926    2    1    2    0    0 -0.35527136788E-14 -0.71054273576E-14 -0.14612219742E+03  0.47404448734E+03  0.45096172720E+03 0.  0.
      99925    2    3    3    0    0  0.19630176587E+02  0.51380208957E+02  0.70391371139E+01  0.26878569410E+03  0.26300366955E+03 0.  0.
         25    1    4    4    0    0  0.44236037509E+02  0.48121990627E+02  0.18182623389E+01  0.14115015825E+03  0.12509000000E+03 0.  0.
         25    1    3    3    0    0 -0.19630176587E+02 -0.51380208957E+02 -0.15316133453E+03  0.20525879324E+03  0.12509000000E+03 0.  0.
         25    1    4    4    0    0 -0.24605860922E+02  0.32582183304E+01  0.52208747751E+01  0.12763553585E+03  0.12509000000E+03 0.  0.
<mgrwt>
<rscale>  2 0.45096173E+03</rscale>
<asrwt>0</asrwt>
<pdfrwt beam="1">  1       21 0.24111933E-01 0.45096173E+03</pdfrwt>
<pdfrwt beam="2">  1       21 0.45600491E-01 0.45096173E+03</pdfrwt>
<totfact> 0.69331758E+04</totfact>
</mgrwt>
</event>
<event>
 7    0  0.4750554E-002  0.4534569E+03  0.7546771E-02  0.1026696E+00
         21   -1    0    0  502  501  0.00000000000E+00  0.00000000000E+00  0.95600348042E+02  0.95600348042E+02  0.00000000000E+00 0. -1.
         21   -1    0    0  501  502 -0.00000000000E+00 -0.00000000000E+00 -0.53771558040E+03  0.53771558040E+03  0.00000000000E+00 0. -1.
      99926    2    1    2    0    0  0.00000000000E+00  0.00000000000E+00 -0.44211523236E+03  0.63331592844E+03  0.45345692909E+03 0.  0.
      99925    2    3    3    0    0  0.58781658033E+02 -0.41306352750E+01 -0.41103131707E+03  0.49159061892E+03  0.26313921701E+03 0.  0.
         25    1    3    3    0    0 -0.58781658033E+02  0.41306352750E+01 -0.31083915283E+02  0.14172530952E+03  0.12509000000E+03 0.  0.
         25    1    4    4    0    0  0.33750482820E+02 -0.62903643520E+01 -0.28060175080E+03  0.30913348966E+03  0.12509000000E+03 0.  0.
         25    1    4    4    0    0  0.25031175213E+02  0.21597290770E+01 -0.13042956627E+03  0.18245712927E+03  0.12509000000E+03 0.  0.
<mgrwt>
<rscale>  2 0.45345693E+03</rscale>
<asrwt>0</asrwt>
<pdfrwt beam="1">  1       21 0.14058875E-01 0.45345693E+03</pdfrwt>
<pdfrwt beam="2">  1       21 0.79075821E-01 0.45345693E+03</pdfrwt>
<totfact> 0.57368589E+04</totfact>
</mgrwt>
</event>
<event>
 7    0  0.4750554E-002  0.4572782E+03  0.7546771E-02  0.1025574E+00
         21   -1    0    0  502  501  0.00000000000E+00  0.00000000000E+00  0.32452578515E+03  0.32452578515E+03  0.00000000000E+00 0. -1.
         21   -1    0    0  501  502 -0.00000000000E+00 -0.00000000000E+00 -0.16108378240E+03  0.16108378240E+03  0.00000000000E+00 0. -1.
      99926    2    1    2    0    0  0.71054273576E-14  0.00000000000E+00  0.16344200275E+03  0.48560956755E+03  0.45727821273E+03 0.  0.
      99925    2    3    3    0    0 -0.32587547712E+02  0.91491597344E+02  0.37309038324E+02  0.28315045201E+03  0.26334303386E+03 0.  0.
         25    1    4    4    0    0 -0.54418990161E+02  0.59146403695E+02  0.31506163880E+02  0.15198641394E+03  0.12509000000E+03 0.  0.
         25    1    3    3    0    0  0.32587547712E+02 -0.91491597344E+02  0.12613296443E+03  0.20245911554E+03  0.12509000000E+03 0.  0.
         25    1    4    4    0    0  0.21831442449E+02  0.32345193649E+02  0.58028744439E+01  0.13116403807E+03  0.12509000000E+03 0.  0.
<mgrwt>
<rscale>  2 0.45727821E+03</rscale>
<asrwt>0</asrwt>
<pdfrwt beam="1">  1       21 0.47724380E-01 0.45727821E+03</pdfrwt>
<pdfrwt beam="2">  1       21 0.23688792E-01 0.45727821E+03</pdfrwt>
<totfact> 0.65108498E+04</totfact>
</mgrwt>
</event>
<event>
 7    0  0.4750554E-002  0.4540455E+03  0.7546771E-02  0.1026522E+00
         21   -1    0    0  502  501  0.00000000000E+00  0.00000000000E+00  0.31168861405E+03  0.31168861405E+03  0.00000000000E+00 0.  1.
         21   -1    0    0  501  502 -0.00000000000E+00 -0.00000000000E+00 -0.16535515141E+03  0.16535515141E+03  0.00000000000E+00 0.  1.
      99926    2    1    2    0    0  0.14210854715E-13  0.00000000000E+00  0.14633346264E+03  0.47704376546E+03  0.45404545133E+03 0.  0.
      99925    2    3    3    0    0 -0.86397189208E+02  0.46444028259E+02  0.14959432252E+03  0.31804796875E+03  0.26297248341E+03 0.  0.
         25    1    3    3    0    0  0.86397189208E+02 -0.46444028259E+02 -0.32608598756E+01  0.15899579671E+03  0.12509000000E+03 0.  0.
         25    1    4    4    0    0 -0.38691975496E+02  0.43167334930E+02  0.11550471269E+03  0.17985920751E+03  0.12509000000E+03 0.  0.
         25    1    4    4    0    0 -0.47705213712E+02  0.32766933292E+01  0.34089609824E+02  0.13818876124E+03  0.12509000000E+03 0.  0.
<mgrwt>
<rscale>  2 0.45404545E+03</rscale>
<asrwt>0</asrwt>
<pdfrwt beam="1">  1       21 0.45836561E-01 0.45404545E+03</pdfrwt>
<pdfrwt beam="2">  1       21 0.24316934E-01 0.45404545E+03</pdfrwt>
<totfact> 0.67425293E+04</totfact>
</mgrwt>
</event>
<event>
 7    0  0.4750554E-002  0.4558238E+03  0.7546771E-02  0.1025999E+00
         21   -1    0    0  502  501  0.00000000000E+00  0.00000000000E+00  0.11147509193E+03  0.11147509193E+03  0.00000000000E+00 0.  1.
         21   -1    0    0  501  502 -0.00000000000E+00 -0.00000000000E+00 -0.46596811741E+03  0.46596811741E+03  0.00000000000E+00 0.  1.
      99926    2    1    2    0    0  0.00000000000E+00  0.00000000000E+00 -0.35449302548E+03  0.57744320934E+03  0.45582382002E+03 0.  0.
      99925    2    3    3    0    0 -0.48873015371E+02 -0.26582298780E+02 -0.34901231279E+03  0.44042957297E+03  0.26281823381E+03 0.  0.
         25    1    4    4    0    0  0.97624557319E+01 -0.34132268336E+02 -0.15951074839E+03  0.20579481100E+03  0.12509000000E+03 0.  0.
         25    1    3    3    0    0  0.48873015371E+02  0.26582298780E+02 -0.54807126822E+01  0.13701363637E+03  0.12509000000E+03 0.  0.
         25    1    4    4    0    0 -0.58635471103E+02  0.75499695560E+01 -0.18950156440E+03  0.23463476197E+03  0.12509000000E+03 0.  0.
<mgrwt>
<rscale>  2 0.45582382E+03</rscale>
<asrwt>0</asrwt>
<pdfrwt beam="1">  1       21 0.16393396E-01 0.45582382E+03</pdfrwt>
<pdfrwt beam="2">  1       21 0.68524723E-01 0.45582382E+03</pdfrwt>
<totfact> 0.59698841E+04</totfact>
</mgrwt>
</event>
<event>
 7    0  0.4750554E-002  0.4666348E+03  0.7546771E-02  0.1022874E+00
         21   -1    0    0  502  501  0.00000000000E+00  0.00000000000E+00  0.88048372468E+03  0.88048372468E+03  0.00000000000E+00 0. -1.
         21   -1    0    0  501  502 -0.00000000000E+00 -0.00000000000E+00 -0.61826261910E+02  0.61826261910E+02  0.00000000000E+00 0. -1.
      99926    2    1    2    0    0 -0.35527136788E-14  0.35527136788E-14  0.81865746277E+03  0.94230998659E+03  0.46663483526E+03 0.  0.
      99925    2    3    3    0    0 -0.18689489532E+02  0.23309124228E+02  0.75246612023E+03  0.79766761998E+03  0.26301284680E+03 0.  0.
         25    1    4    4    0    0  0.12311105211E+01 -0.10927653006E+02  0.27164697160E+03  0.29926662780E+03  0.12509000000E+03 0.  0.
         25    1    3    3    0    0  0.18689489532E+02 -0.23309124228E+02  0.66191342542E+02  0.14464236661E+03  0.12509000000E+03 0.  0.
         25    1    4    4    0    0 -0.19920600053E+02  0.34236777234E+02  0.48081914863E+03  0.49840099218E+03  0.12509000000E+03 0.  0.
<mgrwt>
<rscale>  2 0.46663484E+03</rscale>
<asrwt>0</asrwt>
<pdfrwt beam="1">  1       21 0.12948289E+00 0.46663484E+03</pdfrwt>
<pdfrwt beam="2">  1       21 0.90920979E-02 0.46663484E+03</pdfrwt>
<totfact> 0.37886170E+04</totfact>
</mgrwt>
</event>
<event>
 7    0  0.4750554E-002  0.4615552E+03  0.7546771E-02  0.1024331E+00
         21   -1    0    0  502  501  0.00000000000E+00  0.00000000000E+00  0.13080693601E+03  0.13080693601E+03  0.00000000000E+00 0. -1.
         21   -1    0    0  501  502 -0.00000000000E+00 -0.00000000000E+00 -0.40715196942E+03  0.40715196942E+03  0.00000000000E+00 0. -1.
      99926    2    1    2    0    0  0.00000000000E+00 -0.35527136788E-14 -0.27634503342E+03  0.53795890543E+03  0.46155520411E+03 0.  0.
      99925    2    3    3    0    0  0.99014288289E+02 -0.26605563828E+02 -0.24382171188E+03  0.37298327131E+03  0.26297491930E+03 0.  0.
         25    1    4    4    0    0  0.92703804353E+02 -0.12098355666E+02 -0.13425976635E+03  0.20594552317E+03  0.12509000000E+03 0.  0.
         25    1    3    3    0    0 -0.99014288289E+02  0.26605563828E+02 -0.32523321538E+02  0.16497563413E+03  0.12509000000E+03 0.  0.
         25    1    4    4    0    0  0.63104839355E+01 -0.14507208162E+02 -0.10956194552E+03  0.16703774814E+03  0.12509000000E+03 0.  0.
<mgrwt>
<rscale>  2 0.46155520E+03</rscale>
<asrwt>0</asrwt>
<pdfrwt beam="1">  1       21 0.19236314E-01 0.46155520E+03</pdfrwt>
<pdfrwt beam="2">  1       21 0.59875290E-01 0.46155520E+03</pdfrwt>
<totfact> 0.59518251E+04</totfact>
</mgrwt>
</event>
<event>
 7    0  0.4750554E-002  0.4554203E+03  0.7546771E-02  0.1026118E+00
         21   -1    0    0  502  501  0.00000000000E+00  0.00000000000E+00  0.16546376468E+03  0.16546376468E+03  0.00000000000E+00 0. -1.
         21   -1    0    0  501  502 -0.00000000000E+00 -0.00000000000E+00 -0.31337317993E+03  0.31337317993E+03  0.00000000000E+00 0. -1.
      99926    2    1    2    0    0  0.00000000000E+00  0.14210854715E-13 -0.14790941526E+03  0.47883694461E+03  0.45542027228E+03 0.  0.
      99925    2    3    3    0    0 -0.43792757791E+02  0.80648398523E+02 -0.22506059495E+02  0.27934890097E+03  0.26288270377E+03 0.  0.
         25    1    3    3    0    0  0.43792757791E+02 -0.80648398523E+02 -0.12540335576E+03  0.19948804364E+03  0.12509000000E+03 0.  0.
         25    1    4    4    0    0 -0.72819162923E+01  0.67177698507E+02  0.15311224350E+02  0.14299584320E+03  0.12509000000E+03 0.  0.
         25    1    4    4    0    0 -0.36510841499E+02  0.13470700016E+02 -0.37817283845E+02  0.13635305777E+03  0.12509000000E+03 0.  0.
<mgrwt>
<rscale>  2 0.45542027E+03</rscale>
<asrwt>0</asrwt>
<pdfrwt beam="1">  1       21 0.24332907E-01 0.45542027E+03</pdfrwt>
<pdfrwt beam="2">  1       21 0.46084291E-01 0.45542027E+03</pdfrwt>
<totfact> 0.66562543E+04</totfact>
</mgrwt>
</event>
<event>
 7    0  0.4750554E-002  0.4507232E+03  0.7546771E-02  0.1027507E+00
         21   -1    0    0  502  501  0.00000000000E+00  0.00000000000E+00  0.34893398781E+02  0.34893398781E+02  0.00000000000E+00 0.  1.
         21   -1    0    0  501  502 -0.00000000000E+00 -0.00000000000E+00 -0.14555145611E+04  0.14555145611E+04  0.00000000000E+00 0.  1.
      99926    2    1    2    0    0  0.00000000000E+00  0.00000000000E+00 -0.14206211623E+04  0.14904079599E+04  0.45072319671E+03 0.  0.
      99925    2    3    3    0    0  0.60708314341E+02  0.88491437803E+02 -0.83296170930E+03  0.88007413744E+03  0.26303810415E+03 0.  0.
         25    1    4    4    0    0  0.49155949089E+02  0.74923539310E+01 -0.39719041823E+03  0.41938070906E+03  0.12509000000E+03 0.  0.
         25    1    3    3    0    0 -0.60708314341E+02 -0.88491437803E+02 -0.58765945303E+03  0.61033382246E+03  0.12509000000E+03 0.  0.
         25    1    4    4    0    0  0.11552365252E+02  0.80999083872E+02 -0.43577129108E+03  0.46069342838E+03  0.12509000000E+03 0.  0.
<mgrwt>
<rscale>  2 0.45072320E+03</rscale>
<asrwt>0</asrwt>
<pdfrwt beam="1">  1       21 0.51313813E-02 0.45072320E+03</pdfrwt>
<pdfrwt beam="2">  1       21 0.21404630E+00 0.45072320E+03</pdfrwt>
<totfact> 0.24829862E+04</totfact>
</mgrwt>
</event>
<event>
 7    0  0.4750554E-002  0.4527691E+03  0.7546771E-02  0.1026899E+00
         21   -1    0    0  502  501  0.00000000000E+00  0.00000000000E+00  0.10683382472E+03  0.10683382472E+03  0.00000000000E+00 0. -1.
         21   -1    0    0  501  502 -0.00000000000E+00 -0.00000000000E+00 -0.47971662616E+03  0.47971662616E+03  0.00000000000E+00 0. -1.
      99926    2    1    2    0    0  0.00000000000E+00  0.35527136788E-14 -0.37288280144E+03  0.58655045088E+03  0.45276908885E+03 0.  0.
      99925    2    3    3    0    0 -0.10760915010E+03 -0.25099851975E+02 -0.24978195448E+03  0.37915937495E+03  0.26298493317E+03 0.  0.
         25    1    4    4    0    0 -0.73949817128E+02 -0.45794023166E+02 -0.15480683357E+03  0.21720573619E+03  0.12509000000E+03 0.  0.
         25    1    4    4    0    0 -0.33659332970E+02  0.20694171191E+02 -0.94975120906E+02  0.16195363876E+03  0.12509000000E+03 0.  0.
         25    1    3    3    0    0  0.10760915010E+03  0.25099851975E+02 -0.12310084696E+03  0.20739107593E+03  0.12509000000E+03 0.  0.
<mgrwt>
<rscale>  2 0.45276909E+03</rscale>
<asrwt>0</asrwt>
<pdfrwt beam="1">  1       21 0.15710857E-01 0.45276909E+03</pdfrwt>
<pdfrwt beam="2">  1       21 0.70546563E-01 0.45276909E+03</pdfrwt>
<totfact> 0.60574961E+04</totfact>
</mgrwt>
</event>
<event>
 7    0  0.4750554E-002  0.4480338E+03  0.7546771E-02  0.1028310E+00
         21   -1    0    0  502  501  0.00000000000E+00  0.00000000000E+00  0.14674538633E+04  0.14674538633E+04  0.00000000000E+00 0.  1.
         21   -1    0    0  501  502 -0.00000000000E+00 -0.00000000000E+00 -0.34197709801E+02  0.34197709801E+02  0.00000000000E+00 0.  1.
      99926    2    1    2    0    0  0.00000000000E+00  0.35527136788E-14  0.14332561535E+04  0.15016515731E+04  0.44803375482E+03 0.  0.
      99925    2    3    3    0    0  0.91864435830E+02 -0.17692461470E+02  0.73656437846E+03  0.78766345326E+03  0.26293446755E+03 0.  0.
         25    1    4    4    0    0  0.26181260006E+02 -0.43774638191E+02  0.37577597541E+03  0.39932038405E+03  0.12509000000E+03 0.  0.
         25    1    4    4    0    0  0.65683175824E+02  0.26082176721E+02  0.36078840305E+03  0.38834306921E+03  0.12509000000E+03 0.  0.
         25    1    3    3    0    0 -0.91864435830E+02  0.17692461470E+02  0.69669177506E+03  0.71398811986E+03  0.12509000000E+03 0.  0.
<mgrwt>
<rscale>  2 0.44803375E+03</rscale>
<asrwt>0</asrwt>
<pdfrwt beam="1">  1       21 0.21580200E+00 0.44803375E+03</pdfrwt>
<pdfrwt beam="2">  1       21 0.50290759E-02 0.44803375E+03</pdfrwt>
<totfact> 0.25067905E+04</totfact>
</mgrwt>
</event>
<event>
 7    0  0.4750554E-002  0.4650415E+03  0.7546771E-02  0.1023329E+00
         21   -1    0    0  502  501  0.00000000000E+00  0.00000000000E+00  0.41579677789E+03  0.41579677789E+03  0.00000000000E+00 0.  1.
         21   -1    0    0  501  502 -0.00000000000E+00 -0.00000000000E+00 -0.13002960614E+03  0.13002960614E+03  0.00000000000E+00 0.  1.
      99926    2    1    2    0    0  0.00000000000E+00  0.00000000000E+00  0.28576717175E+03  0.54582638404E+03  0.46504146596E+03 0.  0.
      99925    2    3    3    0    0  0.53439401082E+02  0.88237619825E+02  0.10124802277E+03  0.30019155023E+03  0.26310104061E+03 0.  0.
         25    1    4    4    0    0  0.68226938643E+02  0.45983739704E+02  0.51871009159E+02  0.15845355523E+03  0.12509000000E+03 0.  0.
         25    1    3    3    0    0 -0.53439401082E+02 -0.88237619825E+02  0.18451914898E+03  0.24563483381E+03  0.12509000000E+03 0.  0.
         25    1    4    4    0    0 -0.14787537562E+02  0.42253880120E+02  0.49377013610E+02  0.14173799500E+03  0.12509000000E+03 0.  0.
<mgrwt>
<rscale>  2 0.46504147E+03</rscale>
<asrwt>0</asrwt>
<pdfrwt beam="1">  1       21 0.61146584E-01 0.46504147E+03</pdfrwt>
<pdfrwt beam="2">  1       21 0.19122001E-01 0.46504147E+03</pdfrwt>
<totfact> 0.57439326E+04</totfact>
</mgrwt>
</event>
<event>
 7    0  0.4750554E-002  0.4550037E+03  0.7546771E-02  0.1026240E+00
         21   -1    0    0  502  501  0.00000000000E+00  0.00000000000E+00  0.49649291205E+02  0.49649291205E+02  0.00000000000E+00 0. -1.
         21   -1    0    0  501  502 -0.00000000000E+00 -0.00000000000E+00 -0.10424535772E+04  0.10424535772E+04  0.00000000000E+00 0. -1.
      99926    2    1    2    0    0  0.17763568394E-14  0.00000000000E+00 -0.99280428600E+03  0.10921028684E+04  0.45500365371E+03 0.  0.
      99925    2    3    3    0    0 -0.92610549678E+01  0.10944956673E+03 -0.55955488093E+03  0.62797192795E+03  0.26302490895E+03 0.  0.
         25    1    4    4    0    0  0.20730686572E+02  0.43435120658E+02 -0.33588935673E+03  0.36164283366E+03  0.12509000000E+03 0.  0.
         25    1    3    3    0    0  0.92610549678E+01 -0.10944956673E+03 -0.43324940507E+03  0.46413094046E+03  0.12509000000E+03 0.  0.
         25    1    4    4    0    0 -0.29991741540E+02  0.66014446073E+02 -0.22366552420E+03  0.26632909429E+03  0.12509000000E+03 0.  0.
<mgrwt>
<rscale>  2 0.45500365E+03</rscale>
<asrwt>0</asrwt>
<pdfrwt beam="1">  1       21 0.73013673E-02 0.45500365E+03</pdfrwt>
<pdfrwt beam="2">  1       21 0.15330198E+00 0.45500365E+03</pdfrwt>
<totfact> 0.35768288E+04</totfact>
</mgrwt>
</event>
<event>
 7    0  0.4750554E-002  0.4040407E+03  0.7546771E-02  0.1042389E+00
         21   -1    0    0  502  501  0.00000000000E+00  0.00000000000E+00  0.24439630522E+03  0.24439630522E+03  0.00000000000E+00 0. -1.
         21   -1    0    0  501  502 -0.00000000000E+00 -0.00000000000E+00 -0.16699193604E+03  0.16699193604E+03  0.00000000000E+00 0. -1.
      99926    2    1    2    0    0  0.00000000000E+00  0.00000000000E+00  0.77404369179E+02  0.41138824125E+03  0.40404065225E+03 0.  0.
      99925    2    3    3    0    0 -0.13761469099E+02  0.39605314322E+02  0.18718039082E+02  0.26699450041E+03  0.26301661413E+03 0.  0.
         25    1    3    3    0    0  0.13761469099E+02 -0.39605314322E+02  0.58686330097E+02  0.14439374084E+03  0.12509000000E+03 0.  0.
         25    1    4    4    0    0 -0.44325060519E+01 -0.12930603706E+02  0.33448641095E+02  0.13020432909E+03  0.12509000000E+03 0.  0.
         25    1    4    4    0    0 -0.93289630475E+01  0.52535918028E+02 -0.14730602013E+02  0.13679017132E+03  0.12509000000E+03 0.  0.
<mgrwt>
<rscale>  2 0.40404065E+03</rscale>
<asrwt>0</asrwt>
<pdfrwt beam="1">  1       21 0.35940633E-01 0.40404065E+03</pdfrwt>
<pdfrwt beam="2">  1       21 0.24557638E-01 0.40404065E+03</pdfrwt>
<totfact> 0.11033744E+05</totfact>
</mgrwt>
</event>
<event>
 7    0  0.4750554E-002  0.4615044E+03  0.7546771E-02  0.1024346E+00
         21   -1    0    0  502  501  0.00000000000E+00  0.00000000000E+00  0.89263762683E+02  0.89263762683E+02  0.00000000000E+00 0.  1.
         21   -1    0    0  501  502 -0.00000000000E+00 -0.00000000000E+00 -0.59650845260E+03  0.59650845260E+03  0.00000000000E+00 0.  1.
      99926    2    1    2    0    0  0.00000000000E+00  0.00000000000E+00 -0.50724468992E+03  0.68577221528E+03  0.46150444830E+03 0.  0.
      99925    2    3    3    0    0 -0.10500685338E+03 -0.56234586209E+02 -0.32702457634E+03  0.43614135705E+03  0.26284109622E+03 0.  0.
         25    1    3    3    0    0  0.10500685338E+03  0.56234586209E+02 -0.18022011358E+03  0.24963085823E+03  0.12509000000E+03 0.  0.
         25    1    4    4    0    0 -0.48925978768E+02 -0.12256894933E+02 -0.21465504566E+03  0.25351189242E+03  0.12509000000E+03 0.  0.
         25    1    4    4    0    0 -0.56080874608E+02 -0.43977691276E+02 -0.11236953068E+03  0.18262946463E+03  0.12509000000E+03 0.  0.
<mgrwt>
<rscale>  2 0.46150445E+03</rscale>
<asrwt>0</asrwt>
<pdfrwt beam="1">  1       21 0.13127024E-01 0.46150445E+03</pdfrwt>
<pdfrwt beam="2">  1       21 0.87721832E-01 0.46150445E+03</pdfrwt>
<totfact> 0.51018092E+04</totfact>
</mgrwt>
</event>
<event>
 7    0  0.4750554E-002  0.4488561E+03  0.7546771E-02  0.1028064E+00
         21   -1    0    0  502  501  0.00000000000E+00  0.00000000000E+00  0.53600906155E+03  0.53600906155E+03  0.00000000000E+00 0.  1.
         21   -1    0    0  501  502 -0.00000000000E+00 -0.00000000000E+00 -0.93968486157E+02  0.93968486157E+02  0.00000000000E+00 0.  1.
      99926    2    1    2    0    0  0.00000000000E+00  0.00000000000E+00  0.44204057539E+03  0.62997754771E+03  0.44885614658E+03 0.  0.
      99925    2    3    3    0    0 -0.10450095869E+03  0.34605937701E+01  0.31321200434E+03  0.42218742548E+03  0.26307420339E+03 0.  0.
         25    1    4    4    0    0 -0.21647392136E+02 -0.24062174871E+02  0.16418177438E+03  0.20892764533E+03  0.12509000000E+03 0.  0.
         25    1    3    3    0    0  0.10450095869E+03 -0.34605937701E+01  0.12882857105E+03  0.20779012223E+03  0.12509000000E+03 0.  0.
         25    1    4    4    0    0 -0.82853566557E+02  0.27522768641E+02  0.14903022997E+03  0.21325978015E+03  0.12509000000E+03 0.  0.
<mgrwt>
<rscale>  2 0.44885615E+03</rscale>
<asrwt>0</asrwt>
<pdfrwt beam="1">  1       21 0.78824861E-01 0.44885615E+03</pdfrwt>
<pdfrwt beam="2">  1       21 0.13818895E-01 0.44885615E+03</pdfrwt>
<totfact> 0.59713708E+04</totfact>
</mgrwt>
</event>
<event>
 7    0  0.4750554E-002  0.4597167E+03  0.7546771E-02  0.1024863E+00
         21   -1    0    0  502  501  0.00000000000E+00  0.00000000000E+00  0.17163808865E+03  0.17163808865E+03  0.00000000000E+00 0. -1.
         21   -1    0    0  501  502 -0.00000000000E+00 -0.00000000000E+00 -0.30782708689E+03  0.30782708689E+03  0.00000000000E+00 0. -1.
      99926    2    1    2    0    0 -0.88817841970E-15 -0.14210854715E-13 -0.13618899824E+03  0.47946517553E+03  0.45971666416E+03 0.  0.
      99925    2    3    3    0    0 -0.59883655818E+01  0.11202743456E+03 -0.47981338693E+02  0.28969134720E+03  0.26274105345E+03 0.  0.
         25    1    4    4    0    0  0.18538423528E+02  0.24005702353E+02 -0.44911622306E+01  0.12879295606E+03  0.12509000000E+03 0.  0.
         25    1    4    4    0    0 -0.24526789110E+02  0.88021732204E+02 -0.43490176462E+02  0.16089839114E+03  0.12509000000E+03 0.  0.
         25    1    3    3    0    0  0.59883655818E+01 -0.11202743456E+03 -0.88207659548E+02  0.18977382833E+03  0.12509000000E+03 0.  0.
<mgrwt>
<rscale>  2 0.45971666E+03</rscale>
<asrwt>0</asrwt>
<pdfrwt beam="1">  1       21 0.25240895E-01 0.45971666E+03</pdfrwt>
<pdfrwt beam="2">  1       21 0.45268689E-01 0.45971666E+03</pdfrwt>
<totfact> 0.64298219E+04</totfact>
</mgrwt>
</event>
<event>
 6    0  0.4750554E-002  0.4546377E+03  0.7546771E-02  0.1026348E+00
         21   -1    0    0  502  501  0.00000000000E+00  0.00000000000E+00  0.22433351943E+02  0.22433351943E+02  0.00000000000E+00 0. -1.
         21   -1    0    0  501  502 -0.00000000000E+00 -0.00000000000E+00 -0.23034392843E+04  0.23034392843E+04  0.00000000000E+00 0. -1.
      99926    2    1    2    0    0  0.00000000000E+00  0.00000000000E+00 -0.22810059324E+04  0.23258726363E+04  0.45463772014E+03 0.  0.
         25    1    3    3    0    0  0.36988849939E+02  0.27804210807E+02 -0.99709831734E+03  0.10059790314E+04  0.12509000000E+03 0.  0.
         25    1    3    3    0    0 -0.80155692141E+02 -0.69695597044E+02 -0.59960355097E+03  0.62165451633E+03  0.12509000000E+03 0.  0.
         25    1    3    3    0    0  0.43166842202E+02  0.41891386237E+02 -0.68430406407E+03  0.69823908850E+03  0.12509000000E+03 0.  0.
<mgrwt>
<rscale>  2 0.45463772E+03</rscale>
<asrwt>0</asrwt>
<pdfrwt beam="1">  1       21 0.32990234E-02 0.45463772E+03</pdfrwt>
<pdfrwt beam="2">  1       21 0.33874096E+00 0.45463772E+03</pdfrwt>
<totfact> 0.91074360E+03</totfact>
</mgrwt>
</event>
<event>
 7    0  0.4750554E-002  0.4249669E+03  0.7546771E-02  0.1035462E+00
         21   -1    0    0  502  501  0.00000000000E+00  0.00000000000E+00  0.34654308304E+03  0.34654308304E+03  0.00000000000E+00 0.  1.
         21   -1    0    0  501  502 -0.00000000000E+00 -0.00000000000E+00 -0.13028456207E+03  0.13028456207E+03  0.00000000000E+00 0.  1.
      99926    2    1    2    0    0  0.00000000000E+00  0.14210854715E-13  0.21625852097E+03  0.47682764511E+03  0.42496688723E+03 0.  0.
      99925    2    3    3    0    0 -0.47477412973E+02  0.64133503840E+02  0.16096392746E+03  0.31848557480E+03  0.26297616690E+03 0.  0.
         25    1    3    3    0    0  0.47477412973E+02 -0.64133503840E+02  0.55294593512E+02  0.15834207031E+03  0.12509000000E+03 0.  0.
         25    1    4    4    0    0 -0.12078885080E+02  0.58753240242E+01  0.41232046312E+02  0.13239338594E+03  0.12509000000E+03 0.  0.
         25    1    4    4    0    0 -0.35398527893E+02  0.58258179816E+02  0.11973188114E+03  0.18609218886E+03  0.12509000000E+03 0.  0.
<mgrwt>
<rscale>  2 0.42496689E+03</rscale>
<asrwt>0</asrwt>
<pdfrwt beam="1">  1       21 0.50962218E-01 0.42496689E+03</pdfrwt>
<pdfrwt beam="2">  1       21 0.19159494E-01 0.42496689E+03</pdfrwt>
<totfact> 0.85587549E+04</totfact>
</mgrwt>
</event>
<event>
 7    0  0.4750554E-002  0.4585560E+03  0.7546771E-02  0.1025201E+00
         21   -1    0    0  502  501  0.00000000000E+00  0.00000000000E+00  0.29183124356E+03  0.29183124356E+03  0.00000000000E+00 0. -1.
         21   -1    0    0  501  502 -0.00000000000E+00 -0.00000000000E+00 -0.18013289649E+03  0.18013289649E+03  0.00000000000E+00 0. -1.
      99926    2    1    2    0    0  0.00000000000E+00 -0.17763568394E-14  0.11169834707E+03  0.47196414005E+03  0.45855602576E+03 0.  0.
      99925    2    3    3    0    0 -0.11051195303E+03  0.40693367558E+01  0.10775840265E+03  0.30495371365E+03  0.26297422472E+03 0.  0.
         25    1    3    3    0    0  0.11051195303E+03 -0.40693367558E+01  0.39399444240E+01  0.16701042640E+03  0.12509000000E+03 0.  0.
         25    1    4    4    0    0 -0.28045442101E+02 -0.91527399912E+01  0.81732558308E+02  0.15230902357E+03  0.12509000000E+03 0.  0.
         25    1    4    4    0    0 -0.82466510930E+02  0.13222076747E+02  0.26025844338E+02  0.15264469009E+03  0.12509000000E+03 0.  0.
<mgrwt>
<rscale>  2 0.45855603E+03</rscale>
<asrwt>0</asrwt>
<pdfrwt beam="1">  1       21 0.42916360E-01 0.45855603E+03</pdfrwt>
<pdfrwt beam="2">  1       21 0.26490132E-01 0.45855603E+03</pdfrwt>
<totfact> 0.65424795E+04</totfact>
</mgrwt>
</event>
<event>
 7    0  0.4750554E-002  0.4852375E+03  0.7546771E-02  0.1017706E+00
         21   -1    0    0  502  501  0.00000000000E+00  0.00000000000E+00  0.62015670654E+03  0.62015670654E+03  0.00000000000E+00 0. -1.
         21   -1    0    0  501  502 -0.00000000000E+00 -0.00000000000E+00 -0.94917697604E+02  0.94917697604E+02  0.00000000000E+00 0. -1.
      99926    2    1    2    0    0  0.00000000000E+00  0.00000000000E+00  0.52523900894E+03  0.71507440415E+03  0.48523745420E+03 0.  0.
      99925    2    3    3    0    0 -0.60635384675E+02  0.22605117691E+02  0.50466400419E+03  0.57274211638E+03  0.26298314305E+03 0.  0.
         25    1    3    3    0    0  0.60635384675E+02 -0.22605117691E+02  0.20575004747E+02  0.14233228777E+03  0.12509000000E+03 0.  0.
         25    1    4    4    0    0 -0.58413882293E+02 -0.64888518818E+01  0.31131741599E+03  0.34061756919E+03  0.12509000000E+03 0.  0.
         25    1    4    4    0    0 -0.22215023825E+01  0.29093969573E+02  0.19334658820E+03  0.23212454719E+03  0.12509000000E+03 0.  0.
<mgrwt>
<rscale>  2 0.48523745E+03</rscale>
<asrwt>0</asrwt>
<pdfrwt beam="1">  1       21 0.91199514E-01 0.48523745E+03</pdfrwt>
<pdfrwt beam="2">  1       21 0.13958485E-01 0.48523745E+03</pdfrwt>
<totfact> 0.41338911E+04</totfact>
</mgrwt>
</event>
<event>
 7    0  0.4750554E-002  0.4535159E+03  0.7546771E-02  0.1026679E+00
         21   -1    0    0  502  501  0.00000000000E+00  0.00000000000E+00  0.12550829589E+03  0.12550829589E+03  0.00000000000E+00 0. -1.
         21   -1    0    0  501  502 -0.00000000000E+00 -0.00000000000E+00 -0.40968748969E+03  0.40968748969E+03  0.00000000000E+00 0. -1.
      99926    2    1    2    0    0  0.00000000000E+00  0.00000000000E+00 -0.28417919380E+03  0.53519578558E+03  0.45351594759E+03 0.  0.
      99925    2    3    3    0    0  0.22444633219E+02  0.94574480043E+02 -0.24417935212E+03  0.37180793637E+03  0.26300093481E+03 0.  0.
         25    1    3    3    0    0 -0.22444633219E+02 -0.94574480043E+02 -0.39999841678E+02  0.16338784921E+03  0.12509000000E+03 0.  0.
         25    1    4    4    0    0 -0.14892965199E+02  0.19090771592E+02 -0.13504627492E+03  0.18566438119E+03  0.12509000000E+03 0.  0.
         25    1    4    4    0    0  0.37337598419E+02  0.75483708451E+02 -0.10913307720E+03  0.18614355518E+03  0.12509000000E+03 0.  0.
<mgrwt>
<rscale>  2 0.45351595E+03</rscale>
<asrwt>0</asrwt>
<pdfrwt beam="1">  1       21 0.18457103E-01 0.45351595E+03</pdfrwt>
<pdfrwt beam="2">  1       21 0.60248159E-01 0.45351595E+03</pdfrwt>
<totfact> 0.63599271E+04</totfact>
</mgrwt>
</event>
<event>
 7    0  0.4750554E-002  0.4607889E+03  0.7546771E-02  0.1024553E+00
         21   -1    0    0  502  501  0.00000000000E+00  0.00000000000E+00  0.44961275680E+03  0.44961275680E+03  0.00000000000E+00 0.  1.
         21   -1    0    0  501  502 -0.00000000000E+00 -0.00000000000E+00 -0.11806071673E+03  0.11806071673E+03  0.00000000000E+00 0.  1.
      99926    2    1    2    0    0  0.00000000000E+00  0.00000000000E+00  0.33155204007E+03  0.56767347353E+03  0.46078890750E+03 0.  0.
      99925    2    3    3    0    0 -0.25673979931E+02 -0.10672786686E+03  0.26155791576E+03  0.38712797691E+03  0.26344930518E+03 0.  0.
         25    1    3    3    0    0  0.25673979931E+02  0.10672786686E+03  0.69994124312E+02  0.18054549662E+03  0.12509000000E+03 0.  0.
         25    1    4    4    0    0 -0.43447883967E+02 -0.48614539595E+02  0.94645642297E+02  0.16987170979E+03  0.12509000000E+03 0.  0.
         25    1    4    4    0    0  0.17773904036E+02 -0.58113327269E+02  0.16691227347E+03  0.21725626712E+03  0.12509000000E+03 0.  0.
<mgrwt>
<rscale>  2 0.46078891E+03</rscale>
<asrwt>0</asrwt>
<pdfrwt beam="1">  1       21 0.66119523E-01 0.46078891E+03</pdfrwt>
<pdfrwt beam="2">  1       21 0.17361870E-01 0.46078891E+03</pdfrwt>
<totfact> 0.58011707E+04</totfact>
</mgrwt>
</event>
<event>
 7    0  0.4750554E-002  0.4433033E+03  0.7546771E-02  0.1029738E+00
         21   -1    0    0  502  501  0.00000000000E+00  0.00000000000E+00  0.79402616971E+03  0.79402616971E+03  0.00000000000E+00 0.  1.
         21   -1    0    0  501  502 -0.00000000000E+00 -0.00000000000E+00 -0.61873848181E+02  0.61873848181E+02  0.00000000000E+00 0.  1.
      99926    2    1    2    0    0 -0.71054273576E-14 -0.17763568394E-14  0.73215232153E+03  0.85590001789E+03  0.44330330329E+03 0.  0.
      99925    2    3    3    0    0 -0.51975721904E+02  0.47469057389E+01  0.29716945704E+03  0.40028876992E+03  0.26305399511E+03 0.  0.
         25    1    4    4    0    0 -0.71128535620E+01  0.38381303464E+02  0.14097976335E+03  0.19247472280E+03  0.12509000000E+03 0.  0.
         25    1    3    3    0    0  0.51975721904E+02 -0.47469057389E+01  0.43498286449E+03  0.45561124797E+03  0.12509000000E+03 0.  0.
         25    1    4    4    0    0 -0.44862868342E+02 -0.33634397725E+02  0.15618969369E+03  0.20781404712E+03  0.12509000000E+03 0.  0.
<mgrwt>
<rscale>  2 0.44330330E+03</rscale>
<asrwt>0</asrwt>
<pdfrwt beam="1">  1       21 0.11676855E+00 0.44330330E+03</pdfrwt>
<pdfrwt beam="2">  1       21 0.90990958E-02 0.44330330E+03</pdfrwt>
<totfact> 0.49570330E+04</totfact>
</mgrwt>
</event>
<event>
 7    0  0.4750554E-002  0.4397374E+03  0.7546771E-02  0.1030827E+00
         21   -1    0    0  502  501  0.00000000000E+00  0.00000000000E+00  0.40032525227E+02  0.40032525227E+02  0.00000000000E+00 0.  1.
         21   -1    0    0  501  502 -0.00000000000E+00 -0.00000000000E+00 -0.12075740078E+04  0.12075740078E+04  0.00000000000E+00 0.  1.
      99926    2    1    2    0    0  0.71054273576E-14  0.00000000000E+00 -0.11675414826E+04  0.12476065330E+04  0.43973736221E+03 0.  0.
      99925    2    3    3    0    0 -0.62459628797E+02  0.11915100915E+02 -0.95727690384E+03  0.99481832913E+03  0.26313734531E+03 0.  0.
         25    1    4    4    0    0 -0.39436844457E+02 -0.18186319341E+02 -0.36460272231E+03  0.38790290038E+03  0.12509000000E+03 0.  0.
         25    1    3    3    0    0  0.62459628797E+02 -0.11915100915E+02 -0.21026457875E+03  0.25278820391E+03  0.12509000000E+03 0.  0.
         25    1    4    4    0    0 -0.23022784340E+02  0.30101420256E+02 -0.59267418153E+03  0.60691542875E+03  0.12509000000E+03 0.  0.
<mgrwt>
<rscale>  2 0.43973736E+03</rscale>
<asrwt>0</asrwt>
<pdfrwt beam="1">  1       21 0.58871368E-02 0.43973736E+03</pdfrwt>
<pdfrwt beam="2">  1       21 0.17758439E+00 0.43973736E+03</pdfrwt>
<totfact> 0.34606399E+04</totfact>
</mgrwt>
</event>
<event>
 7    0  0.4750554E-002  0.4626496E+03  0.7546771E-02  0.1024016E+00
         21   -1    0    0  502  501  0.00000000000E+00  0.00000000000E+00  0.96117845574E+03  0.96117845574E+03  0.00000000000E+00 0.  1.
         21   -1    0    0  501  502 -0.00000000000E+00 -0.00000000000E+00 -0.55672443179E+02  0.55672443179E+02  0.00000000000E+00 0.  1.
      99926    2    1    2    0    0  0.71054273576E-14  0.00000000000E+00  0.90550601256E+03  0.10168508989E+04  0.46264955620E+03 0.  0.
      99925    2    3    3    0    0 -0.53993385744E+02  0.81011762102E+02  0.41132602875E+03  0.49787155848E+03  0.26307564599E+03 0.  0.
         25    1    4    4    0    0 -0.16038938321E+02  0.89670198751E+01  0.23500967908E+03  0.26686084829E+03  0.12509000000E+03 0.  0.
         25    1    3    3    0    0  0.53993385744E+02 -0.81011762102E+02  0.49417998381E+03  0.51897934044E+03  0.12509000000E+03 0.  0.
         25    1    4    4    0    0 -0.37954447423E+02  0.72044742227E+02  0.17631634966E+03  0.23101071019E+03  0.12509000000E+03 0.  0.
<mgrwt>
<rscale>  2 0.46264956E+03</rscale>
<asrwt>0</asrwt>
<pdfrwt beam="1">  1       21 0.14134976E+00 0.46264956E+03</pdfrwt>
<pdfrwt beam="2">  1       21 0.81871246E-02 0.46264956E+03</pdfrwt>
<totfact> 0.36300526E+04</totfact>
</mgrwt>
</event>
<event>
 7    0  0.4750554E-002  0.4527115E+03  0.7546771E-02  0.1026917E+00
         21   -1    0    0  502  501  0.00000000000E+00  0.00000000000E+00  0.35163055673E+03  0.35163055673E+03  0.00000000000E+00 0.  1.
         21   -1    0    0  501  502 -0.00000000000E+00 -0.00000000000E+00 -0.14571236189E+03  0.14571236189E+03  0.00000000000E+00 0.  1.
      99926    2    1    2    0    0 -0.71054273576E-14  0.00000000000E+00  0.20591819484E+03  0.49734291862E+03  0.45271147073E+03 0.  0.
      99925    2    3    3    0    0 -0.62374942807E+02  0.81542643585E+02  0.83563534897E+02  0.29446855572E+03  0.26303807658E+03 0.  0.
         25    1    4    4    0    0 -0.50337531499E+02  0.57671025534E+01  0.50060452369E+02  0.14394680803E+03  0.12509000000E+03 0.  0.
         25    1    4    4    0    0 -0.12037411308E+02  0.75775541032E+02  0.33503082529E+02  0.15052174769E+03  0.12509000000E+03 0.  0.
         25    1    3    3    0    0  0.62374942807E+02 -0.81542643585E+02  0.12235465994E+03  0.20287436290E+03  0.12509000000E+03 0.  0.
<mgrwt>
<rscale>  2 0.45271147E+03</rscale>
<asrwt>0</asrwt>
<pdfrwt beam="1">  1       21 0.51710376E-01 0.45271147E+03</pdfrwt>
<pdfrwt beam="2">  1       21 0.21428289E-01 0.45271147E+03</pdfrwt>
<totfact> 0.66660537E+04</totfact>
</mgrwt>
</event>
<event>
 7    0  0.4750554E-002  0.4557064E+03  0.7546771E-02  0.1026034E+00
         21   -1    0    0  502  501  0.00000000000E+00  0.00000000000E+00  0.10005667145E+03  0.10005667145E+03  0.00000000000E+00 0.  1.
         21   -1    0    0  501  502 -0.00000000000E+00 -0.00000000000E+00 -0.51887673756E+03  0.51887673756E+03  0.00000000000E+00 0.  1.
      99926    2    1    2    0    0  0.71054273576E-14  0.00000000000E+00 -0.41882006611E+03  0.61893340902E+03  0.45570639344E+03 0.  0.
      99925    2    3    3    0    0 -0.43813850223E+02 -0.89573387102E+02 -0.18816721423E+03  0.33823554418E+03  0.26278001766E+03 0.  0.
         25    1    4    4    0    0 -0.51034726687E+02 -0.35032248472E+02 -0.12629167070E+03  0.18822565168E+03  0.12509000000E+03 0.  0.
         25    1    4    4    0    0  0.72208764640E+01 -0.54541138630E+02 -0.61875543536E+02  0.15000989250E+03  0.12509000000E+03 0.  0.
         25    1    3    3    0    0  0.43813850223E+02  0.89573387102E+02 -0.23065285188E+03  0.28069786484E+03  0.12509000000E+03 0.  0.
<mgrwt>
<rscale>  2 0.45570639E+03</rscale>
<asrwt>0</asrwt>
<pdfrwt beam="1">  1       21 0.14714216E-01 0.45570639E+03</pdfrwt>
<pdfrwt beam="2">  1       21 0.76305402E-01 0.45570639E+03</pdfrwt>
<totfact> 0.57207956E+04</totfact>
</mgrwt>
</event>
<event>
 7    0  0.4750554E-002  0.4676942E+03  0.7546771E-02  0.1022573E+00
         21   -1    0    0  502  501  0.00000000000E+00  0.00000000000E+00  0.28184989916E+04  0.28184989916E+04  0.00000000000E+00 0. -1.
         21   -1    0    0  501  502 -0.00000000000E+00 -0.00000000000E+00 -0.19401979737E+02  0.19401979737E+02  0.00000000000E+00 0. -1.
      99926    2    1    2    0    0  0.00000000000E+00  0.00000000000E+00  0.27990970119E+04  0.28379009713E+04  0.46769417496E+03 0.  0.
      99925    2    3    3    0    0 -0.44436424433E+02  0.69866857025E+02  0.23077750379E+04  0.23241882464E+04  0.26300077144E+03 0.  0.
         25    1    4    4    0    0 -0.45953183588E+02  0.67875344829E+02  0.11544435175E+04  0.11640902459E+04  0.12509000000E+03 0.  0.
         25    1    4    4    0    0  0.15167591550E+01  0.19915121952E+01  0.11533315204E+04  0.11600980005E+04  0.12509000000E+03 0.  0.
         25    1    3    3    0    0  0.44436424433E+02 -0.69866857025E+02  0.49132197395E+03  0.51371272488E+03  0.12509000000E+03 0.  0.
<mgrwt>
<rscale>  2 0.46769417E+03</rscale>
<asrwt>0</asrwt>
<pdfrwt beam="1">  1       21 0.41448486E+00 0.46769417E+03</pdfrwt>
<pdfrwt beam="2">  1       21 0.28532343E-02 0.46769417E+03</pdfrwt>
<totfact> 0.38603591E+03</totfact>
</mgrwt>
</event>
<event>
 7    0  0.4750554E-002  0.4511246E+03  0.7546771E-02  0.1027387E+00
         21   -1    0    0  502  501  0.00000000000E+00  0.00000000000E+00  0.20858304448E+03  0.20858304448E+03  0.00000000000E+00 0. -1.
         21   -1    0    0  501  502 -0.00000000000E+00 -0.00000000000E+00 -0.24392369513E+03  0.24392369513E+03  0.00000000000E+00 0. -1.
      99926    2    1    2    0    0  0.00000000000E+00  0.00000000000E+00 -0.35340650654E+02  0.45250673961E+03  0.45112458125E+03 0.  0.
      99925    2    3    3    0    0 -0.10290018379E+03  0.24569536010E+02  0.60868748958E+01  0.28352195362E+03  0.26297440601E+03 0.  0.
         25    1    4    4    0    0 -0.87774127512E+02  0.35410893082E+02 -0.86043361172E+00  0.15686451879E+03  0.12509000000E+03 0.  0.
         25    1    3    3    0    0  0.10290018379E+03 -0.24569536010E+02 -0.41427525550E+02  0.16898478599E+03  0.12509000000E+03 0.  0.
         25    1    4    4    0    0 -0.15126056276E+02 -0.10841357073E+02  0.69473085076E+01  0.12665743483E+03  0.12509000000E+03 0.  0.
<mgrwt>
<rscale>  2 0.45112458E+03</rscale>
<asrwt>0</asrwt>
<pdfrwt beam="1">  1       21 0.30673977E-01 0.45112458E+03</pdfrwt>
<pdfrwt beam="2">  1       21 0.35871131E-01 0.45112458E+03</pdfrwt>
<totfact> 0.70895795E+04</totfact>
</mgrwt>
</event>
<event>
 7    0  0.4750554E-002  0.4550995E+03  0.7546771E-02  0.1026212E+00
         21   -1    0    0  502  501  0.00000000000E+00  0.00000000000E+00  0.37972272738E+03  0.37972272738E+03  0.00000000000E+00 0.  1.
         21   -1    0    0  501  502 -0.00000000000E+00 -0.00000000000E+00 -0.13635974913E+03  0.13635974913E+03  0.00000000000E+00 0.  1.
      99926    2    1    2    0    0  0.00000000000E+00  0.00000000000E+00  0.24336297826E+03  0.51608247651E+03  0.45509953128E+03 0.  0.
      99925    2    3    3    0    0 -0.64985887074E+02 -0.82888307394E+02  0.20031753501E+03  0.34698470803E+03  0.26301641726E+03 0.  0.
         25    1    3    3    0    0  0.64985887074E+02  0.82888307394E+02  0.43045443243E+02  0.16909776848E+03  0.12509000000E+03 0.  0.
         25    1    4    4    0    0 -0.52971462337E+02 -0.66199481691E+02  0.14230215972E+03  0.20757109616E+03  0.12509000000E+03 0.  0.
         25    1    4    4    0    0 -0.12014424737E+02 -0.16688825703E+02  0.58015375294E+02  0.13941361187E+03  0.12509000000E+03 0.  0.
<mgrwt>
<rscale>  2 0.45509953E+03</rscale>
<asrwt>0</asrwt>
<pdfrwt beam="1">  1       21 0.55841577E-01 0.45509953E+03</pdfrwt>
<pdfrwt beam="2">  1       21 0.20052904E-01 0.45509953E+03</pdfrwt>
<totfact> 0.64104320E+04</totfact>
</mgrwt>
</event>
<event>
 7    0  0.4750554E-002  0.4749269E+03  0.7546771E-02  0.1020539E+00
         21   -1    0    0  502  501  0.00000000000E+00  0.00000000000E+00  0.20446237151E+03  0.20446237151E+03  0.00000000000E+00 0.  1.
         21   -1    0    0  501  502 -0.00000000000E+00 -0.00000000000E+00 -0.27579103140E+03  0.27579103140E+03  0.00000000000E+00 0.  1.
      99926    2    1    2    0    0 -0.14210854715E-13 -0.14210854715E-13 -0.71328659890E+02  0.48025340292E+03  0.47492689258E+03 0.  0.
      99925    2    3    3    0    0  0.72883368806E+02  0.98416926810E+02  0.26144693440E+01  0.29021927074E+03  0.26310171555E+03 0.  0.
         25    1    3    3    0    0 -0.72883368806E+02 -0.98416926810E+02 -0.73943129234E+02  0.19003413218E+03  0.12509000000E+03 0.  0.
         25    1    4    4    0    0  0.75248000716E+02  0.57998931558E+02 -0.13970083412E+02  0.15769847496E+03  0.12509000000E+03 0.  0.
         25    1    4    4    0    0 -0.23646319099E+01  0.40417995252E+02  0.16584552756E+02  0.13252079578E+03  0.12509000000E+03 0.  0.
<mgrwt>
<rscale>  2 0.47492689E+03</rscale>
<asrwt>0</asrwt>
<pdfrwt beam="1">  1       21 0.30067996E-01 0.47492689E+03</pdfrwt>
<pdfrwt beam="2">  1       21 0.40557504E-01 0.47492689E+03</pdfrwt>
<totfact> 0.57097691E+04</totfact>
</mgrwt>
</event>
<event>
 7    0  0.4750554E-002  0.4569307E+03  0.7546771E-02  0.1025675E+00
         21   -1    0    0  502  501  0.00000000000E+00  0.00000000000E+00  0.43470914761E+03  0.43470914761E+03  0.00000000000E+00 0. -1.
         21   -1    0    0  501  502 -0.00000000000E+00 -0.00000000000E+00 -0.12007203809E+03  0.12007203809E+03  0.00000000000E+00 0. -1.
      99926    2    1    2    0    0  0.00000000000E+00  0.00000000000E+00  0.31463710953E+03  0.55478118570E+03  0.45693068765E+03 0.  0.
      99925    2    3    3    0    0 -0.62008952753E+02 -0.20993811033E+02  0.82898687570E+02  0.28342154494E+03  0.26300138671E+03 0.  0.
         25    1    3    3    0    0  0.62008952753E+02  0.20993811033E+02  0.23173842196E+03  0.27135964076E+03  0.12509000000E+03 0.  0.
         25    1    4    4    0    0  0.31010900890E+01 -0.72958931431E+01  0.14769382399E+02  0.12620812008E+03  0.12509000000E+03 0.  0.
         25    1    4    4    0    0 -0.65110042842E+02 -0.13697917890E+02  0.68129305171E+02  0.15721342486E+03  0.12509000000E+03 0.  0.
<mgrwt>
<rscale>  2 0.45693069E+03</rscale>
<asrwt>0</asrwt>
<pdfrwt beam="1">  1       21 0.63927815E-01 0.45693069E+03</pdfrwt>
<pdfrwt beam="2">  1       21 0.17657653E-01 0.45693069E+03</pdfrwt>
<totfact> 0.60620456E+04</totfact>
</mgrwt>
</event>
<event>
 7    0  0.4750554E-002  0.4549993E+03  0.7546771E-02  0.1026242E+00
         21   -1    0    0  502  501  0.00000000000E+00  0.00000000000E+00  0.58522235364E+03  0.58522235364E+03  0.00000000000E+00 0.  1.
         21   -1    0    0  501  502 -0.00000000000E+00 -0.00000000000E+00 -0.88438338191E+02  0.88438338191E+02  0.00000000000E+00 0.  1.
      99926    2    1    2    0    0  0.00000000000E+00  0.00000000000E+00  0.49678401544E+03  0.67366069183E+03  0.45499930738E+03 0.  0.
      99925    2    3    3    0    0  0.41327878605E+02 -0.80038752943E+02  0.41420924307E+03  0.49878846231E+03  0.26288103311E+03 0.  0.
         25    1    3    3    0    0 -0.41327878605E+02  0.80038752943E+02  0.82574772378E+02  0.17487222952E+03  0.12509000000E+03 0.  0.
         25    1    4    4    0    0  0.49835083478E+02 -0.69800057458E+02  0.21267753351E+03  0.26121796440E+03  0.12509000000E+03 0.  0.
         25    1    4    4    0    0 -0.85072048730E+01 -0.10238695485E+02  0.20153170956E+03  0.23757049791E+03  0.12509000000E+03 0.  0.
<mgrwt>
<rscale>  2 0.45499931E+03</rscale>
<asrwt>0</asrwt>
<pdfrwt beam="1">  1       21 0.86062109E-01 0.45499931E+03</pdfrwt>
<pdfrwt beam="2">  1       21 0.13005638E-01 0.45499931E+03</pdfrwt>
<totfact> 0.54357081E+04</totfact>
</mgrwt>
</event>
<event>
 7    0  0.4750554E-002  0.4755023E+03  0.7546771E-02  0.1020379E+00
         21   -1    0    0  502  501  0.00000000000E+00  0.00000000000E+00  0.90501821259E+03  0.90501821259E+03  0.00000000000E+00 0.  1.
         21   -1    0    0  501  502 -0.00000000000E+00 -0.00000000000E+00 -0.62457983113E+02  0.62457983113E+02  0.00000000000E+00 0.  1.
      99926    2    1    2    0    0 -0.14210854715E-13  0.00000000000E+00  0.84256022948E+03  0.96747619571E+03  0.47550231225E+03 0.  0.
      99925    2    3    3    0    0 -0.12199546737E+03  0.24685315850E+02  0.43475709208E+03  0.52313042285E+03  0.26298184600E+03 0.  0.
         25    1    3    3    0    0  0.12199546737E+03 -0.24685315850E+02  0.40780313740E+03  0.44434577285E+03  0.12509000000E+03 0.  0.
         25    1    4    4    0    0 -0.18531193875E+02  0.23397036550E+02  0.19421489964E+03  0.23293295561E+03  0.12509000000E+03 0.  0.
         25    1    4    4    0    0 -0.10346427349E+03  0.12882793005E+01  0.24054219243E+03  0.29019746724E+03  0.12509000000E+03 0.  0.
<mgrwt>
<rscale>  2 0.47550231E+03</rscale>
<asrwt>0</asrwt>
<pdfrwt beam="1">  1       21 0.13309091E+00 0.47550231E+03</pdfrwt>
<pdfrwt beam="2">  1       21 0.91849980E-02 0.47550231E+03</pdfrwt>
<totfact> 0.34558368E+04</totfact>
</mgrwt>
</event>
<event>
 7    0  0.4750554E-002  0.4421268E+03  0.7546771E-02  0.1030096E+00
         21   -1    0    0  502  501  0.00000000000E+00  0.00000000000E+00  0.47641507234E+03  0.47641507234E+03  0.00000000000E+00 0.  1.
         21   -1    0    0  501  502 -0.00000000000E+00 -0.00000000000E+00 -0.10257657054E+03  0.10257657054E+03  0.00000000000E+00 0.  1.
      99926    2    1    2    0    0  0.00000000000E+00  0.71054273576E-14  0.37383850180E+03  0.57899164287E+03  0.44212678848E+03 0.  0.
      99925    2    3    3    0    0 -0.77833869937E+02 -0.63569452219E+02  0.24312292306E+03  0.37202967248E+03  0.26305538375E+03 0.  0.
         25    1    4    4    0    0 -0.11363610599E+01 -0.19629130712E+02  0.89254779829E+02  0.15492100539E+03  0.12509000000E+03 0.  0.
         25    1    4    4    0    0 -0.76697508877E+02 -0.43940321507E+02  0.15386814323E+03  0.21710866709E+03  0.12509000000E+03 0.  0.
         25    1    3    3    0    0  0.77833869937E+02  0.63569452219E+02  0.13071557874E+03  0.20696197040E+03  0.12509000000E+03 0.  0.
<mgrwt>
<rscale>  2 0.44212679E+03</rscale>
<asrwt>0</asrwt>
<pdfrwt beam="1">  1       21 0.70061039E-01 0.44212679E+03</pdfrwt>
<pdfrwt beam="2">  1       21 0.15084790E-01 0.44212679E+03</pdfrwt>
<totfact> 0.66504549E+04</totfact>
</mgrwt>
</event>
<event>
 7    0  0.4750554E-002  0.4590244E+03  0.7546771E-02  0.1025065E+00
         21   -1    0    0  502  501  0.00000000000E+00  0.00000000000E+00  0.64827932687E+02  0.64827932687E+02  0.00000000000E+00 0. -1.
         21   -1    0    0  501  502 -0.00000000000E+00 -0.00000000000E+00 -0.81254855282E+03  0.81254855282E+03  0.00000000000E+00 0. -1.
      99926    2    1    2    0    0  0.00000000000E+00  0.00000000000E+00 -0.74772062013E+03  0.87737648551E+03  0.45902436923E+03 0.  0.
      99925    2    3    3    0    0  0.90219974736E+02  0.21159114705E+02 -0.33223676370E+03  0.43368549503E+03  0.26289634738E+03 0.  0.
         25    1    4    4    0    0  0.40992861580E+02  0.14125869015E+02 -0.22713661390E+03  0.26290398314E+03  0.12509000000E+03 0.  0.
         25    1    4    4    0    0  0.49227113156E+02  0.70332456897E+01 -0.10510014979E+03  0.17078151188E+03  0.12509000000E+03 0.  0.
         25    1    3    3    0    0 -0.90219974736E+02 -0.21159114705E+02 -0.41548385644E+03  0.44369099048E+03  0.12509000000E+03 0.  0.
<mgrwt>
<rscale>  2 0.45902437E+03</rscale>
<asrwt>0</asrwt>
<pdfrwt beam="1">  1       21 0.95335197E-02 0.45902437E+03</pdfrwt>
<pdfrwt beam="2">  1       21 0.11949243E+00 0.45902437E+03</pdfrwt>
<totfact> 0.42859359E+04</totfact>
</mgrwt>
</event>
<event>
 7    0  0.4750554E-002  0.4526437E+03  0.7546771E-02  0.1026937E+00
         21   -1    0    0  502  501  0.00000000000E+00  0.00000000000E+00  0.62396601588E+03  0.62396601588E+03  0.00000000000E+00 0. -1.
         21   -1    0    0  501  502 -0.00000000000E+00 -0.00000000000E+00 -0.82090319543E+02  0.82090319543E+02  0.00000000000E+00 0. -1.
      99926    2    1    2    0    0  0.14210854715E-13  0.00000000000E+00  0.54187569634E+03  0.70605633542E+03  0.45264365511E+03 0.  0.
      99925    2    3    3    0    0  0.78827368093E+02 -0.72431956745E+02  0.38711326062E+03  0.48009381214E+03  0.26300807895E+03 0.  0.
         25    1    4    4    0    0  0.73004575517E+02 -0.34556022262E+02  0.24689554251E+03  0.28832048788E+03  0.12509000000E+03 0.  0.
         25    1    4    4    0    0  0.58227925755E+01 -0.37875934483E+02  0.14021771811E+03  0.19177332426E+03  0.12509000000E+03 0.  0.
         25    1    3    3    0    0 -0.78827368093E+02  0.72431956745E+02  0.15476243572E+03  0.22596252328E+03  0.12509000000E+03 0.  0.
<mgrwt>
<rscale>  2 0.45264366E+03</rscale>
<asrwt>0</asrwt>
<pdfrwt beam="1">  1       21 0.91759706E-01 0.45264366E+03</pdfrwt>
<pdfrwt beam="2">  1       21 0.12072106E-01 0.45264366E+03</pdfrwt>
<totfact> 0.53561558E+04</totfact>
</mgrwt>
</event>
<event>
 7    0  0.4750554E-002  0.4558741E+03  0.7546771E-02  0.1025985E+00
         21   -1    0    0  502  501  0.00000000000E+00  0.00000000000E+00  0.62016957068E+02  0.62016957068E+02  0.00000000000E+00 0. -1.
         21   -1    0    0  501  502 -0.00000000000E+00 -0.00000000000E+00 -0.83775955580E+03  0.83775955580E+03  0.00000000000E+00 0. -1.
      99926    2    1    2    0    0  0.17763568394E-14 -0.14210854715E-13 -0.77574259873E+03  0.89977651287E+03  0.45587409843E+03 0.  0.
      99925    2    3    3    0    0  0.13509989085E+02  0.10872311721E+03 -0.54963001336E+03  0.61910295625E+03  0.26304388005E+03 0.  0.
         25    1    4    4    0    0 -0.26193778029E+02  0.68988046908E+02 -0.24093771591E+03  0.28132535554E+03  0.12509000000E+03 0.  0.
         25    1    3    3    0    0 -0.13509989085E+02 -0.10872311721E+03 -0.22611258537E+03  0.28067355662E+03  0.12509000000E+03 0.  0.
         25    1    4    4    0    0  0.39703767115E+02  0.39735070300E+02 -0.30869229745E+03  0.33777760070E+03  0.12509000000E+03 0.  0.
<mgrwt>
<rscale>  2 0.45587410E+03</rscale>
<asrwt>0</asrwt>
<pdfrwt beam="1">  1       21 0.91201407E-02 0.45587410E+03</pdfrwt>
<pdfrwt beam="2">  1       21 0.12319994E+00 0.45587410E+03</pdfrwt>
<totfact> 0.42948664E+04</totfact>
</mgrwt>
</event>
<event>
 7    0  0.4750554E-002  0.4620773E+03  0.7546771E-02  0.1024180E+00
         21   -1    0    0  502  501  0.00000000000E+00  0.00000000000E+00  0.25068549012E+04  0.25068549012E+04  0.00000000000E+00 0. -1.
         21   -1    0    0  501  502 -0.00000000000E+00 -0.00000000000E+00 -0.21293160783E+02  0.21293160783E+02  0.00000000000E+00 0. -1.
      99926    2    1    2    0    0  0.00000000000E+00 -0.35527136788E-14  0.24855617405E+04  0.25281480620E+04  0.46207732891E+03 0.  0.
      99925    2    3    3    0    0  0.68324226177E+02 -0.25973816281E+02  0.20727499854E+04  0.20906507567E+04  0.26303088258E+03 0.  0.
         25    1    3    3    0    0 -0.68324226177E+02  0.25973816281E+02  0.41281175502E+03  0.43749730536E+03  0.12509000000E+03 0.  0.
         25    1    4    4    0    0  0.18908478662E+02 -0.73801462386E+00  0.12736931099E+04  0.12799608281E+04  0.12509000000E+03 0.  0.
         25    1    4    4    0    0  0.49415747516E+02 -0.25235801657E+02  0.79905687554E+03  0.81068992854E+03  0.12509000000E+03 0.  0.
<mgrwt>
<rscale>  2 0.46207733E+03</rscale>
<asrwt>0</asrwt>
<pdfrwt beam="1">  1       21 0.36865493E+00 0.46207733E+03</pdfrwt>
<pdfrwt beam="2">  1       21 0.31313489E-02 0.46207733E+03</pdfrwt>
<totfact> 0.64838857E+03</totfact>
</mgrwt>
</event>
<event>
 6    0  0.4750554E-002  0.4542985E+03  0.7546771E-02  0.1026448E+00
         21   -1    0    0  502  501  0.00000000000E+00  0.00000000000E+00  0.35132408942E+02  0.35132408942E+02  0.00000000000E+00 0. -1.
         21   -1    0    0  501  502 -0.00000000000E+00 -0.00000000000E+00 -0.14686375972E+04  0.14686375972E+04  0.00000000000E+00 0. -1.
      99926    2    1    2    0    0  0.13322676296E-14  0.00000000000E+00 -0.14335051883E+04  0.15037700062E+04  0.45429847745E+03 0.  0.
         25    1    3    3    0    0  0.37931475115E+02  0.82237160598E+01 -0.24588147133E+03  0.27858864362E+03  0.12509000000E+03 0.  0.
         25    1    3    3    0    0 -0.38637506283E+02 -0.28338956325E+02 -0.29982751369E+03  0.32839001112E+03  0.12509000000E+03 0.  0.
         25    1    3    3    0    0  0.70603116732E+00  0.20115240265E+02 -0.88779620327E+03  0.89679135144E+03  0.12509000000E+03 0.  0.
<mgrwt>
<rscale>  2 0.45429848E+03</rscale>
<asrwt>0</asrwt>
<pdfrwt beam="1">  1       21 0.51665301E-02 0.45429848E+03</pdfrwt>
<pdfrwt beam="2">  1       21 0.21597614E+00 0.45429848E+03</pdfrwt>
<totfact> 0.23816376E+04</totfact>
</mgrwt>
</event>
<event>
 7    0  0.4750554E-002  0.4516732E+03  0.7546771E-02  0.1027224E+00
         21   -1    0    0  502  501  0.00000000000E+00  0.00000000000E+00  0.24227575056E+02  0.24227575056E+02  0.00000000000E+00 0.  1.
         21   -1    0    0  501  502 -0.00000000000E+00 -0.00000000000E+00 -0.21051286762E+04  0.21051286762E+04  0.00000000000E+00 0.  1.
      99926    2    1    2    0    0  0.00000000000E+00  0.00000000000E+00 -0.20809011011E+04  0.21293562512E+04  0.45167316947E+03 0.  0.
      99925    2    3    3    0    0 -0.79048564229E+02  0.35271974445E+02 -0.16337399638E+04  0.16570286334E+04  0.26295405507E+03 0.  0.
         25    1    4    4    0    0 -0.31275219547E+02  0.24899982863E+02 -0.10417883150E+04  0.10500326423E+04  0.12509000000E+03 0.  0.
         25    1    3    3    0    0  0.79048564229E+02 -0.35271974445E+02 -0.44716113735E+03  0.47232761781E+03  0.12509000000E+03 0.  0.
         25    1    4    4    0    0 -0.47773344682E+02  0.10371991582E+02 -0.59195164878E+03  0.60699599115E+03  0.12509000000E+03 0.  0.
<mgrwt>
<rscale>  2 0.45167317E+03</rscale>
<asrwt>0</asrwt>
<pdfrwt beam="1">  1       21 0.35628797E-02 0.45167317E+03</pdfrwt>
<pdfrwt beam="2">  1       21 0.30957766E+00 0.45167317E+03</pdfrwt>
<totfact> 0.12017981E+04</totfact>
</mgrwt>
</event>
<event>
 7    0  0.4750554E-002  0.4579748E+03  0.7546771E-02  0.1025370E+00
         21   -1    0    0  502  501  0.00000000000E+00  0.00000000000E+00  0.29442497316E+02  0.29442497316E+02  0.00000000000E+00 0. -1.
         21   -1    0    0  501  502 -0.00000000000E+00 -0.00000000000E+00 -0.17809367822E+04  0.17809367822E+04  0.00000000000E+00 0. -1.
      99926    2    1    2    0    0 -0.71054273576E-14  0.14210854715E-13 -0.17514942849E+04  0.18103792796E+04  0.45797478721E+03 0.  0.
      99925    2    3    3    0    0 -0.36790322777E+02  0.82269064714E+02 -0.13872667569E+04  0.14148657815E+04  0.26308629394E+03 0.  0.
         25    1    4    4    0    0 -0.38549410787E+02  0.69852573000E+01 -0.59655024372E+03  0.61078191875E+03  0.12509000000E+03 0.  0.
         25    1    4    4    0    0  0.17590880101E+01  0.75283807414E+02 -0.79071651317E+03  0.80408386276E+03  0.12509000000E+03 0.  0.
         25    1    3    3    0    0  0.36790322777E+02 -0.82269064714E+02 -0.36422752804E+03  0.39551349806E+03  0.12509000000E+03 0.  0.
<mgrwt>
<rscale>  2 0.45797479E+03</rscale>
<asrwt>0</asrwt>
<pdfrwt beam="1">  1       21 0.43297789E-02 0.45797479E+03</pdfrwt>
<pdfrwt beam="2">  1       21 0.26190247E+00 0.45797479E+03</pdfrwt>
<totfact> 0.16672493E+04</totfact>
</mgrwt>
</event>
<event>
 7    0  0.4750554E-002  0.4541081E+03  0.7546771E-02  0.1026504E+00
         21   -1    0    0  502  501  0.00000000000E+00  0.00000000000E+00  0.20718336303E+03  0.20718336303E+03  0.00000000000E+00 0. -1.
         21   -1    0    0  501  502 -0.00000000000E+00 -0.00000000000E+00 -0.24883048503E+03  0.24883048503E+03  0.00000000000E+00 0. -1.
      99926    2    1    2    0    0 -0.14210854715E-13  0.00000000000E+00 -0.41647122004E+02  0.45601384806E+03  0.45410807838E+03 0.  0.
      99925    2    3    3    0    0  0.96769152559E+02  0.42382959405E+02  0.11744944921E+02  0.28379652883E+03  0.26313863629E+03 0.  0.
         25    1    3    3    0    0 -0.96769152559E+02 -0.42382959405E+02 -0.53392066925E+02  0.17221731924E+03  0.12509000000E+03 0.  0.
         25    1    4    4    0    0  0.87599519297E+02  0.64217794193E+01  0.68158971190E+00  0.15284923191E+03  0.12509000000E+03 0.  0.
         25    1    4    4    0    0  0.91696332622E+01  0.35961179986E+02  0.11063355209E+02  0.13094729691E+03  0.12509000000E+03 0.  0.
<mgrwt>
<rscale>  2 0.45410808E+03</rscale>
<asrwt>0</asrwt>
<pdfrwt beam="1">  1       21 0.30468142E-01 0.45410808E+03</pdfrwt>
<pdfrwt beam="2">  1       21 0.36592718E-01 0.45410808E+03</pdfrwt>
<totfact> 0.68961040E+04</totfact>
</mgrwt>
</event>
<event>
 7    0  0.4750554E-002  0.4308829E+03  0.7546771E-02  0.1033581E+00
         21   -1    0    0  502  501  0.00000000000E+00  0.00000000000E+00  0.42386264176E+02  0.42386264176E+02  0.00000000000E+00 0.  1.
         21   -1    0    0  501  502 -0.00000000000E+00 -0.00000000000E+00 -0.10950486591E+04  0.10950486591E+04  0.00000000000E+00 0.  1.
      99926    2    1    2    0    0  0.35527136788E-14  0.00000000000E+00 -0.10526623949E+04  0.11374349232E+04  0.43088291565E+03 0.  0.
      99925    2    3    3    0    0  0.30611153460E+02  0.86595252876E+01 -0.89672692804E+03  0.93501109061E+03  0.26289641686E+03 0.  0.
         25    1    4    4    0    0  0.27268850888E+02  0.36800658228E+02 -0.38261065251E+03  0.40513738187E+03  0.12509000000E+03 0.  0.
         25    1    3    3    0    0 -0.30611153460E+02 -0.86595252876E+01 -0.15593546684E+03  0.20242383262E+03  0.12509000000E+03 0.  0.
         25    1    4    4    0    0  0.33423025725E+01 -0.28141132941E+02 -0.51411627554E+03  0.52987370875E+03  0.12509000000E+03 0.  0.
<mgrwt>
<rscale>  2 0.43088292E+03</rscale>
<asrwt>0</asrwt>
<pdfrwt beam="1">  1       21 0.62332742E-02 0.43088292E+03</pdfrwt>
<pdfrwt beam="2">  1       21 0.16103657E+00 0.43088292E+03</pdfrwt>
<totfact> 0.41468780E+04</totfact>
</mgrwt>
</event>
<event>
 7    0  0.4750554E-002  0.4554893E+03  0.7546771E-02  0.1026098E+00
         21   -1    0    0  502  501  0.00000000000E+00  0.00000000000E+00  0.13594018415E+03  0.13594018415E+03  0.00000000000E+00 0.  1.
         21   -1    0    0  501  502 -0.00000000000E+00 -0.00000000000E+00 -0.38154745505E+03  0.38154745505E+03  0.00000000000E+00 0.  1.
      99926    2    1    2    0    0  0.00000000000E+00  0.14210854715E-13 -0.24560727090E+03  0.51748763920E+03  0.45548932501E+03 0.  0.
      99925    2    3    3    0    0  0.31657635444E+02  0.10630297985E+03 -0.18216829851E+03  0.33867337599E+03  0.26308142698E+03 0.  0.
         25    1    4    4    0    0  0.25862569259E+02  0.44663592460E+02 -0.44036303885E+02  0.14230394633E+03  0.12509000000E+03 0.  0.
         25    1    4    4    0    0  0.57950661847E+01  0.61639387388E+02 -0.13813199462E+03  0.19636942967E+03  0.12509000000E+03 0.  0.
         25    1    3    3    0    0 -0.31657635444E+02 -0.10630297985E+03 -0.63438972394E+02  0.17881426320E+03  0.12509000000E+03 0.  0.
<mgrwt>
<rscale>  2 0.45548933E+03</rscale>
<asrwt>0</asrwt>
<pdfrwt beam="1">  1       21 0.19991204E-01 0.45548933E+03</pdfrwt>
<pdfrwt beam="2">  1       21 0.56109918E-01 0.45548933E+03</pdfrwt>
<totfact> 0.63810658E+04</totfact>
</mgrwt>
</event>
<event>
 7    0  0.4750554E-002  0.4539937E+03  0.7546771E-02  0.1026538E+00
         21   -1    0    0  502  501  0.00000000000E+00  0.00000000000E+00  0.13475720029E+03  0.13475720029E+03  0.00000000000E+00 0.  1.
         21   -1    0    0  501  502 -0.00000000000E+00 -0.00000000000E+00 -0.38237335851E+03  0.38237335851E+03  0.00000000000E+00 0.  1.
      99926    2    1    2    0    0  0.14210854715E-13  0.00000000000E+00 -0.24761615822E+03  0.51713055880E+03  0.45399367070E+03 0.  0.
      99925    2    3    3    0    0  0.83446741275E+02 -0.66280024115E+02 -0.11573989500E+03  0.30642873839E+03  0.26295712234E+03 0.  0.
         25    1    4    4    0    0  0.78246177443E+02 -0.24756007067E+02 -0.42374949993E+02  0.15549427210E+03  0.12509000000E+03 0.  0.
         25    1    4    4    0    0  0.52005638323E+01 -0.41524017049E+02 -0.73364945010E+02  0.15093446628E+03  0.12509000000E+03 0.  0.
         25    1    3    3    0    0 -0.83446741275E+02  0.66280024115E+02 -0.13187626322E+03  0.21070182042E+03  0.12509000000E+03 0.  0.
<mgrwt>
<rscale>  2 0.45399367E+03</rscale>
<asrwt>0</asrwt>
<pdfrwt beam="1">  1       21 0.19817236E-01 0.45399367E+03</pdfrwt>
<pdfrwt beam="2">  1       21 0.56231375E-01 0.45399367E+03</pdfrwt>
<totfact> 0.64597439E+04</totfact>
</mgrwt>
</event>
<event>
 7    0  0.4750554E-002  0.4584876E+03  0.7546771E-02  0.1025221E+00
         21   -1    0    0  502  501  0.00000000000E+00  0.00000000000E+00  0.79097492168E+03  0.79097492168E+03  0.00000000000E+00 0. -1.
         21   -1    0    0  501  502 -0.00000000000E+00 -0.00000000000E+00 -0.66440442405E+02  0.66440442405E+02  0.00000000000E+00 0. -1.
      99926    2    1    2    0    0  0.00000000000E+00  0.00000000000E+00  0.72453447927E+03  0.85741536408E+03  0.45848761696E+03 0.  0.
      99925    2    3    3    0    0 -0.55391917845E+02  0.27550249546E+02  0.63885441010E+03  0.69365986596E+03  0.26306229590E+03 0.  0.
         25    1    4    4    0    0  0.44440514139E+01  0.17549371224E+02  0.23961429590E+03  0.27090634715E+03  0.12509000000E+03 0.  0.
         25    1    4    4    0    0 -0.59835969259E+02  0.10000878322E+02  0.39924011420E+03  0.42275351881E+03  0.12509000000E+03 0.  0.
         25    1    3    3    0    0  0.55391917845E+02 -0.27550249546E+02  0.85680069177E+02  0.16375549813E+03  0.12509000000E+03 0.  0.
<mgrwt>
<rscale>  2 0.45848762E+03</rscale>
<asrwt>0</asrwt>
<pdfrwt beam="1">  1       21 0.11631984E+00 0.45848762E+03</pdfrwt>
<pdfrwt beam="2">  1       21 0.97706538E-02 0.45848762E+03</pdfrwt>
<totfact> 0.43896222E+04</totfact>
</mgrwt>
</event>
<event>
 7    0  0.4750554E-002  0.4629092E+03  0.7546771E-02  0.1023941E+00
         21   -1    0    0  502  501  0.00000000000E+00  0.00000000000E+00  0.23447888684E+04  0.23447888684E+04  0.00000000000E+00 0.  1.
         21   -1    0    0  501  502 -0.00000000000E+00 -0.00000000000E+00 -0.22846927291E+02  0.22846927291E+02  0.00000000000E+00 0.  1.
      99926    2    1    2    0    0 -0.14210854715E-13 -0.88817841970E-15  0.23219419411E+04  0.23676357957E+04  0.46290915216E+03 0.  0.
      99925    2    3    3    0    0 -0.12022032098E+03 -0.49848878935E+01  0.14214135040E+04  0.14505334302E+04  0.26296978540E+03 0.  0.
         25    1    4    4    0    0 -0.91013257868E+02 -0.11391280304E+02  0.63491697871E+03  0.65359027864E+03  0.12509000000E+03 0.  0.
         25    1    4    4    0    0 -0.29207063108E+02  0.64063924102E+01  0.78649652527E+03  0.79694315152E+03  0.12509000000E+03 0.  0.
         25    1    3    3    0    0  0.12022032098E+03  0.49848878935E+01  0.90052843715E+03  0.91710236555E+03  0.12509000000E+03 0.  0.
<mgrwt>
<rscale>  2 0.46290915E+03</rscale>
<asrwt>0</asrwt>
<pdfrwt beam="1">  1       21 0.34482173E+00 0.46290915E+03</pdfrwt>
<pdfrwt beam="2">  1       21 0.33598439E-02 0.46290915E+03</pdfrwt>
<totfact> 0.80748423E+03</totfact>
</mgrwt>
</event>
<event>
 7    0  0.4750554E-002  0.4546452E+03  0.7546771E-02  0.1026346E+00
         21   -1    0    0  502  501  0.00000000000E+00  0.00000000000E+00  0.54343243299E+02  0.54343243299E+02  0.00000000000E+00 0.  1.
         21   -1    0    0  501  502 -0.00000000000E+00 -0.00000000000E+00 -0.95091069718E+03  0.95091069718E+03  0.00000000000E+00 0.  1.
      99926    2    1    2    0    0 -0.17763568394E-14 -0.17763568394E-14 -0.89656745388E+03  0.10052539405E+04  0.45464523036E+03 0.  0.
      99925    2    3    3    0    0  0.11595981929E+02 -0.84477048270E+01 -0.31683247335E+03  0.41200358332E+03  0.26297966839E+03 0.  0.
         25    1    4    4    0    0  0.29439564934E+02  0.19363257967E+02 -0.12285068753E+03  0.17883350712E+03  0.12509000000E+03 0.  0.
         25    1    4    4    0    0 -0.17843583006E+02 -0.27810962794E+02 -0.19398178582E+03  0.23317007620E+03  0.12509000000E+03 0.  0.
         25    1    3    3    0    0 -0.11595981929E+02  0.84477048270E+01 -0.57973498053E+03  0.59325035715E+03  0.12509000000E+03 0.  0.
<mgrwt>
<rscale>  2 0.45464523E+03</rscale>
<asrwt>0</asrwt>
<pdfrwt beam="1">  1       21 0.79916540E-02 0.45464523E+03</pdfrwt>
<pdfrwt beam="2">  1       21 0.13983980E+00 0.45464523E+03</pdfrwt>
<totfact> 0.39071194E+04</totfact>
</mgrwt>
</event>
<event>
 7    0  0.4750554E-002  0.4559816E+03  0.7546771E-02  0.1025953E+00
         21   -1    0    0  502  501  0.00000000000E+00  0.00000000000E+00  0.42048195981E+03  0.42048195981E+03  0.00000000000E+00 0.  1.
         21   -1    0    0  501  502 -0.00000000000E+00 -0.00000000000E+00 -0.12361960696E+03  0.12361960696E+03  0.00000000000E+00 0.  1.
      99926    2    1    2    0    0  0.00000000000E+00  0.00000000000E+00  0.29686235285E+03  0.54410156678E+03  0.45598164265E+03 0.  0.
      99925    2    3    3    0    0 -0.65955118344E+02 -0.50315562317E+02  0.27998847534E+03  0.39305862822E+03  0.26309657057E+03 0.  0.
         25    1    4    4    0    0 -0.67191335323E+02 -0.46032185215E+02  0.13227357454E+03  0.19944283452E+03  0.12509000000E+03 0.  0.
         25    1    3    3    0    0  0.65955118344E+02  0.50315562317E+02  0.16873877510E+02  0.15104293856E+03  0.12509000000E+03 0.  0.
         25    1    4    4    0    0  0.12362169789E+01 -0.42833771024E+01  0.14771490080E+03  0.19361579370E+03  0.12509000000E+03 0.  0.
<mgrwt>
<rscale>  2 0.45598164E+03</rscale>
<asrwt>0</asrwt>
<pdfrwt beam="1">  1       21 0.61835582E-01 0.45598164E+03</pdfrwt>
<pdfrwt beam="2">  1       21 0.18179354E-01 0.45598164E+03</pdfrwt>
<totfact> 0.61776704E+04</totfact>
</mgrwt>
</event>
<event>
 7    0  0.4750554E-002  0.4567180E+03  0.7546771E-02  0.1025737E+00
         21   -1    0    0  502  501  0.00000000000E+00  0.00000000000E+00  0.52567815961E+03  0.52567815961E+03  0.00000000000E+00 0.  1.
         21   -1    0    0  501  502 -0.00000000000E+00 -0.00000000000E+00 -0.99201082471E+02  0.99201082471E+02  0.00000000000E+00 0.  1.
      99926    2    1    2    0    0  0.00000000000E+00  0.14210854715E-13  0.42647707714E+03  0.62487924208E+03  0.45671804197E+03 0.  0.
      99925    2    3    3    0    0 -0.84340352801E+02  0.66429804100E+02  0.21220670555E+03  0.35453591550E+03  0.26294070723E+03 0.  0.
         25    1    4    4    0    0 -0.12831009908E+02  0.31296197834E+02  0.13578921636E+03  0.18769737930E+03  0.12509000000E+03 0.  0.
         25    1    3    3    0    0  0.84340352801E+02 -0.66429804100E+02  0.21427037159E+03  0.27034332658E+03  0.12509000000E+03 0.  0.
         25    1    4    4    0    0 -0.71509342893E+02  0.35133606266E+02  0.76417489182E+02  0.16683853621E+03  0.12509000000E+03 0.  0.
<mgrwt>
<rscale>  2 0.45671804E+03</rscale>
<asrwt>0</asrwt>
<pdfrwt beam="1">  1       21 0.77305611E-01 0.45671804E+03</pdfrwt>
<pdfrwt beam="2">  1       21 0.14588395E-01 0.45671804E+03</pdfrwt>
<totfact> 0.56403437E+04</totfact>
</mgrwt>
</event>
<event>
 7    0  0.4750554E-002  0.4552279E+03  0.7546771E-02  0.1026174E+00
         21   -1    0    0  502  501  0.00000000000E+00  0.00000000000E+00  0.11698707704E+04  0.11698707704E+04  0.00000000000E+00 0. -1.
         21   -1    0    0  501  502 -0.00000000000E+00 -0.00000000000E+00 -0.44285329352E+02  0.44285329352E+02  0.00000000000E+00 0. -1.
      99926    2    1    2    0    0  0.14210854715E-13  0.00000000000E+00  0.11255854410E+04  0.12141560997E+04  0.45522790936E+03 0.  0.
      99925    2    3    3    0    0 -0.10342289589E+03 -0.46035362289E+02  0.69382704928E+03  0.75060635384E+03  0.26305583843E+03 0.  0.
         25    1    3    3    0    0  0.10342289589E+03  0.46035362289E+02  0.43175839176E+03  0.46354974590E+03  0.12509000000E+03 0.  0.
         25    1    4    4    0    0 -0.16998388371E+02  0.40413927829E+01  0.30645285341E+03  0.33146061233E+03  0.12509000000E+03 0.  0.
         25    1    4    4    0    0 -0.86424507517E+02 -0.50076755072E+02  0.38737419587E+03  0.41914574150E+03  0.12509000000E+03 0.  0.
<mgrwt>
<rscale>  2 0.45522791E+03</rscale>
<asrwt>0</asrwt>
<pdfrwt beam="1">  1       21 0.17203980E+00 0.45522791E+03</pdfrwt>
<pdfrwt beam="2">  1       21 0.65125492E-02 0.45522791E+03</pdfrwt>
<totfact> 0.31654246E+04</totfact>
</mgrwt>
</event>
<event>
 7    0  0.4750554E-002  0.4395433E+03  0.7546771E-02  0.1030887E+00
         21   -1    0    0  502  501  0.00000000000E+00  0.00000000000E+00  0.48826435980E+03  0.48826435980E+03  0.00000000000E+00 0. -1.
         21   -1    0    0  501  502 -0.00000000000E+00 -0.00000000000E+00 -0.98920975467E+02  0.98920975467E+02  0.00000000000E+00 0. -1.
      99926    2    1    2    0    0  0.88817841970E-15  0.00000000000E+00  0.38934338433E+03  0.58718533527E+03  0.43954333919E+03 0.  0.
      99925    2    3    3    0    0  0.15735563947E+01 -0.49525934708E+02  0.36150270328E+03  0.44978844334E+03  0.26300217680E+03 0.  0.
         25    1    3    3    0    0 -0.15735563947E+01  0.49525934708E+02  0.27840681055E+02  0.13739689192E+03  0.12509000000E+03 0.  0.
         25    1    4    4    0    0 -0.14802598322E+02 -0.59006412738E+02  0.21672037434E+03  0.25751913019E+03  0.12509000000E+03 0.  0.
         25    1    4    4    0    0  0.16376154717E+02  0.94804780300E+01  0.14478232894E+03  0.19226931315E+03  0.12509000000E+03 0.  0.
<mgrwt>
<rscale>  2 0.43954334E+03</rscale>
<asrwt>0</asrwt>
<pdfrwt beam="1">  1       21 0.71803582E-01 0.43954334E+03</pdfrwt>
<pdfrwt beam="2">  1       21 0.14547202E-01 0.43954334E+03</pdfrwt>
<totfact> 0.67330069E+04</totfact>
</mgrwt>
</event>
<event>
 7    0  0.4750554E-002  0.3891700E+03  0.7546771E-02  0.1047596E+00
         21   -1    0    0  502  501  0.00000000000E+00  0.00000000000E+00  0.25692202503E+03  0.25692202503E+03  0.00000000000E+00 0.  1.
         21   -1    0    0  501  502 -0.00000000000E+00 -0.00000000000E+00 -0.14737280342E+03  0.14737280342E+03  0.00000000000E+00 0.  1.
      99926    2    1    2    0    0  0.00000000000E+00  0.88817841970E-15  0.10954922161E+03  0.40429482844E+03  0.38916998387E+03 0.  0.
      99925    2    3    3    0    0 -0.10077978036E+02  0.65488099213E+01  0.85085945049E+02  0.27626978186E+03  0.26256603316E+03 0.  0.
         25    1    4    4    0    0 -0.26301954764E+01 -0.18537361085E+02  0.73724345562E+01  0.12669811591E+03  0.12509000000E+03 0.  0.
         25    1    3    3    0    0  0.10077978036E+02 -0.65488099213E+01  0.24463276560E+02  0.12802504658E+03  0.12509000000E+03 0.  0.
         25    1    4    4    0    0 -0.74477825597E+01  0.25086171006E+02  0.77713510493E+02  0.14957166595E+03  0.12509000000E+03 0.  0.
<mgrwt>
<rscale>  2 0.38916998E+03</rscale>
<asrwt>0</asrwt>
<pdfrwt beam="1">  1       21 0.37782651E-01 0.38916998E+03</pdfrwt>
<pdfrwt beam="2">  1       21 0.21672471E-01 0.38916998E+03</pdfrwt>
<totfact> 0.12717452E+05</totfact>
</mgrwt>
</event>
<event>
 7    0  0.4750554E-002  0.4551710E+03  0.7546771E-02  0.1026191E+00
         21   -1    0    0  502  501  0.00000000000E+00  0.00000000000E+00  0.44816901462E+03  0.44816901462E+03  0.00000000000E+00 0.  1.
         21   -1    0    0  501  502 -0.00000000000E+00 -0.00000000000E+00 -0.11557060910E+03  0.11557060910E+03  0.00000000000E+00 0.  1.
      99926    2    1    2    0    0  0.14210854715E-13  0.88817841970E-15  0.33259840551E+03  0.56373962372E+03  0.45517102720E+03 0.  0.
      99925    2    3    3    0    0  0.98480927634E+02  0.61849130080E+01  0.27838427208E+03  0.39544397131E+03  0.26294749523E+03 0.  0.
         25    1    4    4    0    0  0.10673572543E+02 -0.96979055021E+01  0.14426301701E+03  0.19148707711E+03  0.12509000000E+03 0.  0.
         25    1    4    4    0    0  0.87807355091E+02  0.15882818510E+02  0.13412125507E+03  0.20395689420E+03  0.12509000000E+03 0.  0.
         25    1    3    3    0    0 -0.98480927634E+02 -0.61849130080E+01  0.54214133434E+02  0.16829565241E+03  0.12509000000E+03 0.  0.
<mgrwt>
<rscale>  2 0.45517103E+03</rscale>
<asrwt>0</asrwt>
<pdfrwt beam="1">  1       21 0.65907207E-01 0.45517103E+03</pdfrwt>
<pdfrwt beam="2">  1       21 0.16995678E-01 0.45517103E+03</pdfrwt>
<totfact> 0.60885215E+04</totfact>
</mgrwt>
</event>
<event>
 7    0  0.4750554E-002  0.4593420E+03  0.7546771E-02  0.1024972E+00
         21   -1    0    0  502  501  0.00000000000E+00  0.00000000000E+00  0.68850341436E+03  0.68850341436E+03  0.00000000000E+00 0. -1.
         21   -1    0    0  501  502 -0.00000000000E+00 -0.00000000000E+00 -0.76613669466E+02  0.76613669466E+02  0.00000000000E+00 0. -1.
      99926    2    1    2    0    0  0.14210854715E-13  0.14210854715E-13  0.61188974489E+03  0.76511708382E+03  0.45934202078E+03 0.  0.
      99925    2    3    3    0    0 -0.65625309489E+02 -0.96762301190E+02  0.39738317558E+03  0.49065360619E+03  0.26297898938E+03 0.  0.
         25    1    4    4    0    0 -0.64038331214E+01 -0.46032469124E+02  0.24280456290E+03  0.27705876842E+03  0.12509000000E+03 0.  0.
         25    1    4    4    0    0 -0.59221476368E+02 -0.50729832067E+02  0.15457861269E+03  0.21359483778E+03  0.12509000000E+03 0.  0.
         25    1    3    3    0    0  0.65625309489E+02  0.96762301190E+02  0.21450656931E+03  0.27446347763E+03  0.12509000000E+03 0.  0.
<mgrwt>
<rscale>  2 0.45934202E+03</rscale>
<asrwt>0</asrwt>
<pdfrwt beam="1">  1       21 0.10125050E+00 0.45934202E+03</pdfrwt>
<pdfrwt beam="2">  1       21 0.11266716E-01 0.45934202E+03</pdfrwt>
<totfact> 0.47846208E+04</totfact>
</mgrwt>
</event>
<event>
 7    0  0.4750554E-002  0.4613026E+03  0.7546771E-02  0.1024404E+00
         21   -1    0    0  502  501  0.00000000000E+00  0.00000000000E+00  0.28149470807E+03  0.28149470807E+03  0.00000000000E+00 0. -1.
         21   -1    0    0  501  502 -0.00000000000E+00 -0.00000000000E+00 -0.18899117470E+03  0.18899117470E+03  0.00000000000E+00 0. -1.
      99926    2    1    2    0    0  0.00000000000E+00  0.35527136788E-14  0.92503533363E+02  0.47048588277E+03  0.46130257121E+03 0.  0.
      99925    2    3    3    0    0 -0.10136811257E+03  0.28190055589E+02  0.11455571654E+03  0.30554959094E+03  0.26299689513E+03 0.  0.
         25    1    4    4    0    0 -0.37454128137E+02  0.51774474390E+02  0.64547510136E+02  0.15458750621E+03  0.12509000000E+03 0.  0.
         25    1    4    4    0    0 -0.63913984435E+02 -0.23584418801E+02  0.50008206403E+02  0.15096208472E+03  0.12509000000E+03 0.  0.
         25    1    3    3    0    0  0.10136811257E+03 -0.28190055589E+02 -0.22052183176E+02  0.16493629183E+03  0.12509000000E+03 0.  0.
<mgrwt>
<rscale>  2 0.46130257E+03</rscale>
<asrwt>0</asrwt>
<pdfrwt beam="1">  1       21 0.41396281E-01 0.46130257E+03</pdfrwt>
<pdfrwt beam="2">  1       21 0.27792820E-01 0.46130257E+03</pdfrwt>
<totfact> 0.64131229E+04</totfact>
</mgrwt>
</event>
<event>
 7    0  0.4750554E-002  0.4549615E+03  0.7546771E-02  0.1026253E+00
         21   -1    0    0  502  501  0.00000000000E+00  0.00000000000E+00  0.84605540090E+02  0.84605540090E+02  0.00000000000E+00 0.  1.
         21   -1    0    0  501  502 -0.00000000000E+00 -0.00000000000E+00 -0.61163242880E+03  0.61163242880E+03  0.00000000000E+00 0.  1.
      99926    2    1    2    0    0  0.44408920985E-15  0.35527136788E-14 -0.52702688871E+03  0.69623796889E+03  0.45496150156E+03 0.  0.
      99925    2    3    3    0    0 -0.24619961436E+01 -0.25765280592E+02 -0.16308671010E+03  0.31053099097E+03  0.26298728150E+03 0.  0.
         25    1    4    4    0    0  0.83020020424E-01  0.13611446353E+02 -0.43795998957E+02  0.13323241343E+03  0.12509000000E+03 0.  0.
         25    1    4    4    0    0 -0.25450161640E+01 -0.39376726944E+02 -0.11929071114E+03  0.17729857754E+03  0.12509000000E+03 0.  0.
         25    1    3    3    0    0  0.24619961436E+01  0.25765280592E+02 -0.36394017862E+03  0.38570697792E+03  0.12509000000E+03 0.  0.
<mgrwt>
<rscale>  2 0.45496150E+03</rscale>
<asrwt>0</asrwt>
<pdfrwt beam="1">  1       21 0.12441991E-01 0.45496150E+03</pdfrwt>
<pdfrwt beam="2">  1       21 0.89945948E-01 0.45496150E+03</pdfrwt>
<totfact> 0.53123801E+04</totfact>
</mgrwt>
</event>
<event>
 7    0  0.4750554E-002  0.4572629E+03  0.7546771E-02  0.1025578E+00
         21   -1    0    0  502  501  0.00000000000E+00  0.00000000000E+00  0.49902050672E+03  0.49902050672E+03  0.00000000000E+00 0.  1.
         21   -1    0    0  501  502 -0.00000000000E+00 -0.00000000000E+00 -0.10474990456E+03  0.10474990456E+03  0.00000000000E+00 0.  1.
      99926    2    1    2    0    0  0.00000000000E+00  0.00000000000E+00  0.39427060217E+03  0.60377041128E+03  0.45726294602E+03 0.  0.
      99925    2    3    3    0    0 -0.38046029295E+02  0.83224122942E+02  0.15510856881E+03  0.31877963724E+03  0.26303618386E+03 0.  0.
         25    1    4    4    0    0 -0.62174863000E+01  0.61271557947E+02  0.11809099941E+03  0.18271796078E+03  0.12509000000E+03 0.  0.
         25    1    4    4    0    0 -0.31828542995E+02  0.21952564995E+02  0.37017569399E+02  0.13606167647E+03  0.12509000000E+03 0.  0.
         25    1    3    3    0    0  0.38046029295E+02 -0.83224122942E+02  0.23916203336E+03  0.28499077404E+03  0.12509000000E+03 0.  0.
<mgrwt>
<rscale>  2 0.45726295E+03</rscale>
<asrwt>0</asrwt>
<pdfrwt beam="1">  1       21 0.73385368E-01 0.45726295E+03</pdfrwt>
<pdfrwt beam="2">  1       21 0.15404398E-01 0.45726295E+03</pdfrwt>
<totfact> 0.57413425E+04</totfact>
</mgrwt>
</event>
<event>
 7    0  0.4750554E-002  0.4543841E+03  0.7546771E-02  0.1026423E+00
         21   -1    0    0  502  501  0.00000000000E+00  0.00000000000E+00  0.33269757705E+03  0.33269757705E+03  0.00000000000E+00 0. -1.
         21   -1    0    0  501  502 -0.00000000000E+00 -0.00000000000E+00 -0.15514456105E+03  0.15514456105E+03  0.00000000000E+00 0. -1.
      99926    2    1    2    0    0  0.00000000000E+00  0.00000000000E+00  0.17755301600E+03  0.48784213810E+03  0.45438406466E+03 0.  0.
      99925    2    3    3    0    0  0.40376807603E+02  0.72551676914E+02  0.19326251618E+03  0.33688410118E+03  0.26314723075E+03 0.  0.
         25    1    3    3    0    0 -0.40376807603E+02 -0.72551676914E+02 -0.15709500185E+02  0.15095803692E+03  0.12509000000E+03 0.  0.
         25    1    4    4    0    0  0.46572781641E+02  0.55133368957E+01  0.10134474714E+03  0.16768329299E+03  0.12509000000E+03 0.  0.
         25    1    4    4    0    0 -0.61959740374E+01  0.67038340018E+02  0.91917769042E+02  0.16920080819E+03  0.12509000000E+03 0.  0.
<mgrwt>
<rscale>  2 0.45438406E+03</rscale>
<asrwt>0</asrwt>
<pdfrwt beam="1">  1       21 0.48926114E-01 0.45438406E+03</pdfrwt>
<pdfrwt beam="2">  1       21 0.22815377E-01 0.45438406E+03</pdfrwt>
<totfact> 0.66457894E+04</totfact>
</mgrwt>
</event>
<event>
 7    0  0.4750554E-002  0.4546168E+03  0.7546771E-02  0.1026354E+00
         21   -1    0    0  502  501  0.00000000000E+00  0.00000000000E+00  0.17047742017E+03  0.17047742017E+03  0.00000000000E+00 0.  1.
         21   -1    0    0  501  502 -0.00000000000E+00 -0.00000000000E+00 -0.30308481045E+03  0.30308481045E+03  0.00000000000E+00 0.  1.
      99926    2    1    2    0    0  0.00000000000E+00  0.00000000000E+00 -0.13260739028E+03  0.47356223062E+03  0.45461683461E+03 0.  0.
      99925    2    3    3    0    0  0.61355859453E+02 -0.85006914251E+02 -0.12689595576E+03  0.31025011979E+03  0.26298638041E+03 0.  0.
         25    1    4    4    0    0  0.20456977810E+02 -0.58224297741E+02 -0.10404623456E+03  0.17401633203E+03  0.12509000000E+03 0.  0.
         25    1    3    3    0    0 -0.61355859453E+02  0.85006914251E+02 -0.57114345261E+01  0.16331211083E+03  0.12509000000E+03 0.  0.
         25    1    4    4    0    0  0.40898881643E+02 -0.26782616510E+02 -0.22849721202E+02  0.13623378775E+03  0.12509000000E+03 0.  0.
<mgrwt>
<rscale>  2 0.45461683E+03</rscale>
<asrwt>0</asrwt>
<pdfrwt beam="1">  1       21 0.25070209E-01 0.45461683E+03</pdfrwt>
<pdfrwt beam="2">  1       21 0.44571295E-01 0.45461683E+03</pdfrwt>
<totfact> 0.67376442E+04</totfact>
</mgrwt>
</event>
<event>
 7    0  0.4750554E-002  0.4536096E+03  0.7546771E-02  0.1026651E+00
         21   -1    0    0  502  501  0.00000000000E+00  0.00000000000E+00  0.67780307624E+03  0.67780307624E+03  0.00000000000E+00 0.  1.
         21   -1    0    0  501  502 -0.00000000000E+00 -0.00000000000E+00 -0.75892864298E+02  0.75892864298E+02  0.00000000000E+00 0.  1.
      99926    2    1    2    0    0  0.00000000000E+00  0.00000000000E+00  0.60191021194E+03  0.75369594054E+03  0.45360959816E+03 0.  0.
      99925    2    3    3    0    0  0.61865964814E+02 -0.60161929001E+02  0.26109176033E+03  0.38053165988E+03  0.26303722465E+03 0.  0.
         25    1    4    4    0    0  0.23150955836E+02 -0.34598205114E+02  0.75378573439E+02  0.15186322790E+03  0.12509000000E+03 0.  0.
         25    1    3    3    0    0 -0.61865964814E+02  0.60161929001E+02  0.34081845161E+03  0.37316428066E+03  0.12509000000E+03 0.  0.
         25    1    4    4    0    0  0.38715008978E+02 -0.25563723887E+02  0.18571318689E+03  0.22866843198E+03  0.12509000000E+03 0.  0.
<mgrwt>
<rscale>  2 0.45360960E+03</rscale>
<asrwt>0</asrwt>
<pdfrwt beam="1">  1       21 0.99676920E-01 0.45360960E+03</pdfrwt>
<pdfrwt beam="2">  1       21 0.11160716E-01 0.45360960E+03</pdfrwt>
<totfact> 0.50633709E+04</totfact>
</mgrwt>
</event>
<event>
 7    0  0.4750554E-002  0.4729068E+03  0.7546771E-02  0.1021103E+00
         21   -1    0    0  502  501  0.00000000000E+00  0.00000000000E+00  0.79368066403E+03  0.79368066403E+03  0.00000000000E+00 0.  1.
         21   -1    0    0  501  502 -0.00000000000E+00 -0.00000000000E+00 -0.70444218803E+02  0.70444218803E+02  0.00000000000E+00 0.  1.
      99926    2    1    2    0    0 -0.14210854715E-13 -0.71054273576E-14  0.72323644522E+03  0.86412488283E+03  0.47290681685E+03 0.  0.
      99925    2    3    3    0    0  0.80945073369E+02  0.58882275435E+02  0.29894554937E+03  0.41059484009E+03  0.26305979160E+03 0.  0.
         25    1    3    3    0    0 -0.80945073369E+02 -0.58882275435E+02  0.42429089586E+03  0.45353004274E+03  0.12509000000E+03 0.  0.
         25    1    4    4    0    0  0.40383862438E+02 -0.47983399988E+01  0.17548297728E+03  0.21930723615E+03  0.12509000000E+03 0.  0.
         25    1    4    4    0    0  0.40561210931E+02  0.63680615434E+02  0.12346257209E+03  0.19128760394E+03  0.12509000000E+03 0.  0.
<mgrwt>
<rscale>  2 0.47290682E+03</rscale>
<asrwt>0</asrwt>
<pdfrwt beam="1">  1       21 0.11671774E+00 0.47290682E+03</pdfrwt>
<pdfrwt beam="2">  1       21 0.10359444E-01 0.47290682E+03</pdfrwt>
<totfact> 0.39035505E+04</totfact>
</mgrwt>
</event>
<event>
 7    0  0.4750554E-002  0.4534473E+03  0.7546771E-02  0.1026699E+00
         21   -1    0    0  502  501  0.00000000000E+00  0.00000000000E+00  0.82580366014E+02  0.82580366014E+02  0.00000000000E+00 0.  1.
         21   -1    0    0  501  502 -0.00000000000E+00 -0.00000000000E+00 -0.62246782704E+03  0.62246782704E+03  0.00000000000E+00 0.  1.
      99926    2    1    2    0    0  0.00000000000E+00  0.00000000000E+00 -0.53988746103E+03  0.70504819306E+03  0.45344733317E+03 0.  0.
      99925    2    3    3    0    0  0.55228108801E+02 -0.65829057422E+02 -0.45116261953E+03  0.52925509193E+03  0.26302021648E+03 0.  0.
         25    1    4    4    0    0  0.22543580572E+02 -0.73989518015E+02 -0.24628674223E+03  0.28685768127E+03  0.12509000000E+03 0.  0.
         25    1    3    3    0    0 -0.55228108801E+02  0.65829057422E+02 -0.88724841506E+02  0.17579310113E+03  0.12509000000E+03 0.  0.
         25    1    4    4    0    0  0.32684528229E+02  0.81604605925E+01 -0.20487587729E+03  0.24239741067E+03  0.12509000000E+03 0.  0.
<mgrwt>
<rscale>  2 0.45344733E+03</rscale>
<asrwt>0</asrwt>
<pdfrwt beam="1">  1       21 0.12144171E-01 0.45344733E+03</pdfrwt>
<pdfrwt beam="2">  1       21 0.91539386E-01 0.45344733E+03</pdfrwt>
<totfact> 0.53277667E+04</totfact>
</mgrwt>
</event>
<event>
 7    0  0.4750554E-002  0.4498429E+03  0.7546771E-02  0.1027769E+00
         21   -1    0    0  502  501  0.00000000000E+00  0.00000000000E+00  0.31660981862E+02  0.31660981862E+02  0.00000000000E+00 0.  1.
         21   -1    0    0  501  502 -0.00000000000E+00 -0.00000000000E+00 -0.15978548671E+04  0.15978548671E+04  0.00000000000E+00 0.  1.
      99926    2    1    2    0    0  0.62172489379E-14  0.00000000000E+00 -0.15661938852E+04  0.16295158490E+04  0.44984287908E+03 0.  0.
      99925    2    3    3    0    0  0.67663304476E+01 -0.10845395563E+03 -0.10201291888E+04  0.10588651638E+04  0.26215230205E+03 0.  0.
         25    1    4    4    0    0 -0.33156799734E+02 -0.55839143437E+02 -0.56135149098E+03  0.57877490256E+03  0.12509000000E+03 0.  0.
         25    1    4    4    0    0  0.39923130181E+02 -0.52614812196E+02 -0.45877769785E+03  0.48009026124E+03  0.12509000000E+03 0.  0.
         25    1    3    3    0    0 -0.67663304476E+01  0.10845395563E+03 -0.54606469639E+03  0.57065068515E+03  0.12509000000E+03 0.  0.
<mgrwt>
<rscale>  2 0.44984288E+03</rscale>
<asrwt>0</asrwt>
<pdfrwt beam="1">  1       21 0.46560256E-02 0.44984288E+03</pdfrwt>
<pdfrwt beam="2">  1       21 0.23497871E+00 0.44984288E+03</pdfrwt>
<totfact> 0.21623942E+04</totfact>
</mgrwt>
</event>
<event>
 7    0  0.4750554E-002  0.4551512E+03  0.7546771E-02  0.1026197E+00
         21   -1    0    0  502  501  0.00000000000E+00  0.00000000000E+00  0.56709663905E+03  0.56709663905E+03  0.00000000000E+00 0.  1.
         21   -1    0    0  501  502 -0.00000000000E+00 -0.00000000000E+00 -0.91325967308E+02  0.91325967308E+02  0.00000000000E+00 0.  1.
      99926    2    1    2    0    0 -0.71054273576E-14 -0.66613381478E-15  0.47577067174E+03  0.65842260636E+03  0.45515117980E+03 0.  0.
      99925    2    3    3    0    0  0.32692441726E+02  0.15973989388E+01  0.14008878053E+03  0.29869884065E+03  0.26177238881E+03 0.  0.
         25    1    4    4    0    0 -0.31437405609E+01  0.22436842177E+02  0.97493972255E+02  0.16020573560E+03  0.12509000000E+03 0.  0.
         25    1    4    4    0    0  0.35836182287E+02 -0.20839443238E+02  0.42594808278E+02  0.13849310505E+03  0.12509000000E+03 0.  0.
         25    1    3    3    0    0 -0.32692441726E+02 -0.15973989388E+01  0.33568189121E+03  0.35972376571E+03  0.12509000000E+03 0.  0.
<mgrwt>
<rscale>  2 0.45515118E+03</rscale>
<asrwt>0</asrwt>
<pdfrwt beam="1">  1       21 0.83396563E-01 0.45515118E+03</pdfrwt>
<pdfrwt beam="2">  1       21 0.13430290E-01 0.45515118E+03</pdfrwt>
<totfact> 0.55152828E+04</totfact>
</mgrwt>
</event>
<event>
 7    0  0.4750554E-002  0.4559001E+03  0.7546771E-02  0.1025977E+00
         21   -1    0    0  502  501  0.00000000000E+00  0.00000000000E+00  0.15315023059E+02  0.15315023059E+02  0.00000000000E+00 0. -1.
         21   -1    0    0  501  502 -0.00000000000E+00 -0.00000000000E+00 -0.33928277892E+04  0.33928277892E+04  0.00000000000E+00 0. -1.
      99926    2    1    2    0    0  0.14210854715E-13 -0.17763568394E-14 -0.33775127661E+04  0.34081428123E+04  0.45590014621E+03 0.  0.
      99925    2    3    3    0    0  0.91392050909E+02  0.12104608480E+02 -0.26256252336E+04  0.26403658927E+04  0.26291662463E+03 0.  0.
         25    1    4    4    0    0  0.59224802265E+02 -0.68904398402E+01 -0.10078704096E+04  0.10173521150E+04  0.12509000000E+03 0.  0.
         25    1    4    4    0    0  0.32167248643E+02  0.18995048320E+02 -0.16177548240E+04  0.16230137777E+04  0.12509000000E+03 0.  0.
         25    1    3    3    0    0 -0.91392050909E+02 -0.12104608480E+02 -0.75188753253E+03  0.76777691954E+03  0.12509000000E+03 0.  0.
<mgrwt>
<rscale>  2 0.45590015E+03</rscale>
<asrwt>0</asrwt>
<pdfrwt beam="1">  1       21 0.22522114E-02 0.45590015E+03</pdfrwt>
<pdfrwt beam="2">  1       21 0.49894479E+00 0.45590015E+03</pdfrwt>
<totfact> 0.15311352E+03</totfact>
</mgrwt>
</event>
<event>
 6    0  0.4750554E-002  0.4516699E+03  0.7546771E-02  0.1027225E+00
         21   -1    0    0  502  501  0.00000000000E+00  0.00000000000E+00  0.48128485807E+02  0.48128485807E+02  0.00000000000E+00 0. -1.
         21   -1    0    0  501  502 -0.00000000000E+00 -0.00000000000E+00 -0.10596929834E+04  0.10596929834E+04  0.00000000000E+00 0. -1.
      99926    2    1    2    0    0  0.00000000000E+00  0.00000000000E+00 -0.10115644976E+04  0.11078214692E+04  0.45166987374E+03 0.  0.
         25    1    3    3    0    0  0.70781966627E+02  0.83882992569E+02 -0.31265365966E+03  0.35418393843E+03  0.12509000000E+03 0.  0.
         25    1    3    3    0    0 -0.23154367420E+02 -0.68487089906E+02 -0.30910245302E+03  0.34120146655E+03  0.12509000000E+03 0.  0.
         25    1    3    3    0    0 -0.47627599207E+02 -0.15395902663E+02 -0.38980838487E+03  0.41243606419E+03  0.12509000000E+03 0.  0.
<mgrwt>
<rscale>  2 0.45166987E+03</rscale>
<asrwt>0</asrwt>
<pdfrwt beam="1">  1       21 0.70777188E-02 0.45166987E+03</pdfrwt>
<pdfrwt beam="2">  1       21 0.15583720E+00 0.45166987E+03</pdfrwt>
<totfact> 0.36151745E+04</totfact>
</mgrwt>
</event>
<event>
 7    0  0.4750554E-002  0.4598772E+03  0.7546771E-02  0.1024817E+00
         21   -1    0    0  502  501  0.00000000000E+00  0.00000000000E+00  0.60373469062E+03  0.60373469062E+03  0.00000000000E+00 0. -1.
         21   -1    0    0  501  502 -0.00000000000E+00 -0.00000000000E+00 -0.87574510993E+02  0.87574510993E+02  0.00000000000E+00 0. -1.
      99926    2    1    2    0    0  0.00000000000E+00  0.00000000000E+00  0.51616017962E+03  0.69130920161E+03  0.45987724580E+03 0.  0.
      99925    2    3    3    0    0 -0.84584875687E+02 -0.79811063904E+02  0.29643734321E+03  0.41301072864E+03  0.26301778724E+03 0.  0.
         25    1    4    4    0    0 -0.74654006600E+02 -0.16612216835E+02  0.16308314052E+03  0.21930071881E+03  0.12509000000E+03 0.  0.
         25    1    4    4    0    0 -0.99308690868E+01 -0.63198847069E+02  0.13335420270E+03  0.19371000983E+03  0.12509000000E+03 0.  0.
         25    1    3    3    0    0  0.84584875687E+02  0.79811063904E+02  0.21972283641E+03  0.27829847297E+03  0.12509000000E+03 0.  0.
<mgrwt>
<rscale>  2 0.45987725E+03</rscale>
<asrwt>0</asrwt>
<pdfrwt beam="1">  1       21 0.88784511E-01 0.45987725E+03</pdfrwt>
<pdfrwt beam="2">  1       21 0.12878605E-01 0.45987725E+03</pdfrwt>
<totfact> 0.51376355E+04</totfact>
</mgrwt>
</event>
<event>
 7    0  0.4750554E-002  0.4521452E+03  0.7546771E-02  0.1027084E+00
         21   -1    0    0  502  501  0.00000000000E+00  0.00000000000E+00  0.21711277532E+03  0.21711277532E+03  0.00000000000E+00 0.  1.
         21   -1    0    0  501  502 -0.00000000000E+00 -0.00000000000E+00 -0.23540217340E+03  0.23540217340E+03  0.00000000000E+00 0.  1.
      99926    2    1    2    0    0  0.88817841970E-15  0.00000000000E+00 -0.18289398079E+02  0.45251494872E+03  0.45214519431E+03 0.  0.
      99925    2    3    3    0    0 -0.45435578977E+01  0.46485908469E+02 -0.11206021420E+03  0.28935227634E+03  0.26265122237E+03 0.  0.
         25    1    4    4    0    0  0.18908749137E+02  0.40636105617E+02 -0.25438161452E+02  0.13529021410E+03  0.12509000000E+03 0.  0.
         25    1    4    4    0    0 -0.23452307035E+02  0.58498028528E+01 -0.86622052744E+02  0.15406206224E+03  0.12509000000E+03 0.  0.
         25    1    3    3    0    0  0.45435578977E+01 -0.46485908469E+02  0.93770816117E+02  0.16316267238E+03  0.12509000000E+03 0.  0.
<mgrwt>
<rscale>  2 0.45214519E+03</rscale>
<asrwt>0</asrwt>
<pdfrwt beam="1">  1       21 0.31928349E-01 0.45214519E+03</pdfrwt>
<pdfrwt beam="2">  1       21 0.34617967E-01 0.45214519E+03</pdfrwt>
<totfact> 0.70316330E+04</totfact>
</mgrwt>
</event>
<event>
 7    0  0.4750554E-002  0.4527424E+03  0.7546771E-02  0.1026907E+00
         21   -1    0    0  502  501  0.00000000000E+00  0.00000000000E+00  0.38968792778E+03  0.38968792778E+03  0.00000000000E+00 0. -1.
         21   -1    0    0  501  502 -0.00000000000E+00 -0.00000000000E+00 -0.13149988353E+03  0.13149988353E+03  0.00000000000E+00 0. -1.
      99926    2    1    2    0    0  0.00000000000E+00  0.14210854715E-13  0.25818804425E+03  0.52118781132E+03  0.45274238643E+03 0.  0.
      99925    2    3    3    0    0  0.79926532901E+02 -0.76875764978E+02  0.15598694559E+03  0.32525234600E+03  0.26298104016E+03 0.  0.
         25    1    4    4    0    0  0.11712269699E+02 -0.59072001082E+02  0.53243830955E+02  0.14869126473E+03  0.12509000000E+03 0.  0.
         25    1    4    4    0    0  0.68214263202E+02 -0.17803763895E+02  0.10274311463E+03  0.17656108126E+03  0.12509000000E+03 0.  0.
         25    1    3    3    0    0 -0.79926532901E+02  0.76875764978E+02  0.10220109866E+03  0.19593546532E+03  0.12509000000E+03 0.  0.
<mgrwt>
<rscale>  2 0.45274239E+03</rscale>
<asrwt>0</asrwt>
<pdfrwt beam="1">  1       21 0.57307048E-01 0.45274239E+03</pdfrwt>
<pdfrwt beam="2">  1       21 0.19338218E-01 0.45274239E+03</pdfrwt>
<totfact> 0.64961870E+04</totfact>
</mgrwt>
</event>
<event>
 7    0  0.4750554E-002  0.4520390E+03  0.7546771E-02  0.1027116E+00
         21   -1    0    0  502  501  0.00000000000E+00  0.00000000000E+00  0.26302050769E+03  0.26302050769E+03  0.00000000000E+00 0. -1.
         21   -1    0    0  501  502 -0.00000000000E+00 -0.00000000000E+00 -0.19422371286E+03  0.19422371286E+03  0.00000000000E+00 0. -1.
      99926    2    1    2    0    0 -0.14210854715E-13 -0.35527136788E-14  0.68796794830E+02  0.45724422054E+03  0.45203902292E+03 0.  0.
      99925    2    3    3    0    0  0.99123359339E+02  0.23386974719E+02  0.57627472898E+00  0.28210445231E+03  0.26307831338E+03 0.  0.
         25    1    4    4    0    0  0.85420043929E+01 -0.19069398273E+01 -0.51258541536E+01  0.12550053681E+03  0.12509000000E+03 0.  0.
         25    1    4    4    0    0  0.90581354946E+02  0.25293914546E+02  0.57021288825E+01  0.15660391550E+03  0.12509000000E+03 0.  0.
         25    1    3    3    0    0 -0.99123359339E+02 -0.23386974719E+02  0.68220520101E+02  0.17513976823E+03  0.12509000000E+03 0.  0.
<mgrwt>
<rscale>  2 0.45203902E+03</rscale>
<asrwt>0</asrwt>
<pdfrwt beam="1">  1       21 0.38679487E-01 0.45203902E+03</pdfrwt>
<pdfrwt beam="2">  1       21 0.28562311E-01 0.45203902E+03</pdfrwt>
<totfact> 0.70020691E+04</totfact>
</mgrwt>
</event>
<event>
 7    0  0.4750554E-002  0.4552323E+03  0.7546771E-02  0.1026173E+00
         21   -1    0    0  502  501  0.00000000000E+00  0.00000000000E+00  0.21997248399E+03  0.21997248399E+03  0.00000000000E+00 0.  1.
         21   -1    0    0  501  502 -0.00000000000E+00 -0.00000000000E+00 -0.23552537641E+03  0.23552537641E+03  0.00000000000E+00 0.  1.
      99926    2    1    2    0    0  0.71054273576E-14  0.00000000000E+00 -0.15552892416E+02  0.45549786040E+03  0.45523225761E+03 0.  0.
      99925    2    3    3    0    0 -0.43394302601E+02  0.10428747409E+03 -0.34830768126E+00  0.28627129556E+03  0.26304408489E+03 0.  0.
         25    1    4    4    0    0 -0.39805351361E+02  0.25482084197E+02 -0.25862763805E+02  0.13619909421E+03  0.12509000000E+03 0.  0.
         25    1    3    3    0    0  0.43394302601E+02 -0.10428747409E+03 -0.15204584734E+02  0.16922656484E+03  0.12509000000E+03 0.  0.
         25    1    4    4    0    0 -0.35889512399E+01  0.78805389894E+02  0.25514456124E+02  0.15007220135E+03  0.12509000000E+03 0.  0.
<mgrwt>
<rscale>  2 0.45523226E+03</rscale>
<asrwt>0</asrwt>
<pdfrwt beam="1">  1       21 0.32348895E-01 0.45523226E+03</pdfrwt>
<pdfrwt beam="2">  1       21 0.34636085E-01 0.45523226E+03</pdfrwt>
<totfact> 0.68382537E+04</totfact>
</mgrwt>
</event>
<event>
 7    0  0.4750554E-002  0.4465682E+03  0.7546771E-02  0.1028750E+00
         21   -1    0    0  502  501  0.00000000000E+00  0.00000000000E+00  0.19728240895E+03  0.19728240895E+03  0.00000000000E+00 0.  1.
         21   -1    0    0  501  502 -0.00000000000E+00 -0.00000000000E+00 -0.25271276421E+03  0.25271276421E+03  0.00000000000E+00 0.  1.
      99926    2    1    2    0    0  0.00000000000E+00  0.00000000000E+00 -0.55430355267E+02  0.44999517316E+03  0.44656817126E+03 0.  0.
      99925    2    3    3    0    0 -0.79530263968E+02  0.64873486894E+02 -0.12609469330E+02  0.28261904416E+03  0.26302260970E+03 0.  0.
         25    1    4    4    0    0 -0.23431953370E+02  0.37220621356E+02  0.30906359701E+02  0.13615117430E+03  0.12509000000E+03 0.  0.
         25    1    3    3    0    0  0.79530263968E+02 -0.64873486894E+02 -0.42820885936E+02  0.16737612901E+03  0.12509000000E+03 0.  0.
         25    1    4    4    0    0 -0.56098310598E+02  0.27652865538E+02 -0.43515829031E+02  0.14646786986E+03  0.12509000000E+03 0.  0.
<mgrwt>
<rscale>  2 0.44656817E+03</rscale>
<asrwt>0</asrwt>
<pdfrwt beam="1">  1       21 0.29012119E-01 0.44656817E+03</pdfrwt>
<pdfrwt beam="2">  1       21 0.37163642E-01 0.44656817E+03</pdfrwt>
<totfact> 0.73751803E+04</totfact>
</mgrwt>
</event>
<event>
 7    0  0.4750554E-002  0.4492860E+03  0.7546771E-02  0.1027935E+00
         21   -1    0    0  502  501  0.00000000000E+00  0.00000000000E+00  0.25913079001E+03  0.25913079001E+03  0.00000000000E+00 0. -1.
         21   -1    0    0  501  502 -0.00000000000E+00 -0.00000000000E+00 -0.19474519657E+03  0.19474519657E+03  0.00000000000E+00 0. -1.
      99926    2    1    2    0    0  0.00000000000E+00  0.00000000000E+00  0.64385593442E+02  0.45387598658E+03  0.44928599639E+03 0.  0.
      99925    2    3    3    0    0  0.59418760206E+02 -0.88679941129E+02  0.26149993930E+02  0.28504414659E+03  0.26300498532E+03 0.  0.
         25    1    3    3    0    0 -0.59418760206E+02  0.88679941129E+02  0.38235599512E+02  0.16883183999E+03  0.12509000000E+03 0.  0.
         25    1    4    4    0    0  0.37279216980E+02 -0.72467701501E+02  0.44233120042E+02  0.15570929577E+03  0.12509000000E+03 0.  0.
         25    1    4    4    0    0  0.22139543226E+02 -0.16212239628E+02 -0.18083126112E+02  0.12933485083E+03  0.12509000000E+03 0.  0.
<mgrwt>
<rscale>  2 0.44928600E+03</rscale>
<asrwt>0</asrwt>
<pdfrwt beam="1">  1       21 0.38107469E-01 0.44928600E+03</pdfrwt>
<pdfrwt beam="2">  1       21 0.28638999E-01 0.44928600E+03</pdfrwt>
<totfact> 0.71847728E+04</totfact>
</mgrwt>
</event>
<event>
 7    0  0.4750554E-002  0.4549204E+03  0.7546771E-02  0.1026265E+00
         21   -1    0    0  502  501  0.00000000000E+00  0.00000000000E+00  0.55673532240E+03  0.55673532240E+03  0.00000000000E+00 0.  1.
         21   -1    0    0  501  502 -0.00000000000E+00 -0.00000000000E+00 -0.92931304535E+02  0.92931304535E+02  0.00000000000E+00 0.  1.
      99926    2    1    2    0    0 -0.17763568394E-14  0.00000000000E+00  0.46380401787E+03  0.64966662693E+03  0.45492038772E+03 0.  0.
      99925    2    3    3    0    0  0.11993980399E+02 -0.47780710600E+02  0.43711783474E+03  0.51260272818E+03  0.26317808347E+03 0.  0.
         25    1    4    4    0    0 -0.61242770530E+01 -0.62746360986E+02  0.24283778936E+03  0.28034320507E+03  0.12509000000E+03 0.  0.
         25    1    4    4    0    0  0.18118257452E+02  0.14965650386E+02  0.19428004538E+03  0.23225952312E+03  0.12509000000E+03 0.  0.
         25    1    3    3    0    0 -0.11993980399E+02  0.47780710600E+02  0.26686183125E+02  0.13706389875E+03  0.12509000000E+03 0.  0.
<mgrwt>
<rscale>  2 0.45492039E+03</rscale>
<asrwt>0</asrwt>
<pdfrwt beam="1">  1       21 0.81872840E-01 0.45492039E+03</pdfrwt>
<pdfrwt beam="2">  1       21 0.13666369E-01 0.45492039E+03</pdfrwt>
<totfact> 0.55755710E+04</totfact>
</mgrwt>
</event>
<event>
 7    0  0.4750554E-002  0.4569289E+03  0.7546771E-02  0.1025676E+00
         21   -1    0    0  502  501  0.00000000000E+00  0.00000000000E+00  0.23349073596E+03  0.23349073596E+03  0.00000000000E+00 0. -1.
         21   -1    0    0  501  502 -0.00000000000E+00 -0.00000000000E+00 -0.22354636812E+03  0.22354636812E+03  0.00000000000E+00 0. -1.
      99926    2    1    2    0    0  0.00000000000E+00  0.00000000000E+00  0.99443678333E+01  0.45703710408E+03  0.45692890482E+03 0.  0.
      99925    2    3    3    0    0  0.73841828034E+02 -0.85630582285E+02 -0.14272159074E+02  0.28668699265E+03  0.26305992671E+03 0.  0.
         25    1    4    4    0    0  0.78708385981E+02 -0.52407154010E+02 -0.86014564373E+01  0.15704462095E+03  0.12509000000E+03 0.  0.
         25    1    3    3    0    0 -0.73841828034E+02  0.85630582285E+02  0.24216526907E+02  0.17035011143E+03  0.12509000000E+03 0.  0.
         25    1    4    4    0    0 -0.48665579475E+01 -0.33223428275E+02 -0.56707026362E+01  0.12964237170E+03  0.12509000000E+03 0.  0.
<mgrwt>
<rscale>  2 0.45692890E+03</rscale>
<asrwt>0</asrwt>
<pdfrwt beam="1">  1       21 0.34336873E-01 0.45692890E+03</pdfrwt>
<pdfrwt beam="2">  1       21 0.32874465E-01 0.45692890E+03</pdfrwt>
<totfact> 0.67354210E+04</totfact>
</mgrwt>
</event>
<event>
 7    0  0.4750554E-002  0.4633667E+03  0.7546771E-02  0.1023809E+00
         21   -1    0    0  502  501  0.00000000000E+00  0.00000000000E+00  0.11349196020E+03  0.11349196020E+03  0.00000000000E+00 0.  1.
         21   -1    0    0  501  502 -0.00000000000E+00 -0.00000000000E+00 -0.47296016596E+03  0.47296016596E+03  0.00000000000E+00 0.  1.
      99926    2    1    2    0    0  0.13322676296E-14  0.00000000000E+00 -0.35946820576E+03  0.58645212616E+03  0.46336670718E+03 0.  0.
      99925    2    3    3    0    0 -0.18910784013E+01  0.55443556166E+02 -0.88711038937E+02  0.28308021648E+03  0.26303459170E+03 0.  0.
         25    1    4    4    0    0 -0.31035901110E+02  0.36112340088E+02 -0.17592389046E+02  0.13499751300E+03  0.12509000000E+03 0.  0.
         25    1    3    3    0    0  0.18910784013E+01 -0.55443556166E+02 -0.27075716682E+03  0.30337190968E+03  0.12509000000E+03 0.  0.
         25    1    4    4    0    0  0.29144822709E+02  0.19331216078E+02 -0.71118649891E+02  0.14808270347E+03  0.12509000000E+03 0.  0.
<mgrwt>
<rscale>  2 0.46336671E+03</rscale>
<asrwt>0</asrwt>
<pdfrwt beam="1">  1       21 0.16689994E-01 0.46336671E+03</pdfrwt>
<pdfrwt beam="2">  1       21 0.69552965E-01 0.46336671E+03</pdfrwt>
<totfact> 0.55741085E+04</totfact>
</mgrwt>
</event>
<event>
 7    0  0.4750554E-002  0.4562648E+03  0.7546771E-02  0.1025870E+00
         21   -1    0    0  502  501  0.00000000000E+00  0.00000000000E+00  0.49151927616E+02  0.49151927616E+02  0.00000000000E+00 0.  1.
         21   -1    0    0  501  502 -0.00000000000E+00 -0.00000000000E+00 -0.10588473339E+04  0.10588473339E+04  0.00000000000E+00 0.  1.
      99926    2    1    2    0    0  0.00000000000E+00  0.00000000000E+00 -0.10096954063E+04  0.11079992615E+04  0.45626478063E+03 0.  0.
      99925    2    3    3    0    0  0.52854793267E+02 -0.85458572615E+02 -0.76767458453E+03  0.81762298309E+03  0.26284268669E+03 0.  0.
         25    1    3    3    0    0 -0.52854793267E+02  0.85458572615E+02 -0.24202082172E+03  0.29037627839E+03  0.12509000000E+03 0.  0.
         25    1    4    4    0    0  0.51196909938E+02 -0.10557360583E+02 -0.37365630627E+03  0.39749103733E+03  0.12509000000E+03 0.  0.
         25    1    4    4    0    0  0.16578833287E+01 -0.74901212032E+02 -0.39401827826E+03  0.42013194576E+03  0.12509000000E+03 0.  0.
<mgrwt>
<rscale>  2 0.45626478E+03</rscale>
<asrwt>0</asrwt>
<pdfrwt beam="1">  1       21 0.72282241E-02 0.45626478E+03</pdfrwt>
<pdfrwt beam="2">  1       21 0.15571286E+00 0.45626478E+03</pdfrwt>
<totfact> 0.34870743E+04</totfact>
</mgrwt>
</event>
<event>
 7    0  0.4750554E-002  0.4557527E+03  0.7546771E-02  0.1026020E+00
         21   -1    0    0  502  501  0.00000000000E+00  0.00000000000E+00  0.53866809143E+02  0.53866809143E+02  0.00000000000E+00 0.  1.
         21   -1    0    0  501  502 -0.00000000000E+00 -0.00000000000E+00 -0.96400050052E+03  0.96400050052E+03  0.00000000000E+00 0.  1.
      99926    2    1    2    0    0  0.00000000000E+00  0.00000000000E+00 -0.91013369138E+03  0.10178673097E+04  0.45575270038E+03 0.  0.
      99925    2    3    3    0    0 -0.65522605120E+02  0.69163142022E+02 -0.43208272642E+03  0.51462086388E+03  0.26279725850E+03 0.  0.
         25    1    3    3    0    0  0.65522605120E+02 -0.69163142022E+02 -0.47805096496E+03  0.50324644578E+03  0.12509000000E+03 0.  0.
         25    1    4    4    0    0 -0.41316903299E+02  0.31032347567E+02 -0.14568892991E+03  0.19885387975E+03  0.12509000000E+03 0.  0.
         25    1    4    4    0    0 -0.24205701822E+02  0.38130794456E+02 -0.28639379652E+03  0.31576698413E+03  0.12509000000E+03 0.  0.
<mgrwt>
<rscale>  2 0.45575270E+03</rscale>
<asrwt>0</asrwt>
<pdfrwt beam="1">  1       21 0.79215894E-02 0.45575270E+03</pdfrwt>
<pdfrwt beam="2">  1       21 0.14176478E+00 0.45575270E+03</pdfrwt>
<totfact> 0.38253619E+04</totfact>
</mgrwt>
</event>
<event>
 7    0  0.4750554E-002  0.4360097E+03  0.7546771E-02  0.1031978E+00
         21   -1    0    0  502  501  0.00000000000E+00  0.00000000000E+00  0.13693748080E+03  0.13693748080E+03  0.00000000000E+00 0. -1.
         21   -1    0    0  501  502 -0.00000000000E+00 -0.00000000000E+00 -0.34706428782E+03  0.34706428782E+03  0.00000000000E+00 0. -1.
      99926    2    1    2    0    0  0.00000000000E+00  0.00000000000E+00 -0.21012680702E+03  0.48400176861E+03  0.43600967534E+03 0.  0.
      99925    2    3    3    0    0 -0.39122523022E+02 -0.60549152163E+02 -0.67552561793E+02  0.28109367332E+03  0.26316065994E+03 0.  0.
         25    1    4    4    0    0  0.34870276119E+00 -0.57210911488E+01 -0.37809039677E+01  0.12527831342E+03  0.12509000000E+03 0.  0.
         25    1    4    4    0    0 -0.39471225783E+02 -0.54828061014E+02 -0.63771657825E+02  0.15581535990E+03  0.12509000000E+03 0.  0.
         25    1    3    3    0    0  0.39122523022E+02  0.60549152163E+02 -0.14257424523E+03  0.20290809530E+03  0.12509000000E+03 0.  0.
<mgrwt>
<rscale>  2 0.43600968E+03</rscale>
<asrwt>0</asrwt>
<pdfrwt beam="1">  1       21 0.20137865E-01 0.43600968E+03</pdfrwt>
<pdfrwt beam="2">  1       21 0.51038865E-01 0.43600968E+03</pdfrwt>
<totfact> 0.77442504E+04</totfact>
</mgrwt>
</event>
<event>
 7    0  0.4750554E-002  0.4446268E+03  0.7546771E-02  0.1029337E+00
         21   -1    0    0  502  501  0.00000000000E+00  0.00000000000E+00  0.49681542314E+03  0.49681542314E+03  0.00000000000E+00 0. -1.
         21   -1    0    0  501  502 -0.00000000000E+00 -0.00000000000E+00 -0.99480087569E+02  0.99480087569E+02  0.00000000000E+00 0. -1.
      99926    2    1    2    0    0  0.00000000000E+00  0.00000000000E+00  0.39733533557E+03  0.59629551071E+03  0.44462677292E+03 0.  0.
      99925    2    3    3    0    0  0.80727322973E+02  0.23296787831E+02  0.17099426002E+03  0.32438112790E+03  0.26253464187E+03 0.  0.
         25    1    4    4    0    0  0.24051118586E+01  0.17159302029E+02  0.96573921870E+02  0.15897879322E+03  0.12509000000E+03 0.  0.
         25    1    4    4    0    0  0.78322211114E+02  0.61374858015E+01  0.74420338148E+02  0.16540233467E+03  0.12509000000E+03 0.  0.
         25    1    3    3    0    0 -0.80727322973E+02 -0.23296787831E+02  0.22634107555E+03  0.27191438281E+03  0.12509000000E+03 0.  0.
<mgrwt>
<rscale>  2 0.44462677E+03</rscale>
<asrwt>0</asrwt>
<pdfrwt beam="1">  1       21 0.73061090E-01 0.44462677E+03</pdfrwt>
<pdfrwt beam="2">  1       21 0.14629425E-01 0.44462677E+03</pdfrwt>
<totfact> 0.63993056E+04</totfact>
</mgrwt>
</event>
<event>
 7    0  0.4750554E-002  0.4492827E+03  0.7546771E-02  0.1027936E+00
         21   -1    0    0  502  501  0.00000000000E+00  0.00000000000E+00  0.53738322417E+03  0.53738322417E+03  0.00000000000E+00 0. -1.
         21   -1    0    0  501  502 -0.00000000000E+00 -0.00000000000E+00 -0.93906438289E+02  0.93906438289E+02  0.00000000000E+00 0. -1.
      99926    2    1    2    0    0  0.00000000000E+00  0.00000000000E+00  0.44347678588E+03  0.63128966246E+03  0.44928273761E+03 0.  0.
      99925    2    3    3    0    0  0.65906501681E+02  0.30912560668E+02  0.39169487818E+03  0.47757522776E+03  0.26335141390E+03 0.  0.
         25    1    3    3    0    0 -0.65906501681E+02 -0.30912560668E+02  0.51781907704E+02  0.15371443470E+03  0.12509000000E+03 0.  0.
         25    1    4    4    0    0  0.47505759159E+02 -0.22320058011E+02  0.20744627934E+03  0.24786377117E+03  0.12509000000E+03 0.  0.
         25    1    4    4    0    0  0.18400742522E+02  0.53232618679E+02  0.18424859883E+03  0.22971145659E+03  0.12509000000E+03 0.  0.
<mgrwt>
<rscale>  2 0.44928274E+03</rscale>
<asrwt>0</asrwt>
<pdfrwt beam="1">  1       21 0.79026944E-01 0.44928274E+03</pdfrwt>
<pdfrwt beam="2">  1       21 0.13809771E-01 0.44928274E+03</pdfrwt>
<totfact> 0.59429382E+04</totfact>
</mgrwt>
</event>
<event>
 7    0  0.4750554E-002  0.4538483E+03  0.7546771E-02  0.1026581E+00
         21   -1    0    0  502  501  0.00000000000E+00  0.00000000000E+00  0.44764962620E+03  0.44764962620E+03  0.00000000000E+00 0.  1.
         21   -1    0    0  501  502 -0.00000000000E+00 -0.00000000000E+00 -0.11503322599E+03  0.11503322599E+03  0.00000000000E+00 0.  1.
      99926    2    1    2    0    0  0.00000000000E+00 -0.14210854715E-13  0.33261640021E+03  0.56268285219E+03  0.45384834743E+03 0.  0.
      99925    2    3    3    0    0 -0.23897746862E+02 -0.99092622334E+02  0.15168289108E+03  0.32024751457E+03  0.26298349955E+03 0.  0.
         25    1    4    4    0    0 -0.85506609201E+00 -0.76353984860E+01  0.70699442645E+02  0.14389214620E+03  0.12509000000E+03 0.  0.
         25    1    4    4    0    0 -0.23042680770E+02 -0.91457223847E+02  0.80983448434E+02  0.17635536837E+03  0.12509000000E+03 0.  0.
         25    1    3    3    0    0  0.23897746862E+02  0.99092622334E+02  0.18093350913E+03  0.24243533763E+03  0.12509000000E+03 0.  0.
<mgrwt>
<rscale>  2 0.45384835E+03</rscale>
<asrwt>0</asrwt>
<pdfrwt beam="1">  1       21 0.65830827E-01 0.45384835E+03</pdfrwt>
<pdfrwt beam="2">  1       21 0.16916651E-01 0.45384835E+03</pdfrwt>
<totfact> 0.61595262E+04</totfact>
</mgrwt>
</event>
<event>
 7    0  0.4750554E-002  0.4613027E+03  0.7546771E-02  0.1024404E+00
         21   -1    0    0  502  501  0.00000000000E+00  0.00000000000E+00  0.81878117510E+02  0.81878117510E+02  0.00000000000E+00 0. -1.
         21   -1    0    0  501  502 -0.00000000000E+00 -0.00000000000E+00 -0.64974686834E+03  0.64974686834E+03  0.00000000000E+00 0. -1.
      99926    2    1    2    0    0  0.00000000000E+00  0.00000000000E+00 -0.56786875083E+03  0.73162498585E+03  0.46130272246E+03 0.  0.
      99925    2    3    3    0    0 -0.48291493294E+02  0.21974744888E+02 -0.52421809161E+03  0.58890902358E+03  0.26304804265E+03 0.  0.
         25    1    3    3    0    0  0.48291493294E+02 -0.21974744888E+02 -0.43650659222E+02  0.14271596227E+03  0.12509000000E+03 0.  0.
         25    1    4    4    0    0 -0.32005730140E+02  0.26519030914E+01 -0.34910929635E+03  0.37223139073E+03  0.12509000000E+03 0.  0.
         25    1    4    4    0    0 -0.16285763154E+02  0.19322841797E+02 -0.17510879526E+03  0.21667763284E+03  0.12509000000E+03 0.  0.
<mgrwt>
<rscale>  2 0.46130272E+03</rscale>
<asrwt>0</asrwt>
<pdfrwt beam="1">  1       21 0.12040899E-01 0.46130272E+03</pdfrwt>
<pdfrwt beam="2">  1       21 0.95551013E-01 0.46130272E+03</pdfrwt>
<totfact> 0.48757620E+04</totfact>
</mgrwt>
</event>
<event>
 7    0  0.4750554E-002  0.4550189E+03  0.7546771E-02  0.1026236E+00
         21   -1    0    0  502  501  0.00000000000E+00  0.00000000000E+00  0.22994461593E+02  0.22994461593E+02  0.00000000000E+00 0.  1.
         21   -1    0    0  501  502 -0.00000000000E+00 -0.00000000000E+00 -0.22510007238E+04  0.22510007238E+04  0.00000000000E+00 0.  1.
      99926    2    1    2    0    0  0.00000000000E+00  0.00000000000E+00 -0.22280062622E+04  0.22739951854E+04  0.45501889934E+03 0.  0.
      99925    2    3    3    0    0 -0.39490875820E+02 -0.10278074784E+03 -0.12706331519E+04  0.13022265958E+04  0.26298686002E+03 0.  0.
         25    1    3    3    0    0  0.39490875820E+02  0.10278074784E+03 -0.95737311030E+03  0.97176858965E+03  0.12509000000E+03 0.  0.
         25    1    4    4    0    0 -0.37908305738E+02 -0.47570265488E+02 -0.47571798082E+03  0.49563603095E+03  0.12509000000E+03 0.  0.
         25    1    4    4    0    0 -0.15825700825E+01 -0.55210482354E+02 -0.79491517112E+03  0.80659056483E+03  0.12509000000E+03 0.  0.
<mgrwt>
<rscale>  2 0.45501890E+03</rscale>
<asrwt>0</asrwt>
<pdfrwt beam="1">  1       21 0.33815412E-02 0.45501890E+03</pdfrwt>
<pdfrwt beam="2">  1       21 0.33102925E+00 0.45501890E+03</pdfrwt>
<totfact> 0.97284514E+03</totfact>
</mgrwt>
</event>
<event>
 7    0  0.4750554E-002  0.4677864E+03  0.7546771E-02  0.1022547E+00
         21   -1    0    0  502  501  0.00000000000E+00  0.00000000000E+00  0.42568199992E+02  0.42568199992E+02  0.00000000000E+00 0.  1.
         21   -1    0    0  501  502 -0.00000000000E+00 -0.00000000000E+00 -0.12851384482E+04  0.12851384482E+04  0.00000000000E+00 0.  1.
      99926    2    1    2    0    0 -0.71054273576E-14  0.17763568394E-14 -0.12425702483E+04  0.13277066482E+04  0.46778640631E+03 0.  0.
      99925    2    3    3    0    0  0.36915187644E+02 -0.11147573473E+02 -0.43682997503E+03  0.51140284727E+03  0.26310728922E+03 0.  0.
         25    1    3    3    0    0 -0.36915187644E+02  0.11147573473E+02 -0.80574027322E+03  0.81630380096E+03  0.12509000000E+03 0.  0.
         25    1    4    4    0    0  0.32233635132E+02 -0.20640717651E+02 -0.15464008255E+03  0.20254903034E+03  0.12509000000E+03 0.  0.
         25    1    4    4    0    0  0.46815525121E+01  0.94931441771E+01 -0.28218989248E+03  0.30885381694E+03  0.12509000000E+03 0.  0.
<mgrwt>
<rscale>  2 0.46778641E+03</rscale>
<asrwt>0</asrwt>
<pdfrwt beam="1">  1       21 0.62600287E-02 0.46778641E+03</pdfrwt>
<pdfrwt beam="2">  1       21 0.18899097E+00 0.46778641E+03</pdfrwt>
<totfact> 0.25671257E+04</totfact>
</mgrwt>
</event>
<event>
 7    0  0.4750554E-002  0.4553636E+03  0.7546771E-02  0.1026135E+00
         21   -1    0    0  502  501  0.00000000000E+00  0.00000000000E+00  0.44071429344E+03  0.44071429344E+03  0.00000000000E+00 0.  1.
         21   -1    0    0  501  502 -0.00000000000E+00 -0.00000000000E+00 -0.11762498666E+03  0.11762498666E+03  0.00000000000E+00 0.  1.
      99926    2    1    2    0    0  0.00000000000E+00 -0.35527136788E-14  0.32308930678E+03  0.55833928009E+03  0.45536364758E+03 0.  0.
      99925    2    3    3    0    0  0.10618836454E+03  0.20549729592E+02  0.24621346796E+03  0.37597792770E+03  0.26275477191E+03 0.  0.
         25    1    4    4    0    0  0.69455202985E+02  0.46718940810E+02  0.11791331495E+03  0.19120079130E+03  0.12509000000E+03 0.  0.
         25    1    4    4    0    0  0.36733161560E+02 -0.26169211218E+02  0.12830015301E+03  0.18477713640E+03  0.12509000000E+03 0.  0.
         25    1    3    3    0    0 -0.10618836454E+03 -0.20549729592E+02  0.76875838824E+02  0.18236135239E+03  0.12509000000E+03 0.  0.
<mgrwt>
<rscale>  2 0.45536365E+03</rscale>
<asrwt>0</asrwt>
<pdfrwt beam="1">  1       21 0.64810925E-01 0.45536365E+03</pdfrwt>
<pdfrwt beam="2">  1       21 0.17297792E-01 0.45536365E+03</pdfrwt>
<totfact> 0.61142718E+04</totfact>
</mgrwt>
</event>
<event>
 7    0  0.4750554E-002  0.4539379E+03  0.7546771E-02  0.1026554E+00
         21   -1    0    0  502  501  0.00000000000E+00  0.00000000000E+00  0.45020636783E+02  0.45020636783E+02  0.00000000000E+00 0.  1.
         21   -1    0    0  501  502 -0.00000000000E+00 -0.00000000000E+00 -0.11442510674E+04  0.11442510674E+04  0.00000000000E+00 0.  1.
      99926    2    1    2    0    0  0.14210854715E-13  0.00000000000E+00 -0.10992304306E+04  0.11892717042E+04  0.45393793273E+03 0.  0.
      99925    2    3    3    0    0 -0.65757531578E+02 -0.83173421744E+02 -0.78864204943E+03  0.83805308043E+03  0.26293499661E+03 0.  0.
         25    1    4    4    0    0 -0.67549046634E+02 -0.66305765852E+02 -0.45918511385E+03  0.48523994597E+03  0.12509000000E+03 0.  0.
         25    1    3    3    0    0  0.65757531578E+02  0.83173421744E+02 -0.31058838118E+03  0.35121862375E+03  0.12509000000E+03 0.  0.
         25    1    4    4    0    0  0.17915150557E+01 -0.16867655892E+02 -0.32945693558E+03  0.35281313446E+03  0.12509000000E+03 0.  0.
<mgrwt>
<rscale>  2 0.45393793E+03</rscale>
<asrwt>0</asrwt>
<pdfrwt beam="1">  1       21 0.66206812E-02 0.45393793E+03</pdfrwt>
<pdfrwt beam="2">  1       21 0.16827223E+00 0.45393793E+03</pdfrwt>
<totfact> 0.32768121E+04</totfact>
</mgrwt>
</event>
<event>
 7    0  0.4750554E-002  0.4514230E+03  0.7546771E-02  0.1027299E+00
         21   -1    0    0  502  501  0.00000000000E+00  0.00000000000E+00  0.43264994540E+02  0.43264994540E+02  0.00000000000E+00 0. -1.
         21   -1    0    0  501  502 -0.00000000000E+00 -0.00000000000E+00 -0.11775266915E+04  0.11775266915E+04  0.00000000000E+00 0. -1.
      99926    2    1    2    0    0  0.00000000000E+00 -0.71054273576E-14 -0.11342616969E+04  0.12207916860E+04  0.45142302058E+03 0.  0.
      99925    2    3    3    0    0 -0.32318179802E+02 -0.54392405117E+02 -0.47384272600E+03  0.54565931103E+03  0.26308583438E+03 0.  0.
         25    1    4    4    0    0  0.27347577359E+01 -0.40690623939E+02 -0.17031777425E+03  0.21521816397E+03  0.12509000000E+03 0.  0.
         25    1    4    4    0    0 -0.35052937538E+02 -0.13701781178E+02 -0.30352495175E+03  0.33044114706E+03  0.12509000000E+03 0.  0.
         25    1    3    3    0    0  0.32318179802E+02  0.54392405117E+02 -0.66041897092E+03  0.67513237497E+03  0.12509000000E+03 0.  0.
<mgrwt>
<rscale>  2 0.45142302E+03</rscale>
<asrwt>0</asrwt>
<pdfrwt beam="1">  1       21 0.63624989E-02 0.45142302E+03</pdfrwt>
<pdfrwt beam="2">  1       21 0.17316570E+00 0.45142302E+03</pdfrwt>
<totfact> 0.32396971E+04</totfact>
</mgrwt>
</event>
<event>
 7    0  0.4750554E-002  0.4527597E+03  0.7546771E-02  0.1026902E+00
         21   -1    0    0  502  501  0.00000000000E+00  0.00000000000E+00  0.63505851935E+02  0.63505851935E+02  0.00000000000E+00 0. -1.
         21   -1    0    0  501  502 -0.00000000000E+00 -0.00000000000E+00 -0.80697821159E+03  0.80697821159E+03  0.00000000000E+00 0. -1.
      99926    2    1    2    0    0  0.00000000000E+00 -0.71054273576E-14 -0.74347235966E+03  0.87048406353E+03  0.45275971031E+03 0.  0.
      99925    2    3    3    0    0  0.89243408772E+02 -0.48192633580E+02 -0.38150971103E+03  0.47431316222E+03  0.26293801609E+03 0.  0.
         25    1    4    4    0    0  0.31097387699E+02 -0.62087280163E+02 -0.20032927034E+03  0.24617311497E+03  0.12509000000E+03 0.  0.
         25    1    4    4    0    0  0.58146021073E+02  0.13894646583E+02 -0.18118044069E+03  0.22814004725E+03  0.12509000000E+03 0.  0.
         25    1    3    3    0    0 -0.89243408772E+02  0.48192633580E+02 -0.36196264863E+03  0.39617090131E+03  0.12509000000E+03 0.  0.
<mgrwt>
<rscale>  2 0.45275971E+03</rscale>
<asrwt>0</asrwt>
<pdfrwt beam="1">  1       21 0.93390957E-02 0.45275971E+03</pdfrwt>
<pdfrwt beam="2">  1       21 0.11867327E+00 0.45275971E+03</pdfrwt>
<totfact> 0.45324638E+04</totfact>
</mgrwt>
</event>
<event>
 7    0  0.4750554E-002  0.4601500E+03  0.7546771E-02  0.1024738E+00
         21   -1    0    0  502  501  0.00000000000E+00  0.00000000000E+00  0.11143602221E+03  0.11143602221E+03  0.00000000000E+00 0. -1.
         21   -1    0    0  501  502 -0.00000000000E+00 -0.00000000000E+00 -0.47502142497E+03  0.47502142497E+03  0.00000000000E+00 0. -1.
      99926    2    1    2    0    0  0.00000000000E+00 -0.71054273576E-14 -0.36358540276E+03  0.58645744719E+03  0.46014996714E+03 0.  0.
      99925    2    3    3    0    0 -0.87812004787E+01  0.42829785833E+02 -0.36735760167E+03  0.45389335846E+03  0.26297542340E+03 0.  0.
         25    1    3    3    0    0  0.87812004787E+01 -0.42829785833E+02  0.37721989058E+01  0.13256408873E+03  0.12509000000E+03 0.  0.
         25    1    4    4    0    0  0.21622095224E+01 -0.14650555197E+02 -0.20651216928E+03  0.24189687488E+03  0.12509000000E+03 0.  0.
         25    1    4    4    0    0 -0.10943410001E+02  0.57480341030E+02 -0.16084543238E+03  0.21199648357E+03  0.12509000000E+03 0.  0.
<mgrwt>
<rscale>  2 0.46014997E+03</rscale>
<asrwt>0</asrwt>
<pdfrwt beam="1">  1       21 0.16387651E-01 0.46014997E+03</pdfrwt>
<pdfrwt beam="2">  1       21 0.69856091E-01 0.46014997E+03</pdfrwt>
<totfact> 0.57157170E+04</totfact>
</mgrwt>
</event>
<event>
 7    0  0.4750554E-002  0.4535020E+03  0.7546771E-02  0.1026683E+00
         21   -1    0    0  502  501  0.00000000000E+00  0.00000000000E+00  0.17100324494E+03  0.17100324494E+03  0.00000000000E+00 0. -1.
         21   -1    0    0  501  502 -0.00000000000E+00 -0.00000000000E+00 -0.30067275259E+03  0.30067275259E+03  0.00000000000E+00 0. -1.
      99926    2    1    2    0    0  0.00000000000E+00  0.35527136788E-14 -0.12966950766E+03  0.47167599753E+03  0.45350200158E+03 0.  0.
      99925    2    3    3    0    0  0.41379211528E+02  0.26676378194E+02  0.22712417337E+02  0.26847258352E+03  0.26294068894E+03 0.  0.
         25    1    4    4    0    0  0.49939734816E+02  0.19492918416E+02 -0.16054334080E+02  0.13703722386E+03  0.12509000000E+03 0.  0.
         25    1    4    4    0    0 -0.85605232877E+01  0.71834597781E+01  0.38766751417E+02  0.13143535966E+03  0.12509000000E+03 0.  0.
         25    1    3    3    0    0 -0.41379211528E+02 -0.26676378194E+02 -0.15238192499E+03  0.20320341401E+03  0.12509000000E+03 0.  0.
<mgrwt>
<rscale>  2 0.45350200E+03</rscale>
<asrwt>0</asrwt>
<pdfrwt beam="1">  1       21 0.25147536E-01 0.45350200E+03</pdfrwt>
<pdfrwt beam="2">  1       21 0.44216581E-01 0.45350200E+03</pdfrwt>
<totfact> 0.68117317E+04</totfact>
</mgrwt>
</event>
<event>
 7    0  0.4750554E-002  0.4581884E+03  0.7546771E-02  0.1025308E+00
         21   -1    0    0  502  501  0.00000000000E+00  0.00000000000E+00  0.58376072875E+02  0.58376072875E+02  0.00000000000E+00 0. -1.
         21   -1    0    0  501  502 -0.00000000000E+00 -0.00000000000E+00 -0.89906947866E+03  0.89906947866E+03  0.00000000000E+00 0. -1.
      99926    2    1    2    0    0  0.71054273576E-14  0.00000000000E+00 -0.84069340579E+03  0.95744555154E+03  0.45818836915E+03 0.  0.
      99925    2    3    3    0    0  0.43530228598E+02 -0.17334649094E+02 -0.30486238851E+03  0.40521574608E+03  0.26279907549E+03 0.  0.
         25    1    4    4    0    0 -0.12354773212E+02  0.12049195624E+02 -0.13159523993E+03  0.18238047815E+03  0.12509000000E+03 0.  0.
         25    1    3    3    0    0 -0.43530228598E+02  0.17334649094E+02 -0.53583101728E+03  0.55222980546E+03  0.12509000000E+03 0.  0.
         25    1    4    4    0    0  0.55885001811E+02 -0.29383844718E+02 -0.17326714858E+03  0.22283526793E+03  0.12509000000E+03 0.  0.
<mgrwt>
<rscale>  2 0.45818837E+03</rscale>
<asrwt>0</asrwt>
<pdfrwt beam="1">  1       21 0.85847175E-02 0.45818837E+03</pdfrwt>
<pdfrwt beam="2">  1       21 0.13221609E+00 0.45818837E+03</pdfrwt>
<totfact> 0.39838302E+04</totfact>
</mgrwt>
</event>
<event>
 7    0  0.4750554E-002  0.4620111E+03  0.7546771E-02  0.1024200E+00
         21   -1    0    0  502  501  0.00000000000E+00  0.00000000000E+00  0.36529343915E+03  0.36529343915E+03  0.00000000000E+00 0. -1.
         21   -1    0    0  501  502 -0.00000000000E+00 -0.00000000000E+00 -0.14608408456E+03  0.14608408456E+03  0.00000000000E+00 0. -1.
      99926    2    1    2    0    0  0.00000000000E+00  0.00000000000E+00  0.21920935459E+03  0.51137752371E+03  0.46201107197E+03 0.  0.
      99925    2    3    3    0    0 -0.10895268298E+03  0.49106762013E+02  0.13045439316E+03  0.31693701229E+03  0.26296113755E+03 0.  0.
         25    1    3    3    0    0  0.10895268298E+03 -0.49106762013E+02  0.88754961422E+02  0.19444051142E+03  0.12509000000E+03 0.  0.
         25    1    4    4    0    0 -0.69544060650E+02  0.55261116047E+02  0.96771265025E+02  0.18139005803E+03  0.12509000000E+03 0.  0.
         25    1    4    4    0    0 -0.39408622332E+02 -0.61543540342E+01  0.33683128140E+02  0.13554695426E+03  0.12509000000E+03 0.  0.
<mgrwt>
<rscale>  2 0.46201107E+03</rscale>
<asrwt>0</asrwt>
<pdfrwt beam="1">  1       21 0.53719623E-01 0.46201107E+03</pdfrwt>
<pdfrwt beam="2">  1       21 0.21482954E-01 0.46201107E+03</pdfrwt>
<totfact> 0.61012117E+04</totfact>
</mgrwt>
</event>
<event>
 7    0  0.4750554E-002  0.4551394E+03  0.7546771E-02  0.1026200E+00
         21   -1    0    0  502  501  0.00000000000E+00  0.00000000000E+00  0.11488305759E+03  0.11488305759E+03  0.00000000000E+00 0. -1.
         21   -1    0    0  501  502 -0.00000000000E+00 -0.00000000000E+00 -0.45078866099E+03  0.45078866099E+03  0.00000000000E+00 0. -1.
      99926    2    1    2    0    0 -0.35527136788E-14  0.00000000000E+00 -0.33590560340E+03  0.56567171858E+03  0.45513944985E+03 0.  0.
      99925    2    3    3    0    0  0.16910602498E+02  0.88881825505E+02 -0.29616036963E+03  0.40625672842E+03  0.26295934565E+03 0.  0.
         25    1    4    4    0    0  0.28209061741E+02  0.81367415886E+02 -0.15112305488E+03  0.21424773826E+03  0.12509000000E+03 0.  0.
         25    1    4    4    0    0 -0.11298459243E+02  0.75144096187E+01 -0.14503731474E+03  0.19200899016E+03  0.12509000000E+03 0.  0.
         25    1    3    3    0    0 -0.16910602498E+02 -0.88881825505E+02 -0.39745233777E+02  0.15941499017E+03  0.12509000000E+03 0.  0.
<mgrwt>
<rscale>  2 0.45513945E+03</rscale>
<asrwt>0</asrwt>
<pdfrwt beam="1">  1       21 0.16894567E-01 0.45513945E+03</pdfrwt>
<pdfrwt beam="2">  1       21 0.66292450E-01 0.45513945E+03</pdfrwt>
<totfact> 0.60775583E+04</totfact>
</mgrwt>
</event>
<event>
 7    0  0.4750554E-002  0.4618707E+03  0.7546771E-02  0.1024240E+00
         21   -1    0    0  502  501  0.00000000000E+00  0.00000000000E+00  0.27584461176E+02  0.27584461176E+02  0.00000000000E+00 0. -1.
         21   -1    0    0  501  502 -0.00000000000E+00 -0.00000000000E+00 -0.19333763093E+04  0.19333763093E+04  0.00000000000E+00 0. -1.
      99926    2    1    2    0    0  0.00000000000E+00  0.00000000000E+00 -0.19057918481E+04  0.19609607704E+04  0.46187073404E+03 0.  0.
      99925    2    3    3    0    0  0.28398333606E+02 -0.74129843719E+02 -0.80944832354E+03  0.85465234555E+03  0.26253065379E+03 0.  0.
         25    1    4    4    0    0 -0.10641056056E+02 -0.54771018931E+02 -0.49115551162E+03  0.50989640250E+03  0.12509000000E+03 0.  0.
         25    1    3    3    0    0 -0.28398333606E+02  0.74129843719E+02 -0.10963435246E+04  0.11063084249E+04  0.12509000000E+03 0.  0.
         25    1    4    4    0    0  0.39039389661E+02 -0.19358824789E+02 -0.31829281192E+03  0.34475594304E+03  0.12509000000E+03 0.  0.
<mgrwt>
<rscale>  2 0.46187073E+03</rscale>
<asrwt>0</asrwt>
<pdfrwt beam="1">  1       21 0.40565387E-02 0.46187073E+03</pdfrwt>
<pdfrwt beam="2">  1       21 0.28432003E+00 0.46187073E+03</pdfrwt>
<totfact> 0.13617173E+04</totfact>
</mgrwt>
</event>
<event>
 7    0  0.4750554E-002  0.4608207E+03  0.7546771E-02  0.1024543E+00
         21   -1    0    0  502  501  0.00000000000E+00  0.00000000000E+00  0.53788637381E+02  0.53788637381E+02  0.00000000000E+00 0.  1.
         21   -1    0    0  501  502 -0.00000000000E+00 -0.00000000000E+00 -0.98699137282E+03  0.98699137282E+03  0.00000000000E+00 0.  1.
      99926    2    1    2    0    0  0.00000000000E+00  0.00000000000E+00 -0.93320273544E+03  0.10407800102E+04  0.46082066382E+03 0.  0.
      99925    2    3    3    0    0  0.68046396632E+02  0.63173601684E+02 -0.41733350784E+03  0.50190174553E+03  0.26290091168E+03 0.  0.
         25    1    3    3    0    0 -0.68046396632E+02 -0.63173601684E+02 -0.51586922760E+03  0.53887826467E+03  0.12509000000E+03 0.  0.
         25    1    4    4    0    0  0.79197764910E+00  0.25016419346E+02 -0.23751574033E+03  0.26960653454E+03  0.12509000000E+03 0.  0.
         25    1    4    4    0    0  0.67254418983E+02  0.38157182337E+02 -0.17981776751E+03  0.23229521099E+03  0.12509000000E+03 0.  0.
<mgrwt>
<rscale>  2 0.46082066E+03</rscale>
<asrwt>0</asrwt>
<pdfrwt beam="1">  1       21 0.79100943E-02 0.46082066E+03</pdfrwt>
<pdfrwt beam="2">  1       21 0.14514578E+00 0.46082066E+03</pdfrwt>
<totfact> 0.35955832E+04</totfact>
</mgrwt>
</event>
<event>
 7    0  0.4750554E-002  0.4529133E+03  0.7546771E-02  0.1026857E+00
         21   -1    0    0  502  501  0.00000000000E+00  0.00000000000E+00  0.35598314673E+03  0.35598314673E+03  0.00000000000E+00 0. -1.
         21   -1    0    0  501  502 -0.00000000000E+00 -0.00000000000E+00 -0.14405911273E+03  0.14405911273E+03  0.00000000000E+00 0. -1.
      99926    2    1    2    0    0  0.00000000000E+00  0.00000000000E+00  0.21192403400E+03  0.50004225946E+03  0.45291330855E+03 0.  0.
      99925    2    3    3    0    0  0.18914441292E+02  0.88031834057E+02  0.20599405496E+03  0.34580208101E+03  0.26275115348E+03 0.  0.
         25    1    3    3    0    0 -0.18914441292E+02 -0.88031834057E+02  0.59299790435E+01  0.15424017845E+03  0.12509000000E+03 0.  0.
         25    1    4    4    0    0 -0.90279253891E+01  0.84196215827E+01  0.77922684771E+02  0.14789133297E+03  0.12509000000E+03 0.  0.
         25    1    4    4    0    0  0.27942366681E+02  0.79612212475E+02  0.12807137019E+03  0.19791074805E+03  0.12509000000E+03 0.  0.
<mgrwt>
<rscale>  2 0.45291331E+03</rscale>
<asrwt>0</asrwt>
<pdfrwt beam="1">  1       21 0.52350463E-01 0.45291331E+03</pdfrwt>
<pdfrwt beam="2">  1       21 0.21185164E-01 0.45291331E+03</pdfrwt>
<totfact> 0.66360083E+04</totfact>
</mgrwt>
</event>
<event>
 7    0  0.4750554E-002  0.4005107E+03  0.7546771E-02  0.1043603E+00
         21   -1    0    0  502  501  0.00000000000E+00  0.00000000000E+00  0.44387238647E+02  0.44387238647E+02  0.00000000000E+00 0. -1.
         21   -1    0    0  501  502 -0.00000000000E+00 -0.00000000000E+00 -0.90346253765E+03  0.90346253765E+03  0.00000000000E+00 0. -1.
      99926    2    1    2    0    0  0.00000000000E+00  0.00000000000E+00 -0.85907529900E+03  0.94784977629E+03  0.40051071030E+03 0.  0.
      99925    2    3    3    0    0 -0.32698824792E+02  0.59070855273E+01 -0.64973940503E+03  0.70173368295E+03  0.26299194004E+03 0.  0.
         25    1    4    4    0    0 -0.14579061117E+02  0.42104288053E+02 -0.35400841196E+03  0.37809361795E+03  0.12509000000E+03 0.  0.
         25    1    4    4    0    0 -0.18119763675E+02 -0.36197202526E+02 -0.29573099308E+03  0.32364006500E+03  0.12509000000E+03 0.  0.
         25    1    3    3    0    0  0.32698824792E+02 -0.59070855273E+01 -0.20933589396E+03  0.24611609335E+03  0.12509000000E+03 0.  0.
<mgrwt>
<rscale>  2 0.40051071E+03</rscale>
<asrwt>0</asrwt>
<pdfrwt beam="1">  1       21 0.65275353E-02 0.40051071E+03</pdfrwt>
<pdfrwt beam="2">  1       21 0.13286213E+00 0.40051071E+03</pdfrwt>
<totfact> 0.64709865E+04</totfact>
</mgrwt>
</event>
<event>
 7    0  0.4750554E-002  0.4581974E+03  0.7546771E-02  0.1025305E+00
         21   -1    0    0  502  501  0.00000000000E+00  0.00000000000E+00  0.36564277920E+03  0.36564277920E+03  0.00000000000E+00 0.  1.
         21   -1    0    0  501  502 -0.00000000000E+00 -0.00000000000E+00 -0.14354508731E+03  0.14354508731E+03  0.00000000000E+00 0.  1.
      99926    2    1    2    0    0 -0.71054273576E-14 -0.83266726847E-15  0.22209769189E+03  0.50918786651E+03  0.45819744506E+03 0.  0.
      99925    2    3    3    0    0  0.58666988412E+02  0.28674955031E+00  0.25136538943E+03  0.36795754408E+03  0.26223328829E+03 0.  0.
         25    1    4    4    0    0  0.15273988230E+02 -0.36312667250E+02  0.11565769863E+03  0.17486027528E+03  0.12509000000E+03 0.  0.
         25    1    4    4    0    0  0.43393000181E+02  0.36599416800E+02  0.13570769080E+03  0.19309726880E+03  0.12509000000E+03 0.  0.
         25    1    3    3    0    0 -0.58666988412E+02 -0.28674955031E+00 -0.29267697540E+02  0.14123032243E+03  0.12509000000E+03 0.  0.
<mgrwt>
<rscale>  2 0.45819745E+03</rscale>
<asrwt>0</asrwt>
<pdfrwt beam="1">  1       21 0.53770997E-01 0.45819745E+03</pdfrwt>
<pdfrwt beam="2">  1       21 0.21109572E-01 0.45819745E+03</pdfrwt>
<totfact> 0.63015455E+04</totfact>
</mgrwt>
</event>
<event>
 7    0  0.4750554E-002  0.4540313E+03  0.7546771E-02  0.1026527E+00
         21   -1    0    0  502  501  0.00000000000E+00  0.00000000000E+00  0.79352146473E+03  0.79352146473E+03  0.00000000000E+00 0.  1.
         21   -1    0    0  501  502 -0.00000000000E+00 -0.00000000000E+00 -0.64946086554E+02  0.64946086554E+02  0.00000000000E+00 0.  1.
      99926    2    1    2    0    0  0.17763568394E-14  0.00000000000E+00  0.72857537818E+03  0.85846755128E+03  0.45403133694E+03 0.  0.
      99925    2    3    3    0    0  0.14698185666E+02  0.96326724666E+02  0.35133609430E+03  0.44925872936E+03  0.26249091450E+03 0.  0.
         25    1    4    4    0    0  0.19708563164E+01  0.63211164646E+02  0.24068668313E+03  0.27852670096E+03  0.12509000000E+03 0.  0.
         25    1    4    4    0    0  0.12727329350E+02  0.33115560019E+02  0.11064941117E+03  0.17073202840E+03  0.12509000000E+03 0.  0.
         25    1    3    3    0    0 -0.14698185666E+02 -0.96326724666E+02  0.37723928387E+03  0.40920882193E+03  0.12509000000E+03 0.  0.
<mgrwt>
<rscale>  2 0.45403134E+03</rscale>
<asrwt>0</asrwt>
<pdfrwt beam="1">  1       21 0.11669433E+00 0.45403134E+03</pdfrwt>
<pdfrwt beam="2">  1       21 0.95508956E-02 0.45403134E+03</pdfrwt>
<totfact> 0.45406933E+04</totfact>
</mgrwt>
</event>
<event>
 7    0  0.4750554E-002  0.4346822E+03  0.7546771E-02  0.1032391E+00
         21   -1    0    0  502  501  0.00000000000E+00  0.00000000000E+00  0.58012491329E+02  0.58012491329E+02  0.00000000000E+00 0. -1.
         21   -1    0    0  501  502 -0.00000000000E+00 -0.00000000000E+00 -0.81425848543E+03  0.81425848543E+03  0.00000000000E+00 0. -1.
      99926    2    1    2    0    0  0.00000000000E+00  0.14210854715E-13 -0.75624599411E+03  0.87227097676E+03  0.43468224406E+03 0.  0.
      99925    2    3    3    0    0  0.11895122764E+02 -0.91959739729E+02 -0.47401837494E+03  0.54993881145E+03  0.26294712183E+03 0.  0.
         25    1    3    3    0    0 -0.11895122764E+02  0.91959739729E+02 -0.28222761916E+03  0.32233216531E+03  0.12509000000E+03 0.  0.
         25    1    4    4    0    0 -0.88766921395E+01 -0.74998141072E+01 -0.23549431712E+03  0.26690845691E+03  0.12509000000E+03 0.  0.
         25    1    4    4    0    0  0.20771814904E+02 -0.84459925621E+02 -0.23852405782E+03  0.28303035454E+03  0.12509000000E+03 0.  0.
<mgrwt>
<rscale>  2 0.43468224E+03</rscale>
<asrwt>0</asrwt>
<pdfrwt beam="1">  1       21 0.85312495E-02 0.43468224E+03</pdfrwt>
<pdfrwt beam="2">  1       21 0.11974388E+00 0.43468224E+03</pdfrwt>
<totfact> 0.52290734E+04</totfact>
</mgrwt>
</event>
<event>
 7    0  0.4750554E-002  0.4449996E+03  0.7546771E-02  0.1029224E+00
         21   -1    0    0  502  501  0.00000000000E+00  0.00000000000E+00  0.11197100116E+04  0.11197100116E+04  0.00000000000E+00 0.  1.
         21   -1    0    0  501  502 -0.00000000000E+00 -0.00000000000E+00 -0.44213368138E+02  0.44213368138E+02  0.00000000000E+00 0.  1.
      99926    2    1    2    0    0  0.00000000000E+00  0.00000000000E+00  0.10754966435E+04  0.11639233797E+04  0.44499955483E+03 0.  0.
      99925    2    3    3    0    0  0.37680669090E+02 -0.91769191229E+02  0.75665709326E+03  0.80734578067E+03  0.26350680353E+03 0.  0.
         25    1    3    3    0    0 -0.37680669090E+02  0.91769191229E+02  0.31883955021E+03  0.35657759907E+03  0.12509000000E+03 0.  0.
         25    1    4    4    0    0  0.50990609702E+02 -0.66628984790E+02  0.35291400665E+03  0.38371248101E+03  0.12509000000E+03 0.  0.
         25    1    4    4    0    0 -0.13309940612E+02 -0.25140206439E+02  0.40374308661E+03  0.42363329967E+03  0.12509000000E+03 0.  0.
<mgrwt>
<rscale>  2 0.44499955E+03</rscale>
<asrwt>0</asrwt>
<pdfrwt beam="1">  1       21 0.16466322E+00 0.44499955E+03</pdfrwt>
<pdfrwt beam="2">  1       21 0.65019666E-02 0.44499955E+03</pdfrwt>
<totfact> 0.36049310E+04</totfact>
</mgrwt>
</event>
