<event>
 7    0  0.4779893E-002  0.4564381E+03  0.7546771E-02  0.1025819E+00
         21   -1    0    0  502  501  0.00000000000E+00  0.00000000000E+00  0.10970796507E+03  0.10970796507E+03  0.00000000000E+00 0.  1.
         21   -1    0    0  501  502 -0.00000000000E+00 -0.00000000000E+00 -0.47475080087E+03  0.47475080087E+03  0.00000000000E+00 0.  1.
      99926    2    1    2    0    0  0.00000000000E+00  0.00000000000E+00 -0.36504283580E+03  0.58445876593E+03  0.45643814160E+03 0.  0.
      99925    2    3    3    0    0 -0.27551691558E+02  0.43979037155E+02 -0.98563089220E+02  0.28554035758E+03  0.26291702461E+03 0.  0.
         25    1    3    3    0    0  0.27551691558E+02 -0.43979037155E+02 -0.26647974658E+03  0.29891840836E+03  0.12509000000E+03 0.  0.
         25    1    4    4    0    0 -0.40356697202E+02 -0.44807169894E+01 -0.64820246666E+02  0.14662166386E+03  0.12509000000E+03 0.  0.
         25    1    4    4    0    0  0.12805005644E+02  0.48459754144E+02 -0.33742842554E+02  0.13891869372E+03  0.12509000000E+03 0.  0.
<mgrwt>
<rscale>  2 0.45643814E+03</rscale>
<asrwt>0</asrwt>
<pdfrwt beam="1">  1       21 0.16133524E-01 0.45643814E+03</pdfrwt>
<pdfrwt beam="2">  1       21 0.69816293E-01 0.45643814E+03</pdfrwt>
<totfact> 0.58971944E+04</totfact>
</mgrwt>
</event>
<event>
 7    0  0.4779893E-002  0.4469745E+03  0.7546771E-02  0.1028628E+00
         21   -1    0    0  502  501  0.00000000000E+00  0.00000000000E+00  0.54982954155E+02  0.54982954155E+02  0.00000000000E+00 0. -1.
         21   -1    0    0  501  502 -0.00000000000E+00 -0.00000000000E+00 -0.90840053013E+03  0.90840053013E+03  0.00000000000E+00 0. -1.
      99926    2    1    2    0    0  0.00000000000E+00  0.00000000000E+00 -0.85341757597E+03  0.96338348429E+03  0.44697447221E+03 0.  0.
      99925    2    3    3    0    0  0.89576674077E+02  0.82860233846E+01 -0.42250263502E+03  0.50575062581E+03  0.26302581657E+03 0.  0.
         25    1    4    4    0    0  0.78155952273E+02  0.10041235716E+02 -0.27313922674E+03  0.31058287875E+03  0.12509000000E+03 0.  0.
         25    1    3    3    0    0 -0.89576674077E+02 -0.82860233846E+01 -0.43091494095E+03  0.45763285848E+03  0.12509000000E+03 0.  0.
         25    1    4    4    0    0  0.11420721804E+02 -0.17552123313E+01 -0.14936340828E+03  0.19516774705E+03  0.12509000000E+03 0.  0.
<mgrwt>
<rscale>  2 0.44697447E+03</rscale>
<asrwt>0</asrwt>
<pdfrwt beam="1">  1       21 0.80857294E-02 0.44697447E+03</pdfrwt>
<pdfrwt beam="2">  1       21 0.13358830E+00 0.44697447E+03</pdfrwt>
<totfact> 0.43254605E+04</totfact>
</mgrwt>
</event>
<event>
 7    0  0.4779893E-002  0.4474547E+03  0.7546771E-02  0.1028484E+00
         21   -1    0    0  502  501  0.00000000000E+00  0.00000000000E+00  0.55458755165E+02  0.55458755165E+02  0.00000000000E+00 0.  1.
         21   -1    0    0  501  502 -0.00000000000E+00 -0.00000000000E+00 -0.90254319481E+03  0.90254319481E+03  0.00000000000E+00 0.  1.
      99926    2    1    2    0    0  0.00000000000E+00  0.14210854715E-13 -0.84708443964E+03  0.95800194997E+03  0.44745467733E+03 0.  0.
      99925    2    3    3    0    0 -0.21131264392E+02  0.10197571980E+03 -0.49437207661E+03  0.56954462040E+03  0.26292916675E+03 0.  0.
         25    1    3    3    0    0  0.21131264392E+02 -0.10197571980E+03 -0.35271236304E+03  0.38845732958E+03  0.12509000000E+03 0.  0.
         25    1    4    4    0    0  0.10918699186E+02  0.80220744796E+02 -0.30304195266E+03  0.33769293606E+03  0.12509000000E+03 0.  0.
         25    1    4    4    0    0 -0.32049963578E+02  0.21754975008E+02 -0.19133012394E+03  0.23185168434E+03  0.12509000000E+03 0.  0.
<mgrwt>
<rscale>  2 0.44745468E+03</rscale>
<asrwt>0</asrwt>
<pdfrwt beam="1">  1       21 0.81556990E-02 0.44745468E+03</pdfrwt>
<pdfrwt beam="2">  1       21 0.13272694E+00 0.44745468E+03</pdfrwt>
<totfact> 0.43318214E+04</totfact>
</mgrwt>
</event>
<event>
 7    0  0.4779893E-002  0.4550083E+03  0.7546771E-02  0.1026239E+00
         21   -1    0    0  502  501  0.00000000000E+00  0.00000000000E+00  0.26725987956E+03  0.26725987956E+03  0.00000000000E+00 0. -1.
         21   -1    0    0  501  502 -0.00000000000E+00 -0.00000000000E+00 -0.19366224436E+03  0.19366224436E+03  0.00000000000E+00 0. -1.
      99926    2    1    2    0    0 -0.35527136788E-14  0.00000000000E+00  0.73597635204E+02  0.46092212391E+03  0.45500834323E+03 0.  0.
      99925    2    3    3    0    0  0.16661054426E+02  0.63910299081E+02  0.13946921016E+03  0.30488145758E+03  0.26294281798E+03 0.  0.
         25    1    4    4    0    0  0.40117045221E+02  0.47749188112E+02  0.49894930259E+02  0.14841285136E+03  0.12509000000E+03 0.  0.
         25    1    4    4    0    0 -0.23455990795E+02  0.16161110969E+02  0.89574279905E+02  0.15646860622E+03  0.12509000000E+03 0.  0.
         25    1    3    3    0    0 -0.16661054426E+02 -0.63910299081E+02 -0.65871574960E+02  0.15604066634E+03  0.12509000000E+03 0.  0.
<mgrwt>
<rscale>  2 0.45500834E+03</rscale>
<asrwt>0</asrwt>
<pdfrwt beam="1">  1       21 0.39302924E-01 0.45500834E+03</pdfrwt>
<pdfrwt beam="2">  1       21 0.28479742E-01 0.45500834E+03</pdfrwt>
<totfact> 0.68108839E+04</totfact>
</mgrwt>
</event>
<event>
 7    0  0.4779893E-002  0.4553335E+03  0.7546771E-02  0.1026143E+00
         21   -1    0    0  502  501  0.00000000000E+00  0.00000000000E+00  0.38138692640E+03  0.38138692640E+03  0.00000000000E+00 0. -1.
         21   -1    0    0  501  502 -0.00000000000E+00 -0.00000000000E+00 -0.13590434738E+03  0.13590434738E+03  0.00000000000E+00 0. -1.
      99926    2    1    2    0    0  0.00000000000E+00  0.00000000000E+00  0.24548257902E+03  0.51729127378E+03  0.45533346607E+03 0.  0.
      99925    2    3    3    0    0 -0.23271627260E+02  0.89532327600E+02  0.79695018812E+02  0.28993554031E+03  0.26297093982E+03 0.  0.
         25    1    3    3    0    0  0.23271627260E+02 -0.89532327600E+02  0.16578756021E+03  0.22735573347E+03  0.12509000000E+03 0.  0.
         25    1    4    4    0    0  0.10069715765E+01  0.61929014872E+02  0.49971702882E+01  0.13967353610E+03  0.12509000000E+03 0.  0.
         25    1    4    4    0    0 -0.24278598837E+02  0.27603312728E+02  0.74697848523E+02  0.15026200421E+03  0.12509000000E+03 0.  0.
<mgrwt>
<rscale>  2 0.45533347E+03</rscale>
<asrwt>0</asrwt>
<pdfrwt beam="1">  1       21 0.56086312E-01 0.45533347E+03</pdfrwt>
<pdfrwt beam="2">  1       21 0.19985934E-01 0.45533347E+03</pdfrwt>
<totfact> 0.63902949E+04</totfact>
</mgrwt>
</event>
<event>
 7    0  0.4779893E-002  0.4667263E+03  0.7546771E-02  0.1022848E+00
         21   -1    0    0  502  501  0.00000000000E+00  0.00000000000E+00  0.10137004884E+04  0.10137004884E+04  0.00000000000E+00 0.  1.
         21   -1    0    0  501  502 -0.00000000000E+00 -0.00000000000E+00 -0.53722328182E+02  0.53722328182E+02  0.00000000000E+00 0.  1.
      99926    2    1    2    0    0  0.00000000000E+00  0.00000000000E+00  0.95997816018E+03  0.10674228165E+04  0.46672625944E+03 0.  0.
      99925    2    3    3    0    0  0.59712649107E+02 -0.73615378162E+02  0.78028566015E+03  0.82884006982E+03  0.26295498768E+03 0.  0.
         25    1    4    4    0    0  0.17565790708E+02  0.25787347928E+01  0.32340822550E+03  0.34721116816E+03  0.12509000000E+03 0.  0.
         25    1    3    3    0    0 -0.59712649107E+02  0.73615378162E+02  0.17969250003E+03  0.23858274672E+03  0.12509000000E+03 0.  0.
         25    1    4    4    0    0  0.42146858399E+02 -0.76194112955E+02  0.45687743465E+03  0.48162890166E+03  0.12509000000E+03 0.  0.
<mgrwt>
<rscale>  2 0.46672626E+03</rscale>
<asrwt>0</asrwt>
<pdfrwt beam="1">  1       21 0.14907359E+00 0.46672626E+03</pdfrwt>
<pdfrwt beam="2">  1       21 0.79003430E-02 0.46672626E+03</pdfrwt>
<totfact> 0.33474682E+04</totfact>
</mgrwt>
</event>
<event>
 7    0  0.4779893E-002  0.4588077E+03  0.7546771E-02  0.1025128E+00
         21   -1    0    0  502  501  0.00000000000E+00  0.00000000000E+00  0.13875461323E+03  0.13875461323E+03  0.00000000000E+00 0.  1.
         21   -1    0    0  501  502 -0.00000000000E+00 -0.00000000000E+00 -0.37927477540E+03  0.37927477540E+03  0.00000000000E+00 0.  1.
      99926    2    1    2    0    0  0.00000000000E+00  0.00000000000E+00 -0.24052016217E+03  0.51802938863E+03  0.45880769291E+03 0.  0.
      99925    2    3    3    0    0  0.16735486138E+01  0.62802215162E+02 -0.26190731987E+03  0.37642487737E+03  0.26297019813E+03 0.  0.
         25    1    4    4    0    0 -0.39431335099E+02  0.32346074191E+02 -0.13689864545E+03  0.19232744456E+03  0.12509000000E+03 0.  0.
         25    1    3    3    0    0 -0.16735486138E+01 -0.62802215162E+02  0.21387157701E+02  0.14160451126E+03  0.12509000000E+03 0.  0.
         25    1    4    4    0    0  0.41104883713E+02  0.30456140971E+02 -0.12500867442E+03  0.18409743281E+03  0.12509000000E+03 0.  0.
<mgrwt>
<rscale>  2 0.45880769E+03</rscale>
<asrwt>0</asrwt>
<pdfrwt beam="1">  1       21 0.20405091E-01 0.45880769E+03</pdfrwt>
<pdfrwt beam="2">  1       21 0.55775701E-01 0.45880769E+03</pdfrwt>
<totfact> 0.62123435E+04</totfact>
</mgrwt>
</event>
<event>
 7    0  0.4779893E-002  0.4515427E+03  0.7546771E-02  0.1027263E+00
         21   -1    0    0  502  501  0.00000000000E+00  0.00000000000E+00  0.14138109446E+03  0.14138109446E+03  0.00000000000E+00 0.  1.
         21   -1    0    0  501  502 -0.00000000000E+00 -0.00000000000E+00 -0.36053409361E+03  0.36053409361E+03  0.00000000000E+00 0.  1.
      99926    2    1    2    0    0 -0.17763568394E-14  0.00000000000E+00 -0.21915299915E+03  0.50191518808E+03  0.45154271003E+03 0.  0.
      99925    2    3    3    0    0 -0.41218479323E+01  0.10942857018E+03 -0.12809609616E+03  0.31236184654E+03  0.26300135308E+03 0.  0.
         25    1    3    3    0    0  0.41218479323E+01 -0.10942857018E+03 -0.91056902997E+02  0.18955334153E+03  0.12509000000E+03 0.  0.
         25    1    4    4    0    0 -0.27992302751E+02  0.25113984990E+02 -0.42946001932E+02  0.13749963068E+03  0.12509000000E+03 0.  0.
         25    1    4    4    0    0  0.23870454819E+02  0.84314585194E+02 -0.85150094224E+02  0.17486221586E+03  0.12509000000E+03 0.  0.
<mgrwt>
<rscale>  2 0.45154271E+03</rscale>
<asrwt>0</asrwt>
<pdfrwt beam="1">  1       21 0.20791338E-01 0.45154271E+03</pdfrwt>
<pdfrwt beam="2">  1       21 0.53019719E-01 0.45154271E+03</pdfrwt>
<totfact> 0.66954932E+04</totfact>
</mgrwt>
</event>
<event>
 7    0  0.4779893E-002  0.4532193E+03  0.7546771E-02  0.1026766E+00
         21   -1    0    0  502  501  0.00000000000E+00  0.00000000000E+00  0.20223625977E+03  0.20223625977E+03  0.00000000000E+00 0. -1.
         21   -1    0    0  501  502 -0.00000000000E+00 -0.00000000000E+00 -0.25392048352E+03  0.25392048352E+03  0.00000000000E+00 0. -1.
      99926    2    1    2    0    0  0.00000000000E+00  0.00000000000E+00 -0.51684223745E+02  0.45615674329E+03  0.45321927967E+03 0.  0.
      99925    2    3    3    0    0  0.71809410170E+02  0.18253257191E+02  0.51231199509E+02  0.27803076194E+03  0.26303364043E+03 0.  0.
         25    1    3    3    0    0 -0.71809410170E+02 -0.18253257191E+02 -0.10291542325E+03  0.17812598135E+03  0.12509000000E+03 0.  0.
         25    1    4    4    0    0  0.74774451223E+02  0.23952327792E+02  0.20963778297E+02  0.14917077684E+03  0.12509000000E+03 0.  0.
         25    1    4    4    0    0 -0.29650410528E+01 -0.56990706014E+01  0.30267421212E+02  0.12885998510E+03  0.12509000000E+03 0.  0.
<mgrwt>
<rscale>  2 0.45321928E+03</rscale>
<asrwt>0</asrwt>
<pdfrwt beam="1">  1       21 0.29740627E-01 0.45321928E+03</pdfrwt>
<pdfrwt beam="2">  1       21 0.37341247E-01 0.45321928E+03</pdfrwt>
<totfact> 0.69442419E+04</totfact>
</mgrwt>
</event>
<event>
 7    0  0.4779893E-002  0.4572791E+03  0.7546771E-02  0.1025573E+00
         21   -1    0    0  502  501  0.00000000000E+00  0.00000000000E+00  0.41198049900E+02  0.41198049900E+02  0.00000000000E+00 0. -1.
         21   -1    0    0  501  502 -0.00000000000E+00 -0.00000000000E+00 -0.12688963466E+04  0.12688963466E+04  0.00000000000E+00 0. -1.
      99926    2    1    2    0    0  0.00000000000E+00  0.00000000000E+00 -0.12276982967E+04  0.13100943965E+04  0.45727914890E+03 0.  0.
      99925    2    3    3    0    0  0.16937300479E+02 -0.11139512678E+03 -0.84126126700E+03  0.88857709859E+03  0.26296956926E+03 0.  0.
         25    1    3    3    0    0 -0.16937300479E+02  0.11139512678E+03 -0.38643702966E+03  0.42151729787E+03  0.12509000000E+03 0.  0.
         25    1    4    4    0    0  0.74353808972E+01 -0.86402090236E+02 -0.36567494244E+03  0.39608872455E+03  0.12509000000E+03 0.  0.
         25    1    4    4    0    0  0.95019195816E+01 -0.24993036540E+02 -0.47558632456E+03  0.49248837404E+03  0.12509000000E+03 0.  0.
<mgrwt>
<rscale>  2 0.45727915E+03</rscale>
<asrwt>0</asrwt>
<pdfrwt beam="1">  1       21 0.60585375E-02 0.45727915E+03</pdfrwt>
<pdfrwt beam="2">  1       21 0.18660238E+00 0.45727915E+03</pdfrwt>
<totfact> 0.28317693E+04</totfact>
</mgrwt>
</event>
<event>
 7    0  0.4779893E-002  0.4677148E+03  0.7546771E-02  0.1022567E+00
         21   -1    0    0  502  501  0.00000000000E+00  0.00000000000E+00  0.21021341243E+03  0.21021341243E+03  0.00000000000E+00 0.  1.
         21   -1    0    0  501  502 -0.00000000000E+00 -0.00000000000E+00 -0.26016074467E+03  0.26016074467E+03  0.00000000000E+00 0.  1.
      99926    2    1    2    0    0 -0.58841820305E-14 -0.14210854715E-13 -0.49947332239E+02  0.47037415710E+03  0.46771477598E+03 0.  0.
      99925    2    3    3    0    0 -0.68719818923E+00  0.11159829866E+03 -0.87345557942E+02  0.29861622311E+03  0.26284548637E+03 0.  0.
         25    1    3    3    0    0  0.68719818923E+00 -0.11159829866E+03  0.37398225703E+02  0.17175793400E+03  0.12509000000E+03 0.  0.
         25    1    4    4    0    0  0.37909893013E+02  0.66021431829E+02 -0.53729923834E+02  0.15598205751E+03  0.12509000000E+03 0.  0.
         25    1    4    4    0    0 -0.38597091202E+02  0.45576866830E+02 -0.33615634109E+02  0.14263416560E+03  0.12509000000E+03 0.  0.
<mgrwt>
<rscale>  2 0.46771478E+03</rscale>
<asrwt>0</asrwt>
<pdfrwt beam="1">  1       21 0.30913737E-01 0.46771478E+03</pdfrwt>
<pdfrwt beam="2">  1       21 0.38258933E-01 0.46771478E+03</pdfrwt>
<totfact> 0.61006143E+04</totfact>
</mgrwt>
</event>
<event>
 7    0  0.4779893E-002  0.4513452E+03  0.7546771E-02  0.1027322E+00
         21   -1    0    0  502  501  0.00000000000E+00  0.00000000000E+00  0.15639928592E+04  0.15639928592E+04  0.00000000000E+00 0. -1.
         21   -1    0    0  501  502 -0.00000000000E+00 -0.00000000000E+00 -0.32562893263E+02  0.32562893263E+02  0.00000000000E+00 0. -1.
      99926    2    1    2    0    0  0.00000000000E+00  0.22204460493E-15  0.15314299660E+04  0.15965557525E+04  0.45134524497E+03 0.  0.
      99925    2    3    3    0    0 -0.10952381317E+03  0.30176690221E+00  0.99061205059E+03  0.10307580127E+04  0.26297203114E+03 0.  0.
         25    1    4    4    0    0 -0.15752959530E+02  0.50086439093E+01  0.50795269755E+03  0.52338961902E+03  0.12509000000E+03 0.  0.
         25    1    3    3    0    0  0.10952381317E+03 -0.30176690221E+00  0.54081791539E+03  0.56579773986E+03  0.12509000000E+03 0.  0.
         25    1    4    4    0    0 -0.93770853640E+02 -0.47068770071E+01  0.48265935304E+03  0.50736839364E+03  0.12509000000E+03 0.  0.
<mgrwt>
<rscale>  2 0.45134524E+03</rscale>
<asrwt>0</asrwt>
<pdfrwt beam="1">  1       21 0.22999890E+00 0.45134524E+03</pdfrwt>
<pdfrwt beam="2">  1       21 0.47886618E-02 0.45134524E+03</pdfrwt>
<totfact> 0.22129110E+04</totfact>
</mgrwt>
</event>
<event>
 7    0  0.4779893E-002  0.4677904E+03  0.7546771E-02  0.1022546E+00
         21   -1    0    0  502  501  0.00000000000E+00  0.00000000000E+00  0.28518027124E+03  0.28518027124E+03  0.00000000000E+00 0. -1.
         21   -1    0    0  501  502 -0.00000000000E+00 -0.00000000000E+00 -0.19183292490E+03  0.19183292490E+03  0.00000000000E+00 0. -1.
      99926    2    1    2    0    0  0.00000000000E+00 -0.71054273576E-14  0.93347346340E+02  0.47701319614E+03  0.46779040416E+03 0.  0.
      99925    2    3    3    0    0 -0.49663291532E+02  0.55923709187E+02  0.15994106334E+03  0.31677545083E+03  0.26300501656E+03 0.  0.
         25    1    4    4    0    0 -0.10790356653E+02  0.24183737218E+02  0.33987868699E+02  0.13230256332E+03  0.12509000000E+03 0.  0.
         25    1    4    4    0    0 -0.38872934878E+02  0.31739971969E+02  0.12595319464E+03  0.18447288751E+03  0.12509000000E+03 0.  0.
         25    1    3    3    0    0  0.49663291532E+02 -0.55923709187E+02 -0.66593717004E+02  0.16023774530E+03  0.12509000000E+03 0.  0.
<mgrwt>
<rscale>  2 0.46779040E+03</rscale>
<asrwt>0</asrwt>
<pdfrwt beam="1">  1       21 0.41938275E-01 0.46779040E+03</pdfrwt>
<pdfrwt beam="2">  1       21 0.28210724E-01 0.46779040E+03</pdfrwt>
<totfact> 0.60534800E+04</totfact>
</mgrwt>
</event>
<event>
 7    0  0.4779893E-002  0.4614916E+03  0.7546771E-02  0.1024350E+00
         21   -1    0    0  502  501  0.00000000000E+00  0.00000000000E+00  0.98504987533E+03  0.98504987533E+03  0.00000000000E+00 0. -1.
         21   -1    0    0  501  502 -0.00000000000E+00 -0.00000000000E+00 -0.54051700027E+02  0.54051700027E+02  0.00000000000E+00 0. -1.
      99926    2    1    2    0    0  0.00000000000E+00 -0.44408920985E-15  0.93099817531E+03  0.10391015754E+04  0.46149158334E+03 0.  0.
      99925    2    3    3    0    0 -0.79758306663E+02  0.24225033161E+01  0.38315684650E+03  0.47152348765E+03  0.26297903791E+03 0.  0.
         25    1    3    3    0    0  0.79758306663E+02 -0.24225033161E+01  0.54784132881E+03  0.56757808772E+03  0.12509000000E+03 0.  0.
         25    1    4    4    0    0 -0.11087273859E+02  0.18721203190E+02  0.13904811400E+03  0.18829577053E+03  0.12509000000E+03 0.  0.
         25    1    4    4    0    0 -0.68671032803E+02 -0.16298699874E+02  0.24410873249E+03  0.28322771712E+03  0.12509000000E+03 0.  0.
<mgrwt>
<rscale>  2 0.46149158E+03</rscale>
<asrwt>0</asrwt>
<pdfrwt beam="1">  1       21 0.14486026E+00 0.46149158E+03</pdfrwt>
<pdfrwt beam="2">  1       21 0.79487801E-02 0.46149158E+03</pdfrwt>
<totfact> 0.35829474E+04</totfact>
</mgrwt>
</event>
<event>
 7    0  0.4779893E-002  0.4480349E+03  0.7546771E-02  0.1028310E+00
         21   -1    0    0  502  501  0.00000000000E+00  0.00000000000E+00  0.62043112057E+03  0.62043112057E+03  0.00000000000E+00 0. -1.
         21   -1    0    0  501  502 -0.00000000000E+00 -0.00000000000E+00 -0.80885381037E+02  0.80885381037E+02  0.00000000000E+00 0. -1.
      99926    2    1    2    0    0  0.00000000000E+00  0.00000000000E+00  0.53954573953E+03  0.70131650161E+03  0.44803485398E+03 0.  0.
      99925    2    3    3    0    0  0.33673367838E+02  0.90023195530E+02  0.26950891443E+03  0.38857784642E+03  0.26290609795E+03 0.  0.
         25    1    3    3    0    0 -0.33673367838E+02 -0.90023195530E+02  0.27003682510E+03  0.31273865519E+03  0.12509000000E+03 0.  0.
         25    1    4    4    0    0 -0.13000589856E+02  0.31488947872E+02  0.92483350346E+02  0.15925215027E+03  0.12509000000E+03 0.  0.
         25    1    4    4    0    0  0.46673957695E+02  0.58534247658E+02  0.17702556408E+03  0.22932569615E+03  0.12509000000E+03 0.  0.
<mgrwt>
<rscale>  2 0.44803485E+03</rscale>
<asrwt>0</asrwt>
<pdfrwt beam="1">  1       21 0.91239868E-01 0.44803485E+03</pdfrwt>
<pdfrwt beam="2">  1       21 0.11894909E-01 0.44803485E+03</pdfrwt>
<totfact> 0.55829264E+04</totfact>
</mgrwt>
</event>
<event>
 7    0  0.4779893E-002  0.4624995E+03  0.7546771E-02  0.1024059E+00
         21   -1    0    0  502  501  0.00000000000E+00  0.00000000000E+00  0.41589834503E+03  0.41589834503E+03  0.00000000000E+00 0. -1.
         21   -1    0    0  501  502 -0.00000000000E+00 -0.00000000000E+00 -0.12858057826E+03  0.12858057826E+03  0.00000000000E+00 0. -1.
      99926    2    1    2    0    0  0.14210854715E-13 -0.35527136788E-14  0.28731776677E+03  0.54447892328E+03  0.46249951221E+03 0.  0.
      99925    2    3    3    0    0  0.11276094634E+03 -0.20855736355E+02  0.13766237294E+03  0.31821748653E+03  0.26298564039E+03 0.  0.
         25    1    4    4    0    0  0.68304906618E+02  0.18111430693E+02  0.99282881154E+02  0.17463728920E+03  0.12509000000E+03 0.  0.
         25    1    4    4    0    0  0.44456039719E+02 -0.38967167048E+02  0.38379491789E+02  0.14358019733E+03  0.12509000000E+03 0.  0.
         25    1    3    3    0    0 -0.11276094634E+03  0.20855736355E+02  0.14965539383E+03  0.22626143675E+03  0.12509000000E+03 0.  0.
<mgrwt>
<rscale>  2 0.46249951E+03</rscale>
<asrwt>0</asrwt>
<pdfrwt beam="1">  1       21 0.61161521E-01 0.46249951E+03</pdfrwt>
<pdfrwt beam="2">  1       21 0.18908909E-01 0.46249951E+03</pdfrwt>
<totfact> 0.58671793E+04</totfact>
</mgrwt>
</event>
<event>
 7    0  0.4779893E-002  0.4562745E+03  0.7546771E-02  0.1025867E+00
         21   -1    0    0  502  501  0.00000000000E+00  0.00000000000E+00  0.28864712979E+03  0.28864712979E+03  0.00000000000E+00 0. -1.
         21   -1    0    0  501  502 -0.00000000000E+00 -0.00000000000E+00 -0.18031223048E+03  0.18031223048E+03  0.00000000000E+00 0. -1.
      99926    2    1    2    0    0  0.00000000000E+00  0.00000000000E+00  0.10833489932E+03  0.46895936027E+03  0.45627451295E+03 0.  0.
      99925    2    3    3    0    0 -0.29766139365E+02  0.82057709055E+02 -0.79015749562E+01  0.27718366650E+03  0.26296170714E+03 0.  0.
         25    1    3    3    0    0  0.29766139365E+02 -0.82057709055E+02  0.11623647427E+03  0.19177569377E+03  0.12509000000E+03 0.  0.
         25    1    4    4    0    0 -0.94345481982E+01  0.34781180279E+02 -0.43607915737E+02  0.13728765282E+03  0.12509000000E+03 0.  0.
         25    1    4    4    0    0 -0.20331591167E+02  0.47276528776E+02  0.35706340780E+02  0.13989601368E+03  0.12509000000E+03 0.  0.
<mgrwt>
<rscale>  2 0.45627451E+03</rscale>
<asrwt>0</asrwt>
<pdfrwt beam="1">  1       21 0.42448107E-01 0.45627451E+03</pdfrwt>
<pdfrwt beam="2">  1       21 0.26516504E-01 0.45627451E+03</pdfrwt>
<totfact> 0.66835066E+04</totfact>
</mgrwt>
</event>
<event>
 7    0  0.4779893E-002  0.4578411E+03  0.7546771E-02  0.1025409E+00
         21   -1    0    0  502  501  0.00000000000E+00  0.00000000000E+00  0.25686731014E+03  0.25686731014E+03  0.00000000000E+00 0. -1.
         21   -1    0    0  501  502 -0.00000000000E+00 -0.00000000000E+00 -0.20401432415E+03  0.20401432415E+03  0.00000000000E+00 0. -1.
      99926    2    1    2    0    0  0.00000000000E+00  0.53290705182E-14  0.52852985987E+02  0.46088163429E+03  0.45784106707E+03 0.  0.
      99925    2    3    3    0    0  0.82814947057E+02 -0.82691022425E+01 -0.47917920220E+02  0.27997011684E+03  0.26298373664E+03 0.  0.
         25    1    4    4    0    0  0.48348434542E+02  0.34995876065E+02 -0.32241164394E+02  0.14229997627E+03  0.12509000000E+03 0.  0.
         25    1    3    3    0    0 -0.82814947057E+02  0.82691022425E+01  0.10077090621E+03  0.18091151745E+03  0.12509000000E+03 0.  0.
         25    1    4    4    0    0  0.34466512515E+02 -0.43264978308E+02 -0.15676755826E+02  0.13767014058E+03  0.12509000000E+03 0.  0.
<mgrwt>
<rscale>  2 0.45784107E+03</rscale>
<asrwt>0</asrwt>
<pdfrwt beam="1">  1       21 0.37774605E-01 0.45784107E+03</pdfrwt>
<pdfrwt beam="2">  1       21 0.30002106E-01 0.45784107E+03</pdfrwt>
<totfact> 0.66594584E+04</totfact>
</mgrwt>
</event>
<event>
 7    0  0.4779893E-002  0.4544945E+03  0.7546771E-02  0.1026390E+00
         21   -1    0    0  502  501  0.00000000000E+00  0.00000000000E+00  0.28459632199E+03  0.28459632199E+03  0.00000000000E+00 0. -1.
         21   -1    0    0  501  502 -0.00000000000E+00 -0.00000000000E+00 -0.18145460872E+03  0.18145460872E+03  0.00000000000E+00 0. -1.
      99926    2    1    2    0    0  0.35527136788E-14  0.00000000000E+00  0.10314171327E+03  0.46605093071E+03  0.45449450712E+03 0.  0.
      99925    2    3    3    0    0  0.50329264961E+01  0.52297264457E+02  0.16704039830E+03  0.31608131957E+03  0.26314363321E+03 0.  0.
         25    1    3    3    0    0 -0.50329264961E+01 -0.52297264457E+02 -0.63898685030E+02  0.14996961115E+03  0.12509000000E+03 0.  0.
         25    1    4    4    0    0  0.35856992470E+02  0.49907100851E+02  0.91384528805E+02  0.16665858163E+03  0.12509000000E+03 0.  0.
         25    1    4    4    0    0 -0.30824065974E+02  0.23901636062E+01  0.75655869492E+02  0.14942273794E+03  0.12509000000E+03 0.  0.
<mgrwt>
<rscale>  2 0.45449451E+03</rscale>
<asrwt>0</asrwt>
<pdfrwt beam="1">  1       21 0.41852400E-01 0.45449451E+03</pdfrwt>
<pdfrwt beam="2">  1       21 0.26684501E-01 0.45449451E+03</pdfrwt>
<totfact> 0.68003153E+04</totfact>
</mgrwt>
</event>
<event>
 7    0  0.4779893E-002  0.4541377E+03  0.7546771E-02  0.1026495E+00
         21   -1    0    0  502  501  0.00000000000E+00  0.00000000000E+00  0.11691405589E+04  0.11691405589E+04  0.00000000000E+00 0.  1.
         21   -1    0    0  501  502 -0.00000000000E+00 -0.00000000000E+00 -0.44100987559E+02  0.44100987559E+02  0.00000000000E+00 0.  1.
      99926    2    1    2    0    0  0.14210854715E-13  0.00000000000E+00  0.11250395714E+04  0.12132415465E+04  0.45413765862E+03 0.  0.
      99925    2    3    3    0    0 -0.87024734857E+02  0.71207013846E+02  0.71554090382E+03  0.77054479913E+03  0.26286262406E+03 0.  0.
         25    1    3    3    0    0  0.87024734857E+02 -0.71207013846E+02  0.40949866756E+03  0.44269674737E+03  0.12509000000E+03 0.  0.
         25    1    4    4    0    0 -0.16908797750E+02  0.28227754608E+02  0.24926056812E+03  0.28082210115E+03  0.12509000000E+03 0.  0.
         25    1    4    4    0    0 -0.70115937106E+02  0.42979259238E+02  0.46628033570E+03  0.48972269798E+03  0.12509000000E+03 0.  0.
<mgrwt>
<rscale>  2 0.45413766E+03</rscale>
<asrwt>0</asrwt>
<pdfrwt beam="1">  1       21 0.17193242E+00 0.45413766E+03</pdfrwt>
<pdfrwt beam="2">  1       21 0.64854401E-02 0.45413766E+03</pdfrwt>
<totfact> 0.31953146E+04</totfact>
</mgrwt>
</event>
<event>
 7    0  0.4779893E-002  0.4636718E+03  0.7546771E-02  0.1023722E+00
         21   -1    0    0  502  501  0.00000000000E+00  0.00000000000E+00  0.40345882922E+03  0.40345882922E+03  0.00000000000E+00 0.  1.
         21   -1    0    0  501  502 -0.00000000000E+00 -0.00000000000E+00 -0.13321777068E+03  0.13321777068E+03  0.00000000000E+00 0.  1.
      99926    2    1    2    0    0  0.00000000000E+00  0.35527136788E-14  0.27024105854E+03  0.53667659990E+03  0.46367180544E+03 0.  0.
      99925    2    3    3    0    0  0.10440596007E+03  0.24270274736E+02  0.10327958550E+03  0.30212747432E+03  0.26291574168E+03 0.  0.
         25    1    4    4    0    0  0.59365651316E+02  0.47843137180E+02  0.34097702603E+02  0.15041079667E+03  0.12509000000E+03 0.  0.
         25    1    4    4    0    0  0.45040308752E+02 -0.23572862444E+02  0.69181882899E+02  0.15171667765E+03  0.12509000000E+03 0.  0.
         25    1    3    3    0    0 -0.10440596007E+03 -0.24270274736E+02  0.16696147304E+03  0.23454912558E+03  0.12509000000E+03 0.  0.
<mgrwt>
<rscale>  2 0.46367181E+03</rscale>
<asrwt>0</asrwt>
<pdfrwt beam="1">  1       21 0.59332180E-01 0.46367181E+03</pdfrwt>
<pdfrwt beam="2">  1       21 0.19590849E-01 0.46367181E+03</pdfrwt>
<totfact> 0.58622839E+04</totfact>
</mgrwt>
</event>
<event>
 7    0  0.4779893E-002  0.4235441E+03  0.7546771E-02  0.1035919E+00
         21   -1    0    0  502  501  0.00000000000E+00  0.00000000000E+00  0.12475207827E+04  0.12475207827E+04  0.00000000000E+00 0. -1.
         21   -1    0    0  501  502 -0.00000000000E+00 -0.00000000000E+00 -0.35949229638E+02  0.35949229638E+02  0.00000000000E+00 0. -1.
      99926    2    1    2    0    0  0.00000000000E+00 -0.71054273576E-14  0.12115715530E+04  0.12834700123E+04  0.42354414690E+03 0.  0.
      99925    2    3    3    0    0 -0.56800582544E+02  0.53328098246E+02  0.72832895209E+03  0.77825608563E+03  0.26296250709E+03 0.  0.
         25    1    3    3    0    0  0.56800582544E+02 -0.53328098246E+02  0.48324260093E+03  0.50521392666E+03  0.12509000000E+03 0.  0.
         25    1    4    4    0    0  0.74771768133E+01  0.45458121919E+01  0.33014423759E+03  0.35315619532E+03  0.12509000000E+03 0.  0.
         25    1    4    4    0    0 -0.64277759357E+02  0.48782286054E+02  0.39818471450E+03  0.42509989031E+03  0.12509000000E+03 0.  0.
<mgrwt>
<rscale>  2 0.42354415E+03</rscale>
<asrwt>0</asrwt>
<pdfrwt beam="1">  1       21 0.18345891E+00 0.42354415E+03</pdfrwt>
<pdfrwt beam="2">  1       21 0.52866522E-02 0.42354415E+03</pdfrwt>
<totfact> 0.38102778E+04</totfact>
</mgrwt>
</event>
<event>
 7    0  0.4779893E-002  0.4577147E+03  0.7546771E-02  0.1025446E+00
         21   -1    0    0  502  501  0.00000000000E+00  0.00000000000E+00  0.18471905128E+03  0.18471905128E+03  0.00000000000E+00 0. -1.
         21   -1    0    0  501  502 -0.00000000000E+00 -0.00000000000E+00 -0.28354246865E+03  0.28354246865E+03  0.00000000000E+00 0. -1.
      99926    2    1    2    0    0  0.00000000000E+00 -0.71054273576E-14 -0.98823417371E+02  0.46826151993E+03  0.45771474002E+03 0.  0.
      99925    2    3    3    0    0  0.79724941701E+02  0.39465763321E+02 -0.13778195195E+03  0.30989836664E+03  0.26294394566E+03 0.  0.
         25    1    3    3    0    0 -0.79724941701E+02 -0.39465763321E+02  0.38958534581E+02  0.15836315329E+03  0.12509000000E+03 0.  0.
         25    1    4    4    0    0  0.33642023392E+02  0.41087680603E+02 -0.31747268229E+02  0.13955422020E+03  0.12509000000E+03 0.  0.
         25    1    4    4    0    0  0.46082918309E+02 -0.16219172819E+01 -0.10603468372E+03  0.17034414644E+03  0.12509000000E+03 0.  0.
<mgrwt>
<rscale>  2 0.45771474E+03</rscale>
<asrwt>0</asrwt>
<pdfrwt beam="1">  1       21 0.27164567E-01 0.45771474E+03</pdfrwt>
<pdfrwt beam="2">  1       21 0.41697422E-01 0.45771474E+03</pdfrwt>
<totfact> 0.66130209E+04</totfact>
</mgrwt>
</event>
<event>
 7    0  0.4779893E-002  0.4568910E+03  0.7546771E-02  0.1025687E+00
         21   -1    0    0  502  501  0.00000000000E+00  0.00000000000E+00  0.12141595870E+04  0.12141595870E+04  0.00000000000E+00 0.  1.
         21   -1    0    0  501  502 -0.00000000000E+00 -0.00000000000E+00 -0.42982274768E+02  0.42982274768E+02  0.00000000000E+00 0.  1.
      99926    2    1    2    0    0 -0.71054273576E-14  0.00000000000E+00  0.11711773122E+04  0.12571418618E+04  0.45689097597E+03 0.  0.
      99925    2    3    3    0    0  0.63248584681E+02  0.72702552280E+02  0.90814434548E+03  0.95035220374E+03  0.26297740275E+03 0.  0.
         25    1    3    3    0    0 -0.63248584681E+02 -0.72702552280E+02  0.26303296674E+03  0.30678965802E+03  0.12509000000E+03 0.  0.
         25    1    4    4    0    0  0.60512790602E+02  0.11001248178E+02  0.49742254195E+03  0.51658447385E+03  0.12509000000E+03 0.  0.
         25    1    4    4    0    0  0.27357940787E+01  0.61701304102E+02  0.41072180353E+03  0.43376772989E+03  0.12509000000E+03 0.  0.
<mgrwt>
<rscale>  2 0.45689098E+03</rscale>
<asrwt>0</asrwt>
<pdfrwt beam="1">  1       21 0.17855286E+00 0.45689098E+03</pdfrwt>
<pdfrwt beam="2">  1       21 0.63209235E-02 0.45689098E+03</pdfrwt>
<totfact> 0.29942062E+04</totfact>
</mgrwt>
</event>
<event>
 7    0  0.4779893E-002  0.4611538E+03  0.7546771E-02  0.1024447E+00
         21   -1    0    0  502  501  0.00000000000E+00  0.00000000000E+00  0.86454526231E+03  0.86454526231E+03  0.00000000000E+00 0. -1.
         21   -1    0    0  501  502 -0.00000000000E+00 -0.00000000000E+00 -0.61495568289E+02  0.61495568289E+02  0.00000000000E+00 0. -1.
      99926    2    1    2    0    0  0.14210854715E-13  0.00000000000E+00  0.80304969402E+03  0.92604083060E+03  0.46115378007E+03 0.  0.
      99925    2    3    3    0    0 -0.10284657584E+03  0.59117735341E+02  0.51647789786E+03  0.59161112611E+03  0.26302467710E+03 0.  0.
         25    1    4    4    0    0 -0.21402308181E+02  0.51942570142E+02  0.21279619495E+03  0.25315176885E+03  0.12509000000E+03 0.  0.
         25    1    4    4    0    0 -0.81444267654E+02  0.71751651982E+01  0.30368170291E+03  0.33845935725E+03  0.12509000000E+03 0.  0.
         25    1    3    3    0    0  0.10284657584E+03 -0.59117735341E+02  0.28657179616E+03  0.33442970449E+03  0.12509000000E+03 0.  0.
<mgrwt>
<rscale>  2 0.46115378E+03</rscale>
<asrwt>0</asrwt>
<pdfrwt beam="1">  1       21 0.12713900E+00 0.46115378E+03</pdfrwt>
<pdfrwt beam="2">  1       21 0.90434664E-02 0.46115378E+03</pdfrwt>
<totfact> 0.40157742E+04</totfact>
</mgrwt>
</event>
<event>
 7    0  0.4779893E-002  0.4594428E+03  0.7546771E-02  0.1024943E+00
         21   -1    0    0  502  501  0.00000000000E+00  0.00000000000E+00  0.25181754947E+04  0.25181754947E+04  0.00000000000E+00 0. -1.
         21   -1    0    0  501  502 -0.00000000000E+00 -0.00000000000E+00 -0.20956407315E+02  0.20956407315E+02  0.00000000000E+00 0. -1.
      99926    2    1    2    0    0  0.14210854715E-13  0.35527136788E-14  0.24972190874E+04  0.25391319020E+04  0.45944275533E+03 0.  0.
      99925    2    3    3    0    0 -0.10831783903E+03 -0.16831898950E+02  0.13339104059E+04  0.13639933299E+04  0.26295392383E+03 0.  0.
         25    1    4    4    0    0 -0.78657636238E+02 -0.35718639296E+02  0.62088329270E+03  0.63922329133E+03  0.12509000000E+03 0.  0.
         25    1    3    3    0    0  0.10831783903E+03  0.16831898950E+02  0.11633086815E+04  0.11751385721E+04  0.12509000000E+03 0.  0.
         25    1    4    4    0    0 -0.29660202792E+02  0.18886740346E+02  0.71302711317E+03  0.72477003857E+03  0.12509000000E+03 0.  0.
<mgrwt>
<rscale>  2 0.45944276E+03</rscale>
<asrwt>0</asrwt>
<pdfrwt beam="1">  1       21 0.37031972E+00 0.45944276E+03</pdfrwt>
<pdfrwt beam="2">  1       21 0.30818263E-02 0.45944276E+03</pdfrwt>
<totfact> 0.65118121E+03</totfact>
</mgrwt>
</event>
<event>
 7    0  0.4779893E-002  0.4593854E+03  0.7546771E-02  0.1024960E+00
         21   -1    0    0  502  501  0.00000000000E+00  0.00000000000E+00  0.16031914723E+03  0.16031914723E+03  0.00000000000E+00 0.  1.
         21   -1    0    0  501  502 -0.00000000000E+00 -0.00000000000E+00 -0.32908565317E+03  0.32908565317E+03  0.00000000000E+00 0.  1.
      99926    2    1    2    0    0  0.00000000000E+00  0.00000000000E+00 -0.16876650594E+03  0.48940480041E+03  0.45938537758E+03 0.  0.
      99925    2    3    3    0    0  0.71898067411E+02  0.33343009921E+02 -0.19788824671E+03  0.33848537722E+03  0.26292870516E+03 0.  0.
         25    1    4    4    0    0  0.46521036214E+02  0.11702787872E+02 -0.14829911735E+03  0.19985319202E+03  0.12509000000E+03 0.  0.
         25    1    4    4    0    0  0.25377031197E+02  0.21640222049E+02 -0.49589129358E+02  0.13863218520E+03  0.12509000000E+03 0.  0.
         25    1    3    3    0    0 -0.71898067411E+02 -0.33343009921E+02  0.29121740770E+02  0.15091942318E+03  0.12509000000E+03 0.  0.
<mgrwt>
<rscale>  2 0.45938538E+03</rscale>
<asrwt>0</asrwt>
<pdfrwt beam="1">  1       21 0.23576345E-01 0.45938538E+03</pdfrwt>
<pdfrwt beam="2">  1       21 0.48394949E-01 0.45938538E+03</pdfrwt>
<totfact> 0.63772392E+04</totfact>
</mgrwt>
</event>
<event>
 7    0  0.4779893E-002  0.4584230E+03  0.7546771E-02  0.1025240E+00
         21   -1    0    0  502  501  0.00000000000E+00  0.00000000000E+00  0.13198754638E+04  0.13198754638E+04  0.00000000000E+00 0.  1.
         21   -1    0    0  501  502 -0.00000000000E+00 -0.00000000000E+00 -0.39805202817E+02  0.39805202817E+02  0.00000000000E+00 0.  1.
      99926    2    1    2    0    0  0.14210854715E-13  0.14210854715E-13  0.12800702610E+04  0.13596806667E+04  0.45842299476E+03 0.  0.
      99925    2    3    3    0    0  0.80760380584E+02  0.77109200490E+02  0.89805213870E+03  0.94248356485E+03  0.26326708552E+03 0.  0.
         25    1    4    4    0    0  0.11315699893E+02  0.31072842817E+02  0.31893910931E+03  0.34418487789E+03  0.12509000000E+03 0.  0.
         25    1    3    3    0    0 -0.80760380584E+02 -0.77109200490E+02  0.38201812233E+03  0.41719710181E+03  0.12509000000E+03 0.  0.
         25    1    4    4    0    0  0.69444680691E+02  0.46036357673E+02  0.57911302940E+03  0.59829868696E+03  0.12509000000E+03 0.  0.
<mgrwt>
<rscale>  2 0.45842299E+03</rscale>
<asrwt>0</asrwt>
<pdfrwt beam="1">  1       21 0.19409930E+00 0.45842299E+03</pdfrwt>
<pdfrwt beam="2">  1       21 0.58537072E-02 0.45842299E+03</pdfrwt>
<totfact> 0.26708820E+04</totfact>
</mgrwt>
</event>
<event>
 7    0  0.4779893E-002  0.4793573E+03  0.7546771E-02  0.1019312E+00
         21   -1    0    0  502  501  0.00000000000E+00  0.00000000000E+00  0.47747675023E+03  0.47747675023E+03  0.00000000000E+00 0.  1.
         21   -1    0    0  501  502 -0.00000000000E+00 -0.00000000000E+00 -0.12031132806E+03  0.12031132806E+03  0.00000000000E+00 0.  1.
      99926    2    1    2    0    0  0.00000000000E+00  0.00000000000E+00  0.35716542217E+03  0.59778807829E+03  0.47935732784E+03 0.  0.
      99925    2    3    3    0    0  0.13232753936E+03 -0.86074938697E+01  0.19043652883E+03  0.35074415792E+03  0.26300328168E+03 0.  0.
         25    1    4    4    0    0  0.10648877780E+03 -0.10786478431E+02  0.12809304934E+03  0.20859421206E+03  0.12509000000E+03 0.  0.
         25    1    4    4    0    0  0.25838761561E+02  0.21789845612E+01  0.62343479493E+02  0.14214994586E+03  0.12509000000E+03 0.  0.
         25    1    3    3    0    0 -0.13232753936E+03  0.86074938697E+01  0.16672889334E+03  0.24704392038E+03  0.12509000000E+03 0.  0.
<mgrwt>
<rscale>  2 0.47935733E+03</rscale>
<asrwt>0</asrwt>
<pdfrwt beam="1">  1       21 0.70217169E-01 0.47935733E+03</pdfrwt>
<pdfrwt beam="2">  1       21 0.17692842E-01 0.47935733E+03</pdfrwt>
<totfact> 0.48734191E+04</totfact>
</mgrwt>
</event>
<event>
 7    0  0.4779893E-002  0.4527179E+03  0.7546771E-02  0.1026915E+00
         21   -1    0    0  502  501  0.00000000000E+00  0.00000000000E+00  0.43778876441E+03  0.43778876441E+03  0.00000000000E+00 0.  1.
         21   -1    0    0  501  502 -0.00000000000E+00 -0.00000000000E+00 -0.11703901054E+03  0.11703901054E+03  0.00000000000E+00 0.  1.
      99926    2    1    2    0    0  0.00000000000E+00 -0.14210854715E-13  0.32074975387E+03  0.55482777495E+03  0.45271785392E+03 0.  0.
      99925    2    3    3    0    0  0.35607172242E+02 -0.83303221963E+02  0.28089185120E+03  0.39531771881E+03  0.26299918105E+03 0.  0.
         25    1    4    4    0    0  0.63090584222E+01 -0.44665354283E+02  0.84761368273E+02  0.15769209157E+03  0.12509000000E+03 0.  0.
         25    1    3    3    0    0 -0.35607172242E+02  0.83303221963E+02  0.39857902671E+02  0.15951005614E+03  0.12509000000E+03 0.  0.
         25    1    4    4    0    0  0.29298113820E+02 -0.38637867680E+02  0.19613048292E+03  0.23762562725E+03  0.12509000000E+03 0.  0.
<mgrwt>
<rscale>  2 0.45271785E+03</rscale>
<asrwt>0</asrwt>
<pdfrwt beam="1">  1       21 0.64380700E-01 0.45271785E+03</pdfrwt>
<pdfrwt beam="2">  1       21 0.17211619E-01 0.45271785E+03</pdfrwt>
<totfact> 0.62672448E+04</totfact>
</mgrwt>
</event>
<event>
 7    0  0.4779893E-002  0.4586580E+03  0.7546771E-02  0.1025171E+00
         21   -1    0    0  502  501  0.00000000000E+00  0.00000000000E+00  0.37936127371E+03  0.37936127371E+03  0.00000000000E+00 0.  1.
         21   -1    0    0  501  502 -0.00000000000E+00 -0.00000000000E+00 -0.13863247803E+03  0.13863247803E+03  0.00000000000E+00 0.  1.
      99926    2    1    2    0    0  0.00000000000E+00  0.00000000000E+00  0.24072879567E+03  0.51799375174E+03  0.45865801397E+03 0.  0.
      99925    2    3    3    0    0 -0.97021675551E+02  0.39397955171E+02  0.20871459860E+03  0.35174748468E+03  0.26305722744E+03 0.  0.
         25    1    3    3    0    0  0.97021675551E+02 -0.39397955171E+02  0.32014197068E+02  0.16624626706E+03  0.12509000000E+03 0.  0.
         25    1    4    4    0    0 -0.37983162282E+02  0.58939623534E+02  0.10851235321E+03  0.17983058344E+03  0.12509000000E+03 0.  0.
         25    1    4    4    0    0 -0.59038513269E+02 -0.19541668364E+02  0.10020224539E+03  0.17191690124E+03  0.12509000000E+03 0.  0.
<mgrwt>
<rscale>  2 0.45865801E+03</rscale>
<asrwt>0</asrwt>
<pdfrwt beam="1">  1       21 0.55788423E-01 0.45865801E+03</pdfrwt>
<pdfrwt beam="2">  1       21 0.20387129E-01 0.45865801E+03</pdfrwt>
<totfact> 0.62199084E+04</totfact>
</mgrwt>
</event>
<event>
 7    0  0.4779893E-002  0.4526685E+03  0.7546771E-02  0.1026929E+00
         21   -1    0    0  502  501  0.00000000000E+00  0.00000000000E+00  0.23950397986E+03  0.23950397986E+03  0.00000000000E+00 0.  1.
         21   -1    0    0  501  502 -0.00000000000E+00 -0.00000000000E+00 -0.21388866917E+03  0.21388866917E+03  0.00000000000E+00 0.  1.
      99926    2    1    2    0    0  0.14210854715E-13  0.35527136788E-14  0.25615310690E+02  0.45339264904E+03  0.45266847699E+03 0.  0.
      99925    2    3    3    0    0  0.10781877032E+03 -0.25005948143E+02  0.12027993165E+02  0.28581488210E+03  0.26323998468E+03 0.  0.
         25    1    3    3    0    0 -0.10781877032E+03  0.25005948143E+02  0.13587317525E+02  0.16757776694E+03  0.12509000000E+03 0.  0.
         25    1    4    4    0    0  0.92497246842E+02 -0.33646991598E+02  0.98505054788E+01  0.15947539395E+03  0.12509000000E+03 0.  0.
         25    1    4    4    0    0  0.15321523474E+02  0.86410434542E+01  0.21774876863E+01  0.12633948815E+03  0.12509000000E+03 0.  0.
<mgrwt>
<rscale>  2 0.45266848E+03</rscale>
<asrwt>0</asrwt>
<pdfrwt beam="1">  1       21 0.35221174E-01 0.45266848E+03</pdfrwt>
<pdfrwt beam="2">  1       21 0.31454216E-01 0.45266848E+03</pdfrwt>
<totfact> 0.69956090E+04</totfact>
</mgrwt>
</event>
<event>
 7    0  0.4779893E-002  0.4571862E+03  0.7546771E-02  0.1025600E+00
         21   -1    0    0  502  501  0.00000000000E+00  0.00000000000E+00  0.68861329602E+02  0.68861329602E+02  0.00000000000E+00 0. -1.
         21   -1    0    0  501  502 -0.00000000000E+00 -0.00000000000E+00 -0.75884110498E+03  0.75884110498E+03  0.00000000000E+00 0. -1.
      99926    2    1    2    0    0 -0.14210854715E-13  0.71054273576E-14 -0.68997977537E+03  0.82770243458E+03  0.45718620909E+03 0.  0.
      99925    2    3    3    0    0  0.98123587095E+02 -0.33176281830E+02 -0.52473848344E+03  0.59601062056E+03  0.26296250646E+03 0.  0.
         25    1    3    3    0    0 -0.98123587095E+02  0.33176281830E+02 -0.16524129194E+03  0.23169181402E+03  0.12509000000E+03 0.  0.
         25    1    4    4    0    0  0.16044637265E+02 -0.13089785881E+02 -0.29525166839E+03  0.32132511365E+03  0.12509000000E+03 0.  0.
         25    1    4    4    0    0  0.82078949830E+02 -0.20086495948E+02 -0.22948681505E+03  0.27468550691E+03  0.12509000000E+03 0.  0.
<mgrwt>
<rscale>  2 0.45718621E+03</rscale>
<asrwt>0</asrwt>
<pdfrwt beam="1">  1       21 0.10126667E-01 0.45718621E+03</pdfrwt>
<pdfrwt beam="2">  1       21 0.11159427E+00 0.45718621E+03</pdfrwt>
<totfact> 0.45665515E+04</totfact>
</mgrwt>
</event>
<event>
 7    0  0.4779893E-002  0.4352959E+03  0.7546771E-02  0.1032200E+00
         21   -1    0    0  502  501  0.00000000000E+00  0.00000000000E+00  0.34152738945E+02  0.34152738945E+02  0.00000000000E+00 0.  1.
         21   -1    0    0  501  502 -0.00000000000E+00 -0.00000000000E+00 -0.13870228870E+04  0.13870228870E+04  0.00000000000E+00 0.  1.
      99926    2    1    2    0    0  0.71054273576E-14  0.00000000000E+00 -0.13528701481E+04  0.14211756259E+04  0.43529590198E+03 0.  0.
      99925    2    3    3    0    0  0.42336609636E+02 -0.31931762586E+02 -0.11189258415E+04  0.11506400966E+04  0.26299347350E+03 0.  0.
         25    1    4    4    0    0  0.27619482377E+02  0.16802585584E+02 -0.44807448981E+03  0.46632973228E+03  0.12509000000E+03 0.  0.
         25    1    3    3    0    0 -0.42336609636E+02  0.31931762586E+02 -0.23394430653E+03  0.27053552934E+03  0.12509000000E+03 0.  0.
         25    1    4    4    0    0  0.14717127260E+02 -0.48734348170E+02 -0.67085135171E+03  0.68431036432E+03  0.12509000000E+03 0.  0.
<mgrwt>
<rscale>  2 0.43529590E+03</rscale>
<asrwt>0</asrwt>
<pdfrwt beam="1">  1       21 0.50224621E-02 0.43529590E+03</pdfrwt>
<pdfrwt beam="2">  1       21 0.20397394E+00 0.43529590E+03</pdfrwt>
<totfact> 0.30129035E+04</totfact>
</mgrwt>
</event>
<event>
 7    0  0.4779893E-002  0.4775380E+03  0.7546771E-02  0.1019814E+00
         21   -1    0    0  502  501  0.00000000000E+00  0.00000000000E+00  0.42428100806E+03  0.42428100806E+03  0.00000000000E+00 0.  1.
         21   -1    0    0  501  502 -0.00000000000E+00 -0.00000000000E+00 -0.13437001882E+03  0.13437001882E+03  0.00000000000E+00 0.  1.
      99926    2    1    2    0    0  0.00000000000E+00  0.71054273576E-14  0.28991098925E+03  0.55865102688E+03  0.47753804890E+03 0.  0.
      99925    2    3    3    0    0 -0.12076286089E+03  0.50216558538E+02  0.20830511592E+03  0.36012546685E+03  0.26304744674E+03 0.  0.
         25    1    4    4    0    0 -0.49851524395E+02  0.36200109759E+02  0.56184057693E+02  0.15033222831E+03  0.12509000000E+03 0.  0.
         25    1    4    4    0    0 -0.70911336499E+02  0.14016448779E+02  0.15212105822E+03  0.20979323854E+03  0.12509000000E+03 0.  0.
         25    1    3    3    0    0  0.12076286089E+03 -0.50216558538E+02  0.81605873330E+02  0.19852556003E+03  0.12509000000E+03 0.  0.
<mgrwt>
<rscale>  2 0.47753805E+03</rscale>
<asrwt>0</asrwt>
<pdfrwt beam="1">  1       21 0.62394265E-01 0.47753805E+03</pdfrwt>
<pdfrwt beam="2">  1       21 0.19760297E-01 0.47753805E+03</pdfrwt>
<totfact> 0.51481794E+04</totfact>
</mgrwt>
</event>
<event>
 7    0  0.4779893E-002  0.4554035E+03  0.7546771E-02  0.1026123E+00
         21   -1    0    0  502  501  0.00000000000E+00  0.00000000000E+00  0.14450994168E+03  0.14450994168E+03  0.00000000000E+00 0. -1.
         21   -1    0    0  501  502 -0.00000000000E+00 -0.00000000000E+00 -0.35878566307E+03  0.35878566307E+03  0.00000000000E+00 0. -1.
      99926    2    1    2    0    0  0.00000000000E+00 -0.71054273576E-14 -0.21427572138E+03  0.50329560475E+03  0.45540353642E+03 0.  0.
      99925    2    3    3    0    0  0.68629144754E+02 -0.48199874456E+02 -0.50025164348E+02  0.28045274309E+03  0.26290309361E+03 0.  0.
         25    1    3    3    0    0 -0.68629144754E+02  0.48199874456E+02 -0.16425055704E+03  0.22284286166E+03  0.12509000000E+03 0.  0.
         25    1    4    4    0    0  0.38170372336E+02  0.16472479232E+02 -0.20928084580E+02  0.13346839596E+03  0.12509000000E+03 0.  0.
         25    1    4    4    0    0  0.30458772418E+02 -0.64672353688E+02 -0.29097079768E+02  0.14698434712E+03  0.12509000000E+03 0.  0.
<mgrwt>
<rscale>  2 0.45540354E+03</rscale>
<asrwt>0</asrwt>
<pdfrwt beam="1">  1       21 0.21251462E-01 0.45540354E+03</pdfrwt>
<pdfrwt beam="2">  1       21 0.52762596E-01 0.45540354E+03</pdfrwt>
<totfact> 0.64831839E+04</totfact>
</mgrwt>
</event>
<event>
 7    0  0.4779893E-002  0.4564460E+03  0.7546771E-02  0.1025817E+00
         21   -1    0    0  502  501  0.00000000000E+00  0.00000000000E+00  0.19052245011E+03  0.19052245011E+03  0.00000000000E+00 0.  1.
         21   -1    0    0  501  502 -0.00000000000E+00 -0.00000000000E+00 -0.27338375128E+03  0.27338375128E+03  0.00000000000E+00 0.  1.
      99926    2    1    2    0    0  0.00000000000E+00  0.00000000000E+00 -0.82861301167E+02  0.46390620138E+03  0.45644601921E+03 0.  0.
      99925    2    3    3    0    0  0.22514816365E+02 -0.61210901768E+02  0.43616443210E+02  0.27443900271E+03  0.26298418325E+03 0.  0.
         25    1    3    3    0    0 -0.22514816365E+02  0.61210901768E+02 -0.12647774438E+03  0.18946719867E+03  0.12509000000E+03 0.  0.
         25    1    4    4    0    0 -0.79215869319E+01 -0.46456085708E+02 -0.10339740811E+02  0.13407213647E+03  0.12509000000E+03 0.  0.
         25    1    4    4    0    0  0.30436403297E+02 -0.14754816060E+02  0.53956184020E+02  0.14036686624E+03  0.12509000000E+03 0.  0.
<mgrwt>
<rscale>  2 0.45644602E+03</rscale>
<asrwt>0</asrwt>
<pdfrwt beam="1">  1       21 0.28018007E-01 0.45644602E+03</pdfrwt>
<pdfrwt beam="2">  1       21 0.40203493E-01 0.45644602E+03</pdfrwt>
<totfact> 0.67116583E+04</totfact>
</mgrwt>
</event>
<event>
 7    0  0.4779893E-002  0.4347053E+03  0.7546771E-02  0.1032384E+00
         21   -1    0    0  502  501  0.00000000000E+00  0.00000000000E+00  0.85760418657E+03  0.85760418657E+03  0.00000000000E+00 0. -1.
         21   -1    0    0  501  502 -0.00000000000E+00 -0.00000000000E+00 -0.55086223571E+02  0.55086223571E+02  0.00000000000E+00 0. -1.
      99926    2    1    2    0    0  0.00000000000E+00  0.00000000000E+00  0.80251796300E+03  0.91269041014E+03  0.43470530688E+03 0.  0.
      99925    2    3    3    0    0  0.66641942858E+02 -0.14233216371E+02  0.64750301996E+03  0.70216517730E+03  0.26292972895E+03 0.  0.
         25    1    3    3    0    0 -0.66641942858E+02  0.14233216371E+02  0.15501494304E+03  0.21052523284E+03  0.12509000000E+03 0.  0.
         25    1    4    4    0    0  0.11727917113E+02 -0.40182467033E+02  0.33958598060E+03  0.36430525802E+03  0.12509000000E+03 0.  0.
         25    1    4    4    0    0  0.54914025745E+02  0.25949250662E+02  0.30791703936E+03  0.33785991929E+03  0.12509000000E+03 0.  0.
<mgrwt>
<rscale>  2 0.43470531E+03</rscale>
<asrwt>0</asrwt>
<pdfrwt beam="1">  1       21 0.12611826E+00 0.43470531E+03</pdfrwt>
<pdfrwt beam="2">  1       21 0.81009157E-02 0.43470531E+03</pdfrwt>
<totfact> 0.50197974E+04</totfact>
</mgrwt>
</event>
<event>
 7    0  0.4779893E-002  0.4283811E+03  0.7546771E-02  0.1034373E+00
         21   -1    0    0  502  501  0.00000000000E+00  0.00000000000E+00  0.71114542033E+03  0.71114542033E+03  0.00000000000E+00 0. -1.
         21   -1    0    0  501  502 -0.00000000000E+00 -0.00000000000E+00 -0.64512236632E+02  0.64512236632E+02  0.00000000000E+00 0. -1.
      99926    2    1    2    0    0  0.71054273576E-14  0.00000000000E+00  0.64663318370E+03  0.77565765696E+03  0.42838105297E+03 0.  0.
      99925    2    3    3    0    0 -0.35374186738E+02 -0.77496731520E+02  0.39886876658E+03  0.48532717119E+03  0.26303819808E+03 0.  0.
         25    1    4    4    0    0 -0.42870574147E+02 -0.69722058172E+02  0.19191445421E+03  0.24326470636E+03  0.12509000000E+03 0.  0.
         25    1    4    4    0    0  0.74963874099E+01 -0.77746733478E+01  0.20695431237E+03  0.24206246483E+03  0.12509000000E+03 0.  0.
         25    1    3    3    0    0  0.35374186738E+02  0.77496731520E+02  0.24776441711E+03  0.29033048578E+03  0.12509000000E+03 0.  0.
<mgrwt>
<rscale>  2 0.42838105E+03</rscale>
<asrwt>0</asrwt>
<pdfrwt beam="1">  1       21 0.10458020E+00 0.42838105E+03</pdfrwt>
<pdfrwt beam="2">  1       21 0.94870940E-02 0.42838105E+03</pdfrwt>
<totfact> 0.60686494E+04</totfact>
</mgrwt>
</event>
<event>
 7    0  0.4779893E-002  0.4236877E+03  0.7546771E-02  0.1035873E+00
         21   -1    0    0  502  501  0.00000000000E+00  0.00000000000E+00  0.10952288890E+03  0.10952288890E+03  0.00000000000E+00 0. -1.
         21   -1    0    0  501  502 -0.00000000000E+00 -0.00000000000E+00 -0.40975750007E+03  0.40975750007E+03  0.00000000000E+00 0. -1.
      99926    2    1    2    0    0  0.35527136788E-14  0.00000000000E+00 -0.30023461117E+03  0.51928038897E+03  0.42368773952E+03 0.  0.
      99925    2    3    3    0    0  0.29963190694E+02  0.74157764014E+02 -0.18417041092E+03  0.33082462907E+03  0.26292399696E+03 0.  0.
         25    1    4    4    0    0 -0.20682702106E+01 -0.76964812601E+00 -0.93105289594E+02  0.15595182958E+03  0.12509000000E+03 0.  0.
         25    1    4    4    0    0  0.32031460904E+02  0.74927412140E+02 -0.91065121324E+02  0.17487279948E+03  0.12509000000E+03 0.  0.
         25    1    3    3    0    0 -0.29963190694E+02 -0.74157764014E+02 -0.11606420026E+03  0.18845575990E+03  0.12509000000E+03 0.  0.
<mgrwt>
<rscale>  2 0.42368774E+03</rscale>
<asrwt>0</asrwt>
<pdfrwt beam="1">  1       21 0.16106307E-01 0.42368774E+03</pdfrwt>
<pdfrwt beam="2">  1       21 0.60258457E-01 0.42368774E+03</pdfrwt>
<totfact> 0.82594266E+04</totfact>
</mgrwt>
</event>
<event>
 7    0  0.4779893E-002  0.4550623E+03  0.7546771E-02  0.1026223E+00
         21   -1    0    0  502  501  0.00000000000E+00  0.00000000000E+00  0.11505004000E+03  0.11505004000E+03  0.00000000000E+00 0.  1.
         21   -1    0    0  501  502 -0.00000000000E+00 -0.00000000000E+00 -0.44998182788E+03  0.44998182788E+03  0.00000000000E+00 0.  1.
      99926    2    1    2    0    0  0.00000000000E+00  0.71054273576E-14 -0.33493178788E+03  0.56503186788E+03  0.45506231352E+03 0.  0.
      99925    2    3    3    0    0  0.40834930236E+02  0.46453353405E+02 -0.32854778014E+03  0.42534053234E+03  0.26295535561E+03 0.  0.
         25    1    4    4    0    0  0.14806167293E+02  0.63369019310E+02 -0.18063370556E+03  0.22915256682E+03  0.12509000000E+03 0.  0.
         25    1    3    3    0    0 -0.40834930236E+02 -0.46453353405E+02 -0.63840077445E+01  0.13969133554E+03  0.12509000000E+03 0.  0.
         25    1    4    4    0    0  0.26028762942E+02 -0.16915665905E+02 -0.14791407458E+03  0.19618796551E+03  0.12509000000E+03 0.  0.
<mgrwt>
<rscale>  2 0.45506231E+03</rscale>
<asrwt>0</asrwt>
<pdfrwt beam="1">  1       21 0.16919123E-01 0.45506231E+03</pdfrwt>
<pdfrwt beam="2">  1       21 0.66173799E-01 0.45506231E+03</pdfrwt>
<totfact> 0.60853991E+04</totfact>
</mgrwt>
</event>
<event>
 7    0  0.4779893E-002  0.4557110E+03  0.7546771E-02  0.1026033E+00
         21   -1    0    0  502  501  0.00000000000E+00  0.00000000000E+00  0.17816305717E+03  0.17816305717E+03  0.00000000000E+00 0.  1.
         21   -1    0    0  501  502 -0.00000000000E+00 -0.00000000000E+00 -0.29140791733E+03  0.29140791733E+03  0.00000000000E+00 0.  1.
      99926    2    1    2    0    0  0.00000000000E+00  0.00000000000E+00 -0.11324486016E+03  0.46957097449E+03  0.45571098487E+03 0.  0.
      99925    2    3    3    0    0  0.72168270260E+02 -0.56457072987E+02 -0.16286245370E+01  0.27851770318E+03  0.26300912198E+03 0.  0.
         25    1    3    3    0    0 -0.72168270260E+02  0.56457072987E+02 -0.11161623562E+03  0.19105327131E+03  0.12509000000E+03 0.  0.
         25    1    4    4    0    0  0.75934171493E+02 -0.20106592284E+02  0.73377972274E+01  0.14789058395E+03  0.12509000000E+03 0.  0.
         25    1    4    4    0    0 -0.37659012327E+01 -0.36350480703E+02 -0.89664217644E+01  0.13062711923E+03  0.12509000000E+03 0.  0.
<mgrwt>
<rscale>  2 0.45571098E+03</rscale>
<asrwt>0</asrwt>
<pdfrwt beam="1">  1       21 0.26200450E-01 0.45571098E+03</pdfrwt>
<pdfrwt beam="2">  1       21 0.42854105E-01 0.45571098E+03</pdfrwt>
<totfact> 0.67088496E+04</totfact>
</mgrwt>
</event>
<event>
 7    0  0.4779893E-002  0.4552146E+03  0.7546771E-02  0.1026178E+00
         21   -1    0    0  502  501  0.00000000000E+00  0.00000000000E+00  0.67859484529E+03  0.67859484529E+03  0.00000000000E+00 0. -1.
         21   -1    0    0  501  502 -0.00000000000E+00 -0.00000000000E+00 -0.76341700583E+02  0.76341700583E+02  0.00000000000E+00 0. -1.
      99926    2    1    2    0    0  0.00000000000E+00 -0.35527136788E-14  0.60225314471E+03  0.75493654587E+03  0.45521460651E+03 0.  0.
      99925    2    3    3    0    0 -0.88943999810E+02  0.21073576166E+02  0.49029849738E+03  0.56379136055E+03  0.26289342133E+03 0.  0.
         25    1    3    3    0    0  0.88943999810E+02 -0.21073576166E+02  0.11195464732E+03  0.19114518532E+03  0.12509000000E+03 0.  0.
         25    1    4    4    0    0 -0.23684274645E+02 -0.20811504289E+02  0.19434662678E+03  0.23326419146E+03  0.12509000000E+03 0.  0.
         25    1    4    4    0    0 -0.65259725165E+02  0.41885080454E+02  0.29595187060E+03  0.33052716909E+03  0.12509000000E+03 0.  0.
<mgrwt>
<rscale>  2 0.45521461E+03</rscale>
<asrwt>0</asrwt>
<pdfrwt beam="1">  1       21 0.99793357E-01 0.45521461E+03</pdfrwt>
<pdfrwt beam="2">  1       21 0.11226721E-01 0.45521461E+03</pdfrwt>
<totfact> 0.49935450E+04</totfact>
</mgrwt>
</event>
<event>
 7    0  0.4779893E-002  0.4217165E+03  0.7546771E-02  0.1036509E+00
         21   -1    0    0  502  501  0.00000000000E+00  0.00000000000E+00  0.15160909880E+03  0.15160909880E+03  0.00000000000E+00 0. -1.
         21   -1    0    0  501  502 -0.00000000000E+00 -0.00000000000E+00 -0.29326204338E+03  0.29326204338E+03  0.00000000000E+00 0. -1.
      99926    2    1    2    0    0  0.00000000000E+00 -0.71054273576E-14 -0.14165294458E+03  0.44487114217E+03  0.42171646450E+03 0.  0.
      99925    2    3    3    0    0  0.44135108085E+02  0.63886479998E+02 -0.84801262602E+02  0.28704525096E+03  0.26301013644E+03 0.  0.
         25    1    4    4    0    0  0.60390647122E+02  0.18296198370E+02 -0.43663139205E+02  0.14675066937E+03  0.12509000000E+03 0.  0.
         25    1    4    4    0    0 -0.16255539038E+02  0.45590281627E+02 -0.41138123397E+02  0.14029458159E+03  0.12509000000E+03 0.  0.
         25    1    3    3    0    0 -0.44135108085E+02 -0.63886479998E+02 -0.56851681980E+02  0.15782589121E+03  0.12509000000E+03 0.  0.
<mgrwt>
<rscale>  2 0.42171646E+03</rscale>
<asrwt>0</asrwt>
<pdfrwt beam="1">  1       21 0.22295456E-01 0.42171646E+03</pdfrwt>
<pdfrwt beam="2">  1       21 0.43126770E-01 0.42171646E+03</pdfrwt>
<totfact> 0.91143632E+04</totfact>
</mgrwt>
</event>
<event>
 7    0  0.4779893E-002  0.4559439E+03  0.7546771E-02  0.1025964E+00
         21   -1    0    0  502  501  0.00000000000E+00  0.00000000000E+00  0.19028255026E+03  0.19028255026E+03  0.00000000000E+00 0. -1.
         21   -1    0    0  501  502 -0.00000000000E+00 -0.00000000000E+00 -0.27312656159E+03  0.27312656159E+03  0.00000000000E+00 0. -1.
      99926    2    1    2    0    0  0.00000000000E+00  0.00000000000E+00 -0.82844011326E+02  0.46340911185E+03  0.45594393815E+03 0.  0.
      99925    2    3    3    0    0  0.20050360430E+02  0.10233851917E+03 -0.39361862862E+01  0.28244187059E+03  0.26245519091E+03 0.  0.
         25    1    3    3    0    0 -0.20050360430E+02 -0.10233851917E+03 -0.78907825039E+02  0.18096724127E+03  0.12509000000E+03 0.  0.
         25    1    4    4    0    0  0.87346749755E+01  0.82106659907E+02 -0.29292255444E+02  0.15271981691E+03  0.12509000000E+03 0.  0.
         25    1    4    4    0    0  0.11315685454E+02  0.20231859265E+02  0.25356069158E+02  0.12972205368E+03  0.12509000000E+03 0.  0.
<mgrwt>
<rscale>  2 0.45594394E+03</rscale>
<asrwt>0</asrwt>
<pdfrwt beam="1">  1       21 0.27982728E-01 0.45594394E+03</pdfrwt>
<pdfrwt beam="2">  1       21 0.40165671E-01 0.45594394E+03</pdfrwt>
<totfact> 0.67421061E+04</totfact>
</mgrwt>
</event>
<event>
 7    0  0.4779893E-002  0.4544835E+03  0.7546771E-02  0.1026393E+00
         21   -1    0    0  502  501  0.00000000000E+00  0.00000000000E+00  0.79342513143E+02  0.79342513143E+02  0.00000000000E+00 0. -1.
         21   -1    0    0  501  502 -0.00000000000E+00 -0.00000000000E+00 -0.65083418952E+03  0.65083418952E+03  0.00000000000E+00 0. -1.
      99926    2    1    2    0    0 -0.14210854715E-13  0.14210854715E-13 -0.57149167638E+03  0.73017670267E+03  0.45448353210E+03 0.  0.
      99925    2    3    3    0    0 -0.68802563228E+02  0.74855458705E+02 -0.43771122116E+03  0.52069674968E+03  0.26305295967E+03 0.  0.
         25    1    4    4    0    0 -0.73404359041E+02  0.32247456620E+02 -0.25555601152E+03  0.29560866278E+03  0.12509000000E+03 0.  0.
         25    1    3    3    0    0  0.68802563228E+02 -0.74855458705E+02 -0.13378045522E+03  0.20947995299E+03  0.12509000000E+03 0.  0.
         25    1    4    4    0    0  0.46017958130E+01  0.42608002085E+02 -0.18215520964E+03  0.22508808690E+03  0.12509000000E+03 0.  0.
<mgrwt>
<rscale>  2 0.45448353E+03</rscale>
<asrwt>0</asrwt>
<pdfrwt beam="1">  1       21 0.11668017E-01 0.45448353E+03</pdfrwt>
<pdfrwt beam="2">  1       21 0.95710907E-01 0.45448353E+03</pdfrwt>
<totfact> 0.51503881E+04</totfact>
</mgrwt>
</event>
<event>
 7    0  0.4779893E-002  0.4564858E+03  0.7546771E-02  0.1025805E+00
         21   -1    0    0  502  501  0.00000000000E+00  0.00000000000E+00  0.64238045090E+03  0.64238045090E+03  0.00000000000E+00 0.  1.
         21   -1    0    0  501  502 -0.00000000000E+00 -0.00000000000E+00 -0.81096521971E+02  0.81096521971E+02  0.00000000000E+00 0.  1.
      99926    2    1    2    0    0  0.00000000000E+00  0.00000000000E+00  0.56128392893E+03  0.72347697287E+03  0.45648579540E+03 0.  0.
      99925    2    3    3    0    0 -0.82968949526E+01 -0.96805522920E+02  0.44911964951E+03  0.52939327595E+03  0.26288520938E+03 0.  0.
         25    1    4    4    0    0 -0.24298653867E+02 -0.17849433712E+02  0.17133732825E+03  0.21427322515E+03  0.12509000000E+03 0.  0.
         25    1    3    3    0    0  0.82968949526E+01  0.96805522920E+02  0.11216427942E+03  0.19408369692E+03  0.12509000000E+03 0.  0.
         25    1    4    4    0    0  0.16001758915E+02 -0.78956089208E+02  0.27778232126E+03  0.31512005080E+03  0.12509000000E+03 0.  0.
<mgrwt>
<rscale>  2 0.45648580E+03</rscale>
<asrwt>0</asrwt>
<pdfrwt beam="1">  1       21 0.94467711E-01 0.45648580E+03</pdfrwt>
<pdfrwt beam="2">  1       21 0.11925959E-01 0.45648580E+03</pdfrwt>
<totfact> 0.51047677E+04</totfact>
</mgrwt>
</event>
<event>
 7    0  0.4779893E-002  0.4415390E+03  0.7546771E-02  0.1030276E+00
         21   -1    0    0  502  501  0.00000000000E+00  0.00000000000E+00  0.22470910700E+04  0.22470910700E+04  0.00000000000E+00 0.  1.
         21   -1    0    0  501  502 -0.00000000000E+00 -0.00000000000E+00 -0.21689896537E+02  0.21689896537E+02  0.00000000000E+00 0.  1.
      99926    2    1    2    0    0  0.00000000000E+00  0.00000000000E+00  0.22254011735E+04  0.22687809666E+04  0.44153900311E+03 0.  0.
      99925    2    3    3    0    0 -0.93902821272E+01 -0.96295870801E+02  0.15698268507E+04  0.15944025320E+04  0.26153780015E+03 0.  0.
         25    1    4    4    0    0 -0.15389422108E+02 -0.31402016032E+02  0.56582833209E+03  0.58054468426E+03  0.12509000000E+03 0.  0.
         25    1    3    3    0    0  0.93902821272E+01  0.96295870801E+02  0.65557432282E+03  0.67437843454E+03  0.12509000000E+03 0.  0.
         25    1    4    4    0    0  0.59991399808E+01 -0.64893854768E+02  0.10039985186E+04  0.10138578478E+04  0.12509000000E+03 0.  0.
<mgrwt>
<rscale>  2 0.44153900E+03</rscale>
<asrwt>0</asrwt>
<pdfrwt beam="1">  1       21 0.33045441E+00 0.44153900E+03</pdfrwt>
<pdfrwt beam="2">  1       21 0.31896922E-02 0.44153900E+03</pdfrwt>
<totfact> 0.10892125E+04</totfact>
</mgrwt>
</event>
<event>
 7    0  0.4779893E-002  0.4505656E+03  0.7546771E-02  0.1027554E+00
         21   -1    0    0  502  501  0.00000000000E+00  0.00000000000E+00  0.98345817990E+03  0.98345817990E+03  0.00000000000E+00 0. -1.
         21   -1    0    0  501  502 -0.00000000000E+00 -0.00000000000E+00 -0.51605997428E+02  0.51605997428E+02  0.00000000000E+00 0. -1.
      99926    2    1    2    0    0  0.00000000000E+00  0.00000000000E+00  0.93185218247E+03  0.10350641773E+04  0.45056560145E+03 0.  0.
      99925    2    3    3    0    0  0.52257399636E+02  0.95556284093E+02  0.58055490719E+03  0.64658107220E+03  0.26298525324E+03 0.  0.
         25    1    4    4    0    0  0.62982834930E+01  0.22710483040E+02  0.20279898648E+03  0.23943761491E+03  0.12509000000E+03 0.  0.
         25    1    4    4    0    0  0.45959116143E+02  0.72845801053E+02  0.37775592070E+03  0.40714345729E+03  0.12509000000E+03 0.  0.
         25    1    3    3    0    0 -0.52257399636E+02 -0.95556284093E+02  0.35129727529E+03  0.38848310513E+03  0.12509000000E+03 0.  0.
<mgrwt>
<rscale>  2 0.45056560E+03</rscale>
<asrwt>0</asrwt>
<pdfrwt beam="1">  1       21 0.14462619E+00 0.45056560E+03</pdfrwt>
<pdfrwt beam="2">  1       21 0.75891179E-02 0.45056560E+03</pdfrwt>
<totfact> 0.39168691E+04</totfact>
</mgrwt>
</event>
<event>
 7    0  0.4779893E-002  0.4539465E+03  0.7546771E-02  0.1026552E+00
         21   -1    0    0  502  501  0.00000000000E+00  0.00000000000E+00  0.11782352413E+04  0.11782352413E+04  0.00000000000E+00 0.  1.
         21   -1    0    0  501  502 -0.00000000000E+00 -0.00000000000E+00 -0.43723737425E+02  0.43723737425E+02  0.00000000000E+00 0.  1.
      99926    2    1    2    0    0 -0.14210854715E-13  0.00000000000E+00  0.11345115039E+04  0.12219589787E+04  0.45394646520E+03 0.  0.
      99925    2    3    3    0    0  0.98284486463E+02 -0.84732146599E+01  0.57073876964E+03  0.63611015897E+03  0.26298622687E+03 0.  0.
         25    1    4    4    0    0  0.30914655383E+02  0.12134228951E+02  0.19663930601E+03  0.23540917611E+03  0.12509000000E+03 0.  0.
         25    1    4    4    0    0  0.67369831080E+02 -0.20607443610E+02  0.37409946364E+03  0.40070098286E+03  0.12509000000E+03 0.  0.
         25    1    3    3    0    0 -0.98284486463E+02  0.84732146599E+01  0.56377273426E+03  0.58584881978E+03  0.12509000000E+03 0.  0.
<mgrwt>
<rscale>  2 0.45394647E+03</rscale>
<asrwt>0</asrwt>
<pdfrwt beam="1">  1       21 0.17326987E+00 0.45394647E+03</pdfrwt>
<pdfrwt beam="2">  1       21 0.64299621E-02 0.45394647E+03</pdfrwt>
<totfact> 0.31727118E+04</totfact>
</mgrwt>
</event>
<event>
 7    0  0.4779893E-002  0.4541622E+03  0.7546771E-02  0.1026488E+00
         21   -1    0    0  502  501  0.00000000000E+00  0.00000000000E+00  0.15732331802E+04  0.15732331802E+04  0.00000000000E+00 0.  1.
         21   -1    0    0  501  502 -0.00000000000E+00 -0.00000000000E+00 -0.32776981171E+02  0.32776981171E+02  0.00000000000E+00 0.  1.
      99926    2    1    2    0    0  0.44408920985E-14  0.53290705182E-14  0.15404561990E+04  0.16060101614E+04  0.45416223676E+03 0.  0.
      99925    2    3    3    0    0  0.78060224775E+01  0.15137214888E+02  0.13628366858E+04  0.13880967179E+04  0.26305626181E+03 0.  0.
         25    1    3    3    0    0 -0.78060224775E+01 -0.15137214888E+02  0.17761951329E+03  0.21791344352E+03  0.12509000000E+03 0.  0.
         25    1    4    4    0    0 -0.25195815141E+02 -0.17991318085E+02  0.73546367288E+03  0.74666782364E+03  0.12509000000E+03 0.  0.
         25    1    4    4    0    0  0.33001837618E+02  0.33128532973E+02  0.62737301287E+03  0.64142889424E+03  0.12509000000E+03 0.  0.
<mgrwt>
<rscale>  2 0.45416224E+03</rscale>
<asrwt>0</asrwt>
<pdfrwt beam="1">  1       21 0.23135777E+00 0.45416224E+03</pdfrwt>
<pdfrwt beam="2">  1       21 0.48201454E-02 0.45416224E+03</pdfrwt>
<totfact> 0.21433408E+04</totfact>
</mgrwt>
</event>
<event>
 7    0  0.4779893E-002  0.4630738E+03  0.7546771E-02  0.1023893E+00
         21   -1    0    0  502  501  0.00000000000E+00  0.00000000000E+00  0.21068291049E+04  0.21068291049E+04  0.00000000000E+00 0.  1.
         21   -1    0    0  501  502 -0.00000000000E+00 -0.00000000000E+00 -0.25445508206E+02  0.25445508206E+02  0.00000000000E+00 0.  1.
      99926    2    1    2    0    0  0.14210854715E-13  0.00000000000E+00  0.20813835967E+04  0.21322746131E+04  0.46307380525E+03 0.  0.
      99925    2    3    3    0    0  0.84568500178E+02  0.52385572608E+02  0.16144204760E+04  0.16387179865E+04  0.26295833633E+03 0.  0.
         25    1    3    3    0    0 -0.84568500178E+02 -0.52385572608E+02  0.46696312075E+03  0.49355662662E+03  0.12509000000E+03 0.  0.
         25    1    4    4    0    0  0.24468061176E+02 -0.12070533814E+02  0.71389803160E+03  0.72528773009E+03  0.12509000000E+03 0.  0.
         25    1    4    4    0    0  0.60100439002E+02  0.64456106422E+02  0.90052244437E+03  0.91343025642E+03  0.12509000000E+03 0.  0.
<mgrwt>
<rscale>  2 0.46307381E+03</rscale>
<asrwt>0</asrwt>
<pdfrwt beam="1">  1       21 0.30982769E+00 0.46307381E+03</pdfrwt>
<pdfrwt beam="2">  1       21 0.37419879E-02 0.46307381E+03</pdfrwt>
<totfact> 0.10964305E+04</totfact>
</mgrwt>
</event>
<event>
 7    0  0.4779893E-002  0.4463245E+03  0.7546771E-02  0.1028824E+00
         21   -1    0    0  502  501  0.00000000000E+00  0.00000000000E+00  0.36637692989E+03  0.36637692989E+03  0.00000000000E+00 0.  1.
         21   -1    0    0  501  502 -0.00000000000E+00 -0.00000000000E+00 -0.13592936683E+03  0.13592936683E+03  0.00000000000E+00 0.  1.
      99926    2    1    2    0    0  0.00000000000E+00  0.00000000000E+00  0.23044756307E+03  0.50230629672E+03  0.44632447435E+03 0.  0.
      99925    2    3    3    0    0 -0.84110575241E+02 -0.43724342419E+02  0.95325010265E+02  0.29520241128E+03  0.26281400088E+03 0.  0.
         25    1    3    3    0    0  0.84110575241E+02  0.43724342419E+02  0.13512255280E+03  0.20710388544E+03  0.12509000000E+03 0.  0.
         25    1    4    4    0    0 -0.33984717463E+02  0.11366543182E+02  0.21215832416E+02  0.13183997486E+03  0.12509000000E+03 0.  0.
         25    1    4    4    0    0 -0.50125857778E+02 -0.55090885601E+02  0.74109177848E+02  0.16336243643E+03  0.12509000000E+03 0.  0.
<mgrwt>
<rscale>  2 0.44632447E+03</rscale>
<asrwt>0</asrwt>
<pdfrwt beam="1">  1       21 0.53878960E-01 0.44632447E+03</pdfrwt>
<pdfrwt beam="2">  1       21 0.19989613E-01 0.44632447E+03</pdfrwt>
<totfact> 0.69792170E+04</totfact>
</mgrwt>
</event>
<event>
 7    0  0.4779893E-002  0.4480205E+03  0.7546771E-02  0.1028314E+00
         21   -1    0    0  502  501  0.00000000000E+00  0.00000000000E+00  0.16995640285E+03  0.16995640285E+03  0.00000000000E+00 0.  1.
         21   -1    0    0  501  502 -0.00000000000E+00 -0.00000000000E+00 -0.29525571220E+03  0.29525571220E+03  0.00000000000E+00 0.  1.
      99926    2    1    2    0    0  0.00000000000E+00  0.17763568394E-14 -0.12529930935E+03  0.46521211505E+03  0.44802052974E+03 0.  0.
      99925    2    3    3    0    0  0.83797760344E+02 -0.10895836477E+02 -0.14665947419E+03  0.31275048502E+03  0.26298874618E+03 0.  0.
         25    1    3    3    0    0 -0.83797760344E+02  0.10895836477E+02  0.21360164841E+02  0.15246163004E+03  0.12509000000E+03 0.  0.
         25    1    4    4    0    0  0.43090557753E+02  0.31515663110E+02 -0.91582286215E+02  0.16396602220E+03  0.12509000000E+03 0.  0.
         25    1    4    4    0    0  0.40707202591E+02 -0.42411499587E+02 -0.55077187975E+02  0.14878446282E+03  0.12509000000E+03 0.  0.
<mgrwt>
<rscale>  2 0.44802053E+03</rscale>
<asrwt>0</asrwt>
<pdfrwt beam="1">  1       21 0.24993589E-01 0.44802053E+03</pdfrwt>
<pdfrwt beam="2">  1       21 0.43419957E-01 0.44802053E+03</pdfrwt>
<totfact> 0.71680941E+04</totfact>
</mgrwt>
</event>
<event>
 7    0  0.4779893E-002  0.4541544E+03  0.7546771E-02  0.1026490E+00
         21   -1    0    0  502  501  0.00000000000E+00  0.00000000000E+00  0.97943074325E+02  0.97943074325E+02  0.00000000000E+00 0.  1.
         21   -1    0    0  501  502 -0.00000000000E+00 -0.00000000000E+00 -0.52646954049E+03  0.52646954049E+03  0.00000000000E+00 0.  1.
      99926    2    1    2    0    0  0.00000000000E+00  0.71054273576E-14 -0.42852646616E+03  0.62441261481E+03  0.45415435849E+03 0.  0.
      99925    2    3    3    0    0 -0.20568900510E+02  0.39657856490E+02 -0.41172157721E+03  0.49052558167E+03  0.26287803996E+03 0.  0.
         25    1    3    3    0    0  0.20568900510E+02 -0.39657856490E+02 -0.16804888959E+02  0.13388703314E+03  0.12509000000E+03 0.  0.
         25    1    4    4    0    0 -0.33336727579E+02  0.17803580775E+02 -0.26902594126E+03  0.29908321596E+03  0.12509000000E+03 0.  0.
         25    1    4    4    0    0  0.12767827069E+02  0.21854275715E+02 -0.14269563594E+03  0.19144236572E+03  0.12509000000E+03 0.  0.
<mgrwt>
<rscale>  2 0.45415436E+03</rscale>
<asrwt>0</asrwt>
<pdfrwt beam="1">  1       21 0.14403394E-01 0.45415436E+03</pdfrwt>
<pdfrwt beam="2">  1       21 0.77421989E-01 0.45415436E+03</pdfrwt>
<totfact> 0.57583724E+04</totfact>
</mgrwt>
</event>
<event>
 7    0  0.4779893E-002  0.4660698E+03  0.7546771E-02  0.1023035E+00
         21   -1    0    0  502  501  0.00000000000E+00  0.00000000000E+00  0.32717299273E+03  0.32717299273E+03  0.00000000000E+00 0.  1.
         21   -1    0    0  501  502 -0.00000000000E+00 -0.00000000000E+00 -0.16598333337E+03  0.16598333337E+03  0.00000000000E+00 0.  1.
      99926    2    1    2    0    0  0.44408920985E-15  0.00000000000E+00  0.16118965937E+03  0.49315632610E+03  0.46606979701E+03 0.  0.
      99925    2    3    3    0    0 -0.26585918091E+01  0.13030233940E+02 -0.29277988460E+02  0.26489706982E+03  0.26293801909E+03 0.  0.
         25    1    3    3    0    0  0.26585918091E+01 -0.13030233940E+02  0.19046764783E+03  0.22825925628E+03  0.12509000000E+03 0.  0.
         25    1    4    4    0    0  0.18514761930E+01 -0.23742361338E+02 -0.41341200811E+02  0.13387953791E+03  0.12509000000E+03 0.  0.
         25    1    4    4    0    0 -0.45100680021E+01  0.36772595278E+02  0.12063212351E+02  0.13101753191E+03  0.12509000000E+03 0.  0.
<mgrwt>
<rscale>  2 0.46606980E+03</rscale>
<asrwt>0</asrwt>
<pdfrwt beam="1">  1       21 0.48113676E-01 0.46606980E+03</pdfrwt>
<pdfrwt beam="2">  1       21 0.24409314E-01 0.46606980E+03</pdfrwt>
<totfact> 0.60280215E+04</totfact>
</mgrwt>
</event>
<event>
 7    0  0.4779893E-002  0.4385828E+03  0.7546771E-02  0.1031183E+00
         21   -1    0    0  502  501  0.00000000000E+00  0.00000000000E+00  0.14011103206E+03  0.14011103206E+03  0.00000000000E+00 0. -1.
         21   -1    0    0  501  502 -0.00000000000E+00 -0.00000000000E+00 -0.34321860061E+03  0.34321860061E+03  0.00000000000E+00 0. -1.
      99926    2    1    2    0    0  0.71054273576E-14  0.00000000000E+00 -0.20310756854E+03  0.48332963267E+03  0.43858277374E+03 0.  0.
      99925    2    3    3    0    0  0.55532726379E+02  0.36648539155E+02 -0.20701074898E+03  0.34159134554E+03  0.26344676509E+03 0.  0.
         25    1    3    3    0    0 -0.55532726379E+02 -0.36648539155E+02  0.39031804335E+01  0.14173828713E+03  0.12509000000E+03 0.  0.
         25    1    4    4    0    0  0.61141362967E+02  0.28648081973E+02 -0.80265868191E+02  0.16324551008E+03  0.12509000000E+03 0.  0.
         25    1    4    4    0    0 -0.56086365877E+01  0.80004571818E+01 -0.12674488079E+03  0.17834583546E+03  0.12509000000E+03 0.  0.
<mgrwt>
<rscale>  2 0.43858277E+03</rscale>
<asrwt>0</asrwt>
<pdfrwt beam="1">  1       21 0.20604563E-01 0.43858277E+03</pdfrwt>
<pdfrwt beam="2">  1       21 0.50473324E-01 0.43858277E+03</pdfrwt>
<totfact> 0.75875467E+04</totfact>
</mgrwt>
</event>
<event>
 7    0  0.4779893E-002  0.4537914E+03  0.7546771E-02  0.1026597E+00
         21   -1    0    0  502  501  0.00000000000E+00  0.00000000000E+00  0.39429899386E+03  0.39429899386E+03  0.00000000000E+00 0.  1.
         21   -1    0    0  501  502 -0.00000000000E+00 -0.00000000000E+00 -0.13056500692E+03  0.13056500692E+03  0.00000000000E+00 0.  1.
      99926    2    1    2    0    0  0.00000000000E+00  0.00000000000E+00  0.26373398695E+03  0.52486400078E+03  0.45379136554E+03 0.  0.
      99925    2    3    3    0    0  0.14505351521E+02 -0.10955082174E+03  0.19159736445E+03  0.34303169294E+03  0.26220107653E+03 0.  0.
         25    1    4    4    0    0 -0.26909290197E+02 -0.49435806288E+02  0.11607496207E+03  0.17969116217E+03  0.12509000000E+03 0.  0.
         25    1    3    3    0    0 -0.14505351521E+02  0.10955082174E+03  0.72136622491E+02  0.18183230783E+03  0.12509000000E+03 0.  0.
         25    1    4    4    0    0  0.41414641718E+02 -0.60115015455E+02  0.75522402382E+02  0.16334053077E+03  0.12509000000E+03 0.  0.
<mgrwt>
<rscale>  2 0.45379137E+03</rscale>
<asrwt>0</asrwt>
<pdfrwt beam="1">  1       21 0.57985146E-01 0.45379137E+03</pdfrwt>
<pdfrwt beam="2">  1       21 0.19200736E-01 0.45379137E+03</pdfrwt>
<totfact> 0.64168131E+04</totfact>
</mgrwt>
</event>
<event>
 7    0  0.4779893E-002  0.4555030E+03  0.7546771E-02  0.1026094E+00
         21   -1    0    0  502  501  0.00000000000E+00  0.00000000000E+00  0.11855217245E+03  0.11855217245E+03  0.00000000000E+00 0. -1.
         21   -1    0    0  501  502 -0.00000000000E+00 -0.00000000000E+00 -0.43753514026E+03  0.43753514026E+03  0.00000000000E+00 0. -1.
      99926    2    1    2    0    0 -0.71054273576E-14  0.00000000000E+00 -0.31898296781E+03  0.55608731271E+03  0.45550298089E+03 0.  0.
      99925    2    3    3    0    0  0.57914246116E+02  0.81600202778E+02 -0.13400916839E+03  0.31139267123E+03  0.26266763311E+03 0.  0.
         25    1    4    4    0    0  0.27470997942E+02  0.29706525691E+01 -0.80657365982E+02  0.15138229517E+03  0.12509000000E+03 0.  0.
         25    1    4    4    0    0  0.30443248174E+02  0.78629550209E+02 -0.53351802408E+02  0.16001037606E+03  0.12509000000E+03 0.  0.
         25    1    3    3    0    0 -0.57914246116E+02 -0.81600202778E+02 -0.18497379942E+03  0.24469464148E+03  0.12509000000E+03 0.  0.
<mgrwt>
<rscale>  2 0.45550298E+03</rscale>
<asrwt>0</asrwt>
<pdfrwt beam="1">  1       21 0.17434143E-01 0.45550298E+03</pdfrwt>
<pdfrwt beam="2">  1       21 0.64343404E-01 0.45550298E+03</pdfrwt>
<totfact> 0.61222079E+04</totfact>
</mgrwt>
</event>
<event>
 7    0  0.4779893E-002  0.4574564E+03  0.7546771E-02  0.1025522E+00
         21   -1    0    0  502  501  0.00000000000E+00  0.00000000000E+00  0.66665476071E+02  0.66665476071E+02  0.00000000000E+00 0.  1.
         21   -1    0    0  501  502 -0.00000000000E+00 -0.00000000000E+00 -0.78476300632E+03  0.78476300632E+03  0.00000000000E+00 0.  1.
      99926    2    1    2    0    0 -0.35527136788E-14  0.35527136788E-14 -0.71809753025E+03  0.85142848239E+03  0.45745644347E+03 0.  0.
      99925    2    3    3    0    0  0.22773368105E+02 -0.17234126440E+02 -0.65890989288E+03  0.71012623214E+03  0.26325154744E+03 0.  0.
         25    1    3    3    0    0 -0.22773368105E+02  0.17234126440E+02 -0.59187637372E+02  0.14130225025E+03  0.12509000000E+03 0.  0.
         25    1    4    4    0    0  0.73358202559E+01  0.68076534548E+01 -0.42733691590E+03  0.44538130428E+03  0.12509000000E+03 0.  0.
         25    1    4    4    0    0  0.15437547849E+02 -0.24041779895E+02 -0.23157297697E+03  0.26474492786E+03  0.12509000000E+03 0.  0.
<mgrwt>
<rscale>  2 0.45745644E+03</rscale>
<asrwt>0</asrwt>
<pdfrwt beam="1">  1       21 0.98037479E-02 0.45745644E+03</pdfrwt>
<pdfrwt beam="2">  1       21 0.11540631E+00 0.45745644E+03</pdfrwt>
<totfact> 0.44511612E+04</totfact>
</mgrwt>
</event>
<event>
 7    0  0.4779893E-002  0.4752973E+03  0.7546771E-02  0.1020436E+00
         21   -1    0    0  502  501  0.00000000000E+00  0.00000000000E+00  0.53819860311E+02  0.53819860311E+02  0.00000000000E+00 0. -1.
         21   -1    0    0  501  502 -0.00000000000E+00 -0.00000000000E+00 -0.10493685550E+04  0.10493685550E+04  0.00000000000E+00 0. -1.
      99926    2    1    2    0    0  0.00000000000E+00  0.00000000000E+00 -0.99554869474E+03  0.11031884154E+04  0.47529725035E+03 0.  0.
      99925    2    3    3    0    0  0.96104332701E+02  0.76349599400E+02 -0.72415835012E+03  0.78013187024E+03  0.26293557162E+03 0.  0.
         25    1    4    4    0    0  0.71378382279E+02  0.72187794399E+01 -0.32990369729E+03  0.36004297218E+03  0.12509000000E+03 0.  0.
         25    1    3    3    0    0 -0.96104332701E+02 -0.76349599400E+02 -0.27139034461E+03  0.32305654512E+03  0.12509000000E+03 0.  0.
         25    1    4    4    0    0  0.24725950423E+02  0.69130819960E+02 -0.39425465284E+03  0.42008889806E+03  0.12509000000E+03 0.  0.
<mgrwt>
<rscale>  2 0.47529725E+03</rscale>
<asrwt>0</asrwt>
<pdfrwt beam="1">  1       21 0.79146860E-02 0.47529725E+03</pdfrwt>
<pdfrwt beam="2">  1       21 0.15431889E+00 0.47529725E+03</pdfrwt>
<totfact> 0.30295052E+04</totfact>
</mgrwt>
</event>
<event>
 7    0  0.4779893E-002  0.4550249E+03  0.7546771E-02  0.1026234E+00
         21   -1    0    0  502  501  0.00000000000E+00  0.00000000000E+00  0.10119087407E+03  0.10119087407E+03  0.00000000000E+00 0.  1.
         21   -1    0    0  501  502 -0.00000000000E+00 -0.00000000000E+00 -0.51152755236E+03  0.51152755236E+03  0.00000000000E+00 0.  1.
      99926    2    1    2    0    0  0.00000000000E+00 -0.17763568394E-14 -0.41033667830E+03  0.61271842643E+03  0.45502492297E+03 0.  0.
      99925    2    3    3    0    0 -0.63080917628E+02  0.12086561715E+02 -0.13252402745E+03  0.30134619868E+03  0.26290992082E+03 0.  0.
         25    1    4    4    0    0  0.59087766303E+01 -0.11397688257E+02 -0.57061904023E+02  0.13808834103E+03  0.12509000000E+03 0.  0.
         25    1    3    3    0    0  0.63080917628E+02 -0.12086561715E+02 -0.27781265085E+03  0.31137222775E+03  0.12509000000E+03 0.  0.
         25    1    4    4    0    0 -0.68989694259E+02  0.23484249972E+02 -0.75462123428E+02  0.16325785764E+03  0.12509000000E+03 0.  0.
<mgrwt>
<rscale>  2 0.45502492E+03</rscale>
<asrwt>0</asrwt>
<pdfrwt beam="1">  1       21 0.14881011E-01 0.45502492E+03</pdfrwt>
<pdfrwt beam="2">  1       21 0.75224640E-01 0.45502492E+03</pdfrwt>
<totfact> 0.57890772E+04</totfact>
</mgrwt>
</event>
<event>
 7    0  0.4779893E-002  0.4591395E+03  0.7546771E-02  0.1025031E+00
         21   -1    0    0  502  501  0.00000000000E+00  0.00000000000E+00  0.53152099299E+03  0.53152099299E+03  0.00000000000E+00 0. -1.
         21   -1    0    0  501  502 -0.00000000000E+00 -0.00000000000E+00 -0.99153712509E+02  0.99153712509E+02  0.00000000000E+00 0. -1.
      99926    2    1    2    0    0  0.00000000000E+00 -0.71054273576E-14  0.43236728049E+03  0.63067470550E+03  0.45913954189E+03 0.  0.
      99925    2    3    3    0    0  0.69367369399E+02 -0.46265662905E+02  0.15771379550E+03  0.31757026859E+03  0.26272588509E+03 0.  0.
         25    1    3    3    0    0 -0.69367369399E+02  0.46265662905E+02  0.27465348498E+03  0.31310443691E+03  0.12509000000E+03 0.  0.
         25    1    4    4    0    0  0.58065692710E+02 -0.46574025572E+02  0.11290501619E+03  0.18421676175E+03  0.12509000000E+03 0.  0.
         25    1    4    4    0    0  0.11301676689E+02  0.30836266710E+00  0.44808779312E+02  0.13335350684E+03  0.12509000000E+03 0.  0.
<mgrwt>
<rscale>  2 0.45913954E+03</rscale>
<asrwt>0</asrwt>
<pdfrwt beam="1">  1       21 0.78164851E-01 0.45913954E+03</pdfrwt>
<pdfrwt beam="2">  1       21 0.14581429E-01 0.45913954E+03</pdfrwt>
<totfact> 0.55009041E+04</totfact>
</mgrwt>
</event>
<event>
 7    0  0.4779893E-002  0.4567235E+03  0.7546771E-02  0.1025736E+00
         21   -1    0    0  502  501  0.00000000000E+00  0.00000000000E+00  0.87138929524E+02  0.87138929524E+02  0.00000000000E+00 0. -1.
         21   -1    0    0  501  502 -0.00000000000E+00 -0.00000000000E+00 -0.59845912433E+03  0.59845912433E+03  0.00000000000E+00 0. -1.
      99926    2    1    2    0    0 -0.35527136788E-14  0.00000000000E+00 -0.51132019481E+03  0.68559805386E+03  0.45672349385E+03 0.  0.
      99925    2    3    3    0    0 -0.16168165805E+02 -0.53572272951E+02 -0.47177021154E+03  0.54296878866E+03  0.26290031370E+03 0.  0.
         25    1    4    4    0    0 -0.26392064670E+00 -0.49336598873E+02 -0.17661934340E+03  0.22198213939E+03  0.12509000000E+03 0.  0.
         25    1    4    4    0    0 -0.15904245158E+02 -0.42356740774E+01 -0.29515086813E+03  0.32098664927E+03  0.12509000000E+03 0.  0.
         25    1    3    3    0    0  0.16168165805E+02  0.53572272951E+02 -0.39549983271E+02  0.14262926520E+03  0.12509000000E+03 0.  0.
<mgrwt>
<rscale>  2 0.45672349E+03</rscale>
<asrwt>0</asrwt>
<pdfrwt beam="1">  1       21 0.12814549E-01 0.45672349E+03</pdfrwt>
<pdfrwt beam="2">  1       21 0.88008691E-01 0.45672349E+03</pdfrwt>
<totfact> 0.52969684E+04</totfact>
</mgrwt>
</event>
<event>
 7    0  0.4779893E-002  0.4655759E+03  0.7546771E-02  0.1023176E+00
         21   -1    0    0  502  501  0.00000000000E+00  0.00000000000E+00  0.37314210784E+02  0.37314210784E+02  0.00000000000E+00 0. -1.
         21   -1    0    0  501  502 -0.00000000000E+00 -0.00000000000E+00 -0.14522678650E+04  0.14522678650E+04  0.00000000000E+00 0. -1.
      99926    2    1    2    0    0  0.00000000000E+00 -0.53290705182E-14 -0.14149536542E+04  0.14895820758E+04  0.46557589813E+03 0.  0.
      99925    2    3    3    0    0 -0.11674162201E+03  0.64657687037E+01 -0.75215004027E+03  0.80501903907E+03  0.26202205578E+03 0.  0.
         25    1    4    4    0    0 -0.58888642881E+02 -0.33842637838E+02 -0.40785998617E+03  0.43198434325E+03  0.12509000000E+03 0.  0.
         25    1    4    4    0    0 -0.57852979129E+02  0.40308406542E+02 -0.34429005410E+03  0.37303469582E+03  0.12509000000E+03 0.  0.
         25    1    3    3    0    0  0.11674162201E+03 -0.64657687037E+01 -0.66280361395E+03  0.68456303671E+03  0.12509000000E+03 0.  0.
<mgrwt>
<rscale>  2 0.46557590E+03</rscale>
<asrwt>0</asrwt>
<pdfrwt beam="1">  1       21 0.54873841E-02 0.46557590E+03</pdfrwt>
<pdfrwt beam="2">  1       21 0.21356880E+00 0.46557590E+03</pdfrwt>
<totfact> 0.22158664E+04</totfact>
</mgrwt>
</event>
<event>
 7    0  0.4779893E-002  0.4317626E+03  0.7546771E-02  0.1033305E+00
         21   -1    0    0  502  501  0.00000000000E+00  0.00000000000E+00  0.36391251833E+02  0.36391251833E+02  0.00000000000E+00 0.  1.
         21   -1    0    0  501  502 -0.00000000000E+00 -0.00000000000E+00 -0.12806573743E+04  0.12806573743E+04  0.00000000000E+00 0.  1.
      99926    2    1    2    0    0  0.00000000000E+00  0.35527136788E-14 -0.12442661225E+04  0.13170486262E+04  0.43176255058E+03 0.  0.
      99925    2    3    3    0    0 -0.69730953230E+02  0.14088078474E+02 -0.63330876687E+03  0.68937253271E+03  0.26285664320E+03 0.  0.
         25    1    4    4    0    0 -0.24135422059E+02  0.34147096974E+02 -0.24291403757E+03  0.27641143352E+03  0.12509000000E+03 0.  0.
         25    1    4    4    0    0 -0.45595531171E+02 -0.20059018500E+02 -0.39039472930E+03  0.41296109920E+03  0.12509000000E+03 0.  0.
         25    1    3    3    0    0  0.69730953230E+02 -0.14088078474E+02 -0.61095735564E+03  0.62767609346E+03  0.12509000000E+03 0.  0.
<mgrwt>
<rscale>  2 0.43176255E+03</rscale>
<asrwt>0</asrwt>
<pdfrwt beam="1">  1       21 0.53516543E-02 0.43176255E+03</pdfrwt>
<pdfrwt beam="2">  1       21 0.18833198E+00 0.43176255E+03</pdfrwt>
<totfact> 0.34438849E+04</totfact>
</mgrwt>
</event>
<event>
 7    0  0.4779893E-002  0.4561464E+03  0.7546771E-02  0.1025905E+00
         21   -1    0    0  502  501  0.00000000000E+00  0.00000000000E+00  0.74178227783E+03  0.74178227783E+03  0.00000000000E+00 0.  1.
         21   -1    0    0  501  502 -0.00000000000E+00 -0.00000000000E+00 -0.70124867467E+02  0.70124867467E+02  0.00000000000E+00 0.  1.
      99926    2    1    2    0    0  0.00000000000E+00  0.00000000000E+00  0.67165741036E+03  0.81190714530E+03  0.45614639721E+03 0.  0.
      99925    2    3    3    0    0  0.95181243503E+02  0.30289229214E+02  0.52090973223E+03  0.59202245487E+03  0.26299568707E+03 0.  0.
         25    1    4    4    0    0  0.44886235690E+02  0.53549846970E+02  0.29403757911E+03  0.32709015010E+03  0.12509000000E+03 0.  0.
         25    1    4    4    0    0  0.50295007812E+02 -0.23260617756E+02  0.22687215312E+03  0.26493230477E+03  0.12509000000E+03 0.  0.
         25    1    3    3    0    0 -0.95181243503E+02 -0.30289229214E+02  0.15074767813E+03  0.21988469043E+03  0.12509000000E+03 0.  0.
<mgrwt>
<rscale>  2 0.45614640E+03</rscale>
<asrwt>0</asrwt>
<pdfrwt beam="1">  1       21 0.10908562E+00 0.45614640E+03</pdfrwt>
<pdfrwt beam="2">  1       21 0.10312481E-01 0.45614640E+03</pdfrwt>
<totfact> 0.46772085E+04</totfact>
</mgrwt>
</event>
<event>
 7    0  0.4779893E-002  0.4546021E+03  0.7546771E-02  0.1026358E+00
         21   -1    0    0  502  501  0.00000000000E+00  0.00000000000E+00  0.39741109762E+02  0.39741109762E+02  0.00000000000E+00 0. -1.
         21   -1    0    0  501  502 -0.00000000000E+00 -0.00000000000E+00 -0.13000583033E+04  0.13000583033E+04  0.00000000000E+00 0. -1.
      99926    2    1    2    0    0  0.14210854715E-13  0.00000000000E+00 -0.12603171935E+04  0.13397994130E+04  0.45460206655E+03 0.  0.
      99925    2    3    3    0    0  0.94676205850E+02  0.37347092185E+02 -0.65010946420E+03  0.70864224540E+03  0.26300784641E+03 0.  0.
         25    1    4    4    0    0  0.31796020861E+02  0.22830335706E+02 -0.40860828512E+03  0.42911589336E+03  0.12509000000E+03 0.  0.
         25    1    4    4    0    0  0.62880184989E+02  0.14516756479E+02 -0.24150117909E+03  0.27952635204E+03  0.12509000000E+03 0.  0.
         25    1    3    3    0    0 -0.94676205850E+02 -0.37347092185E+02 -0.61020772930E+03  0.63115716763E+03  0.12509000000E+03 0.  0.
<mgrwt>
<rscale>  2 0.45460207E+03</rscale>
<asrwt>0</asrwt>
<pdfrwt beam="1">  1       21 0.58442815E-02 0.45460207E+03</pdfrwt>
<pdfrwt beam="2">  1       21 0.19118502E+00 0.45460207E+03</pdfrwt>
<totfact> 0.28067183E+04</totfact>
</mgrwt>
</event>
<event>
 7    0  0.4779893E-002  0.4514531E+03  0.7546771E-02  0.1027290E+00
         21   -1    0    0  502  501  0.00000000000E+00  0.00000000000E+00  0.81435167059E+03  0.81435167059E+03  0.00000000000E+00 0. -1.
         21   -1    0    0  501  502 -0.00000000000E+00 -0.00000000000E+00 -0.62568147061E+02  0.62568147061E+02  0.00000000000E+00 0. -1.
      99926    2    1    2    0    0  0.00000000000E+00  0.71054273576E-14  0.75178352353E+03  0.87691981765E+03  0.45145309871E+03 0.  0.
      99925    2    3    3    0    0  0.55124031749E+02 -0.54800978806E+02  0.62522288182E+03  0.68273714519E+03  0.26302956358E+03 0.  0.
         25    1    3    3    0    0 -0.55124031749E+02  0.54800978806E+02  0.12656064172E+03  0.19418267247E+03  0.12509000000E+03 0.  0.
         25    1    4    4    0    0  0.29296775783E+02 -0.57318325810E+02  0.39702294490E+03  0.42121065801E+03  0.12509000000E+03 0.  0.
         25    1    4    4    0    0  0.25827255966E+02  0.25173470040E+01  0.22819993692E+03  0.26152648718E+03  0.12509000000E+03 0.  0.
<mgrwt>
<rscale>  2 0.45145310E+03</rscale>
<asrwt>0</asrwt>
<pdfrwt beam="1">  1       21 0.11975759E+00 0.45145310E+03</pdfrwt>
<pdfrwt beam="2">  1       21 0.92011986E-02 0.45145310E+03</pdfrwt>
<totfact> 0.45497504E+04</totfact>
</mgrwt>
</event>
<event>
 7    0  0.4779893E-002  0.4650566E+03  0.7546771E-02  0.1023325E+00
         21   -1    0    0  502  501  0.00000000000E+00  0.00000000000E+00  0.85301265250E+03  0.85301265250E+03  0.00000000000E+00 0.  1.
         21   -1    0    0  501  502 -0.00000000000E+00 -0.00000000000E+00 -0.63386416677E+02  0.63386416677E+02  0.00000000000E+00 0.  1.
      99926    2    1    2    0    0 -0.17763568394E-14  0.00000000000E+00  0.78962623582E+03  0.91639906918E+03  0.46505662203E+03 0.  0.
      99925    2    3    3    0    0  0.13611880766E+02 -0.57048366935E+02  0.70418290876E+03  0.75395563377E+03  0.26293673998E+03 0.  0.
         25    1    3    3    0    0 -0.13611880766E+02  0.57048366935E+02  0.85443327060E+02  0.16244343541E+03  0.12509000000E+03 0.  0.
         25    1    4    4    0    0  0.26738313022E+02 -0.16633606021E+00  0.27900661091E+03  0.30693185250E+03  0.12509000000E+03 0.  0.
         25    1    4    4    0    0 -0.13126432256E+02 -0.56882030874E+02  0.42517629786E+03  0.44702378127E+03  0.12509000000E+03 0.  0.
<mgrwt>
<rscale>  2 0.46505662E+03</rscale>
<asrwt>0</asrwt>
<pdfrwt beam="1">  1       21 0.12544303E+00 0.46505662E+03</pdfrwt>
<pdfrwt beam="2">  1       21 0.93215324E-02 0.46505662E+03</pdfrwt>
<totfact> 0.39342579E+04</totfact>
</mgrwt>
</event>
<event>
 7    0  0.4779893E-002  0.4522151E+03  0.7546771E-02  0.1027064E+00
         21   -1    0    0  502  501  0.00000000000E+00  0.00000000000E+00  0.15721919376E+03  0.15721919376E+03  0.00000000000E+00 0. -1.
         21   -1    0    0  501  502 -0.00000000000E+00 -0.00000000000E+00 -0.32518055548E+03  0.32518055548E+03  0.00000000000E+00 0. -1.
      99926    2    1    2    0    0  0.00000000000E+00  0.00000000000E+00 -0.16796136172E+03  0.48239974925E+03  0.45221510263E+03 0.  0.
      99925    2    3    3    0    0 -0.92731551606E+01  0.10115401892E+03 -0.15239017492E+03  0.32051059918E+03  0.26303260601E+03 0.  0.
         25    1    3    3    0    0  0.92731551606E+01 -0.10115401892E+03 -0.15571186801E+02  0.16188915007E+03  0.12509000000E+03 0.  0.
         25    1    4    4    0    0  0.87959877767E+01  0.10606577873E+02 -0.57456495744E+02  0.13834242263E+03  0.12509000000E+03 0.  0.
         25    1    4    4    0    0 -0.18069142937E+02  0.90547441051E+02 -0.94933679173E+02  0.18216817655E+03  0.12509000000E+03 0.  0.
<mgrwt>
<rscale>  2 0.45221510E+03</rscale>
<asrwt>0</asrwt>
<pdfrwt beam="1">  1       21 0.23120470E-01 0.45221510E+03</pdfrwt>
<pdfrwt beam="2">  1       21 0.47820669E-01 0.45221510E+03</pdfrwt>
<totfact> 0.68017102E+04</totfact>
</mgrwt>
</event>
<event>
 7    0  0.4779893E-002  0.4589434E+03  0.7546771E-02  0.1025088E+00
         21   -1    0    0  502  501  0.00000000000E+00  0.00000000000E+00  0.24400990437E+03  0.24400990437E+03  0.00000000000E+00 0. -1.
         21   -1    0    0  501  502 -0.00000000000E+00 -0.00000000000E+00 -0.21579970593E+03  0.21579970593E+03  0.00000000000E+00 0. -1.
      99926    2    1    2    0    0  0.00000000000E+00  0.00000000000E+00  0.28210198442E+02  0.45980961029E+03  0.45894341963E+03 0.  0.
      99925    2    3    3    0    0  0.87261303003E+01  0.16158658938E+02 -0.98020366596E+02  0.28115096578E+03  0.26286997866E+03 0.  0.
         25    1    4    4    0    0  0.65763946594E+01  0.26724522623E+02 -0.87583937582E+02  0.15516411730E+03  0.12509000000E+03 0.  0.
         25    1    3    3    0    0 -0.87261303003E+01 -0.16158658938E+02  0.12623056504E+03  0.17865864451E+03  0.12509000000E+03 0.  0.
         25    1    4    4    0    0  0.21497356409E+01 -0.10565863685E+02 -0.10436429014E+02  0.12598684848E+03  0.12509000000E+03 0.  0.
<mgrwt>
<rscale>  2 0.45894342E+03</rscale>
<asrwt>0</asrwt>
<pdfrwt beam="1">  1       21 0.35883809E-01 0.45894342E+03</pdfrwt>
<pdfrwt beam="2">  1       21 0.31735251E-01 0.45894342E+03</pdfrwt>
<totfact> 0.66090830E+04</totfact>
</mgrwt>
</event>
<event>
 7    0  0.4779893E-002  0.4519427E+03  0.7546771E-02  0.1027144E+00
         21   -1    0    0  502  501  0.00000000000E+00  0.00000000000E+00  0.52328287098E+03  0.52328287098E+03  0.00000000000E+00 0. -1.
         21   -1    0    0  501  502 -0.00000000000E+00 -0.00000000000E+00 -0.97582120033E+02  0.97582120033E+02  0.00000000000E+00 0. -1.
      99926    2    1    2    0    0  0.00000000000E+00  0.00000000000E+00  0.42570075094E+03  0.62086499101E+03  0.45194270401E+03 0.  0.
      99925    2    3    3    0    0  0.45678608580E+02  0.73330307853E+02  0.17448636357E+03  0.32723248965E+03  0.26300521265E+03 0.  0.
         25    1    3    3    0    0 -0.45678608580E+02 -0.73330307853E+02  0.25121438737E+03  0.29363250136E+03  0.12509000000E+03 0.  0.
         25    1    4    4    0    0 -0.93204520787E+01  0.58028422083E+02  0.72752890721E+02  0.15618789903E+03  0.12509000000E+03 0.  0.
         25    1    4    4    0    0  0.54999060659E+02  0.15301885770E+02  0.10173347285E+03  0.17104459062E+03  0.12509000000E+03 0.  0.
<mgrwt>
<rscale>  2 0.45194270E+03</rscale>
<asrwt>0</asrwt>
<pdfrwt beam="1">  1       21 0.76953362E-01 0.45194270E+03</pdfrwt>
<pdfrwt beam="2">  1       21 0.14350312E-01 0.45194270E+03</pdfrwt>
<totfact> 0.58819148E+04</totfact>
</mgrwt>
</event>
<event>
 7    0  0.4779893E-002  0.4567772E+03  0.7546771E-02  0.1025720E+00
         21   -1    0    0  502  501  0.00000000000E+00  0.00000000000E+00  0.80012715658E+03  0.80012715658E+03  0.00000000000E+00 0.  1.
         21   -1    0    0  501  502 -0.00000000000E+00 -0.00000000000E+00 -0.65191317750E+02  0.65191317750E+02  0.00000000000E+00 0.  1.
      99926    2    1    2    0    0  0.00000000000E+00  0.00000000000E+00  0.73493583883E+03  0.86531847433E+03  0.45677716101E+03 0.  0.
      99925    2    3    3    0    0 -0.10639348442E+03  0.19484751070E+02  0.38797030800E+03  0.48095950574E+03  0.26287232114E+03 0.  0.
         25    1    4    4    0    0 -0.59017058071E+02  0.20266393325E+02  0.26329308832E+03  0.29810148993E+03  0.12509000000E+03 0.  0.
         25    1    3    3    0    0  0.10639348442E+03 -0.19484751070E+02  0.34696553082E+03  0.38435896858E+03  0.12509000000E+03 0.  0.
         25    1    4    4    0    0 -0.47376426353E+02 -0.78164225520E+00  0.12467721968E+03  0.18285801581E+03  0.12509000000E+03 0.  0.
<mgrwt>
<rscale>  2 0.45677716E+03</rscale>
<asrwt>0</asrwt>
<pdfrwt beam="1">  1       21 0.11766575E+00 0.45677716E+03</pdfrwt>
<pdfrwt beam="2">  1       21 0.95869590E-02 0.45677716E+03</pdfrwt>
<totfact> 0.44143125E+04</totfact>
</mgrwt>
</event>
<event>
 7    0  0.4779893E-002  0.4548811E+03  0.7546771E-02  0.1026276E+00
         21   -1    0    0  502  501  0.00000000000E+00  0.00000000000E+00  0.40258845211E+03  0.40258845211E+03  0.00000000000E+00 0. -1.
         21   -1    0    0  501  502 -0.00000000000E+00 -0.00000000000E+00 -0.12849152283E+03  0.12849152283E+03  0.00000000000E+00 0. -1.
      99926    2    1    2    0    0  0.00000000000E+00  0.00000000000E+00  0.27409692928E+03  0.53107997494E+03  0.45488109781E+03 0.  0.
      99925    2    3    3    0    0  0.92129630996E+02  0.65042842339E+02  0.16340427014E+03  0.32953887954E+03  0.26301421517E+03 0.  0.
         25    1    3    3    0    0 -0.92129630996E+02 -0.65042842339E+02  0.11069265914E+03  0.20154109540E+03  0.12509000000E+03 0.  0.
         25    1    4    4    0    0  0.88783046676E+02  0.33919332115E+02  0.94592309365E+02  0.18337983411E+03  0.12509000000E+03 0.  0.
         25    1    4    4    0    0  0.33465843202E+01  0.31123510224E+02  0.68811960771E+02  0.14615904543E+03  0.12509000000E+03 0.  0.
<mgrwt>
<rscale>  2 0.45488110E+03</rscale>
<asrwt>0</asrwt>
<pdfrwt beam="1">  1       21 0.59204184E-01 0.45488110E+03</pdfrwt>
<pdfrwt beam="2">  1       21 0.18895812E-01 0.45488110E+03</pdfrwt>
<totfact> 0.63192997E+04</totfact>
</mgrwt>
</event>
<event>
 7    0  0.4779893E-002  0.4537807E+03  0.7546771E-02  0.1026601E+00
         21   -1    0    0  502  501  0.00000000000E+00  0.00000000000E+00  0.33186420747E+03  0.33186420747E+03  0.00000000000E+00 0. -1.
         21   -1    0    0  501  502 -0.00000000000E+00 -0.00000000000E+00 -0.15512138352E+03  0.15512138352E+03  0.00000000000E+00 0. -1.
      99926    2    1    2    0    0  0.00000000000E+00  0.00000000000E+00  0.17674282395E+03  0.48698559099E+03  0.45378071798E+03 0.  0.
      99925    2    3    3    0    0 -0.11992196763E+02 -0.10568953982E+03  0.14910440583E+03  0.32047588597E+03  0.26298018564E+03 0.  0.
         25    1    4    4    0    0  0.79475192842E+00 -0.12737193938E+02  0.83279010000E+02  0.15081700616E+03  0.12509000000E+03 0.  0.
         25    1    3    3    0    0  0.11992196763E+02  0.10568953982E+03  0.27638418121E+02  0.16650970502E+03  0.12509000000E+03 0.  0.
         25    1    4    4    0    0 -0.12786948691E+02 -0.92952345879E+02  0.65825395833E+02  0.16965887981E+03  0.12509000000E+03 0.  0.
<mgrwt>
<rscale>  2 0.45378072E+03</rscale>
<asrwt>0</asrwt>
<pdfrwt beam="1">  1       21 0.48803560E-01 0.45378072E+03</pdfrwt>
<pdfrwt beam="2">  1       21 0.22811968E-01 0.45378072E+03</pdfrwt>
<totfact> 0.66839639E+04</totfact>
</mgrwt>
</event>
<event>
 7    0  0.4779893E-002  0.4584541E+03  0.7546771E-02  0.1025231E+00
         21   -1    0    0  502  501  0.00000000000E+00  0.00000000000E+00  0.42100907897E+02  0.42100907897E+02  0.00000000000E+00 0. -1.
         21   -1    0    0  501  502 -0.00000000000E+00 -0.00000000000E+00 -0.12480739596E+04  0.12480739596E+04  0.00000000000E+00 0. -1.
      99926    2    1    2    0    0  0.00000000000E+00  0.00000000000E+00 -0.12059730517E+04  0.12901748675E+04  0.45845412778E+03 0.  0.
      99925    2    3    3    0    0 -0.62301813064E+02  0.42847497097E+02 -0.10057531239E+04  0.10422778092E+04  0.26284265521E+03 0.  0.
         25    1    4    4    0    0 -0.33268236835E+02  0.54413353211E+02 -0.43321772248E+03  0.45540387763E+03  0.12509000000E+03 0.  0.
         25    1    4    4    0    0 -0.29033576229E+02 -0.11565856114E+02 -0.57253540143E+03  0.58687393158E+03  0.12509000000E+03 0.  0.
         25    1    3    3    0    0  0.62301813064E+02 -0.42847497097E+02 -0.20021992776E+03  0.24789705825E+03  0.12509000000E+03 0.  0.
<mgrwt>
<rscale>  2 0.45845413E+03</rscale>
<asrwt>0</asrwt>
<pdfrwt beam="1">  1       21 0.61913101E-02 0.45845413E+03</pdfrwt>
<pdfrwt beam="2">  1       21 0.18354029E+00 0.45845413E+03</pdfrwt>
<totfact> 0.28624421E+04</totfact>
</mgrwt>
</event>
<event>
 7    0  0.4779893E-002  0.4436448E+03  0.7546771E-02  0.1029634E+00
         21   -1    0    0  502  501  0.00000000000E+00  0.00000000000E+00  0.90470510927E+02  0.90470510927E+02  0.00000000000E+00 0. -1.
         21   -1    0    0  501  502 -0.00000000000E+00 -0.00000000000E+00 -0.54388074799E+03  0.54388074799E+03  0.00000000000E+00 0. -1.
      99926    2    1    2    0    0  0.00000000000E+00  0.00000000000E+00 -0.45341023706E+03  0.63435125892E+03  0.44364476399E+03 0.  0.
      99925    2    3    3    0    0  0.69893635654E+02 -0.74502700748E+02 -0.28933106524E+03  0.40412255643E+03  0.26299582236E+03 0.  0.
         25    1    4    4    0    0  0.32729766243E+02 -0.16522359971E+02 -0.87931623509E+02  0.15723773240E+03  0.12509000000E+03 0.  0.
         25    1    3    3    0    0 -0.69893635654E+02  0.74502700748E+02 -0.16407917182E+03  0.23022870249E+03  0.12509000000E+03 0.  0.
         25    1    4    4    0    0  0.37163869411E+02 -0.57980340776E+02 -0.20139944173E+03  0.24688482403E+03  0.12509000000E+03 0.  0.
<mgrwt>
<rscale>  2 0.44364476E+03</rscale>
<asrwt>0</asrwt>
<pdfrwt beam="1">  1       21 0.13304487E-01 0.44364476E+03</pdfrwt>
<pdfrwt beam="2">  1       21 0.79982460E-01 0.44364476E+03</pdfrwt>
<totfact> 0.61982999E+04</totfact>
</mgrwt>
</event>
<event>
 7    0  0.4779893E-002  0.4555046E+03  0.7546771E-02  0.1026093E+00
         21   -1    0    0  502  501  0.00000000000E+00  0.00000000000E+00  0.17702604757E+03  0.17702604757E+03  0.00000000000E+00 0.  1.
         21   -1    0    0  501  502 -0.00000000000E+00 -0.00000000000E+00 -0.29301402474E+03  0.29301402474E+03  0.00000000000E+00 0.  1.
      99926    2    1    2    0    0  0.00000000000E+00  0.17763568394E-14 -0.11598797718E+03  0.47004007231E+03  0.45550461988E+03 0.  0.
      99925    2    3    3    0    0  0.68178394053E+01 -0.96525233081E+01 -0.18958441471E+03  0.32442551995E+03  0.26300192690E+03 0.  0.
         25    1    4    4    0    0 -0.10926975163E+02  0.32328979320E+02 -0.10324473154E+03  0.16574542039E+03  0.12509000000E+03 0.  0.
         25    1    4    4    0    0  0.17744814568E+02 -0.41981502628E+02 -0.86339683175E+02  0.15868009956E+03  0.12509000000E+03 0.  0.
         25    1    3    3    0    0 -0.68178394053E+01  0.96525233081E+01  0.73596437533E+02  0.14561455236E+03  0.12509000000E+03 0.  0.
<mgrwt>
<rscale>  2 0.45550462E+03</rscale>
<asrwt>0</asrwt>
<pdfrwt beam="1">  1       21 0.26033242E-01 0.45550462E+03</pdfrwt>
<pdfrwt beam="2">  1       21 0.43090298E-01 0.45550462E+03</pdfrwt>
<totfact> 0.67163479E+04</totfact>
</mgrwt>
</event>
<event>
 7    0  0.4779893E-002  0.4622464E+03  0.7546771E-02  0.1024132E+00
         21   -1    0    0  502  501  0.00000000000E+00  0.00000000000E+00  0.37476196995E+03  0.37476196995E+03  0.00000000000E+00 0. -1.
         21   -1    0    0  501  502 -0.00000000000E+00 -0.00000000000E+00 -0.14253829751E+03  0.14253829751E+03  0.00000000000E+00 0. -1.
      99926    2    1    2    0    0 -0.88817841970E-15  0.00000000000E+00  0.23222367244E+03  0.51730026746E+03  0.46224639823E+03 0.  0.
      99925    2    3    3    0    0 -0.11646827709E+01  0.11234538041E+03  0.99355623061E+02  0.30300078629E+03  0.26327760192E+03 0.  0.
         25    1    4    4    0    0 -0.38239873479E+02  0.39711762176E+02  0.41501035398E+02  0.14286061745E+03  0.12509000000E+03 0.  0.
         25    1    3    3    0    0  0.11646827709E+01 -0.11234538041E+03  0.13286804938E+03  0.21429948117E+03  0.12509000000E+03 0.  0.
         25    1    4    4    0    0  0.37075190709E+02  0.72633618230E+02  0.57854587663E+02  0.16014016884E+03  0.12509000000E+03 0.  0.
<mgrwt>
<rscale>  2 0.46224640E+03</rscale>
<asrwt>0</asrwt>
<pdfrwt beam="1">  1       21 0.55112055E-01 0.46224640E+03</pdfrwt>
<pdfrwt beam="2">  1       21 0.20961514E-01 0.46224640E+03</pdfrwt>
<totfact> 0.60516062E+04</totfact>
</mgrwt>
</event>
<event>
 7    0  0.4779893E-002  0.4584011E+03  0.7546771E-02  0.1025246E+00
         21   -1    0    0  502  501  0.00000000000E+00  0.00000000000E+00  0.21345574262E+03  0.21345574262E+03  0.00000000000E+00 0.  1.
         21   -1    0    0  501  502 -0.00000000000E+00 -0.00000000000E+00 -0.24610669269E+03  0.24610669269E+03  0.00000000000E+00 0.  1.
      99926    2    1    2    0    0  0.14210854715E-13  0.14210854715E-13 -0.32650950064E+02  0.45956243531E+03  0.45840107701E+03 0.  0.
      99925    2    3    3    0    0  0.78147246642E+02  0.76336649058E+02  0.19337081065E+02  0.28553789788E+03  0.26310395716E+03 0.  0.
         25    1    4    4    0    0  0.76812398095E+02  0.50495069774E+02 -0.58349512138E+01  0.15534301184E+03  0.12509000000E+03 0.  0.
         25    1    4    4    0    0  0.13348485466E+01  0.25841579283E+02  0.25172032278E+02  0.13019488603E+03  0.12509000000E+03 0.  0.
         25    1    3    3    0    0 -0.78147246642E+02 -0.76336649058E+02 -0.51988031128E+02  0.17402453743E+03  0.12509000000E+03 0.  0.
<mgrwt>
<rscale>  2 0.45840108E+03</rscale>
<asrwt>0</asrwt>
<pdfrwt beam="1">  1       21 0.31390550E-01 0.45840108E+03</pdfrwt>
<pdfrwt beam="2">  1       21 0.36192161E-01 0.45840108E+03</pdfrwt>
<totfact> 0.66392838E+04</totfact>
</mgrwt>
</event>
<event>
 7    0  0.4779893E-002  0.4559106E+03  0.7546771E-02  0.1025974E+00
         21   -1    0    0  502  501  0.00000000000E+00  0.00000000000E+00  0.14527911380E+03  0.14527911380E+03  0.00000000000E+00 0.  1.
         21   -1    0    0  501  502 -0.00000000000E+00 -0.00000000000E+00 -0.35768129707E+03  0.35768129707E+03  0.00000000000E+00 0.  1.
      99926    2    1    2    0    0 -0.71054273576E-14  0.14210854715E-13 -0.21240218328E+03  0.50296041087E+03  0.45591061344E+03 0.  0.
      99925    2    3    3    0    0 -0.48703128658E+02  0.10075460853E+03 -0.10961925964E+03  0.30614749622E+03  0.26303311860E+03 0.  0.
         25    1    3    3    0    0  0.48703128658E+02 -0.10075460853E+03 -0.10278292364E+03  0.19681291465E+03  0.12509000000E+03 0.  0.
         25    1    4    4    0    0 -0.28623024760E+02  0.16388619385E+02 -0.24211375637E+02  0.13161140985E+03  0.12509000000E+03 0.  0.
         25    1    4    4    0    0 -0.20080103898E+02  0.84365989150E+02 -0.85407884001E+02  0.17453608638E+03  0.12509000000E+03 0.  0.
<mgrwt>
<rscale>  2 0.45591061E+03</rscale>
<asrwt>0</asrwt>
<pdfrwt beam="1">  1       21 0.21364576E-01 0.45591061E+03</pdfrwt>
<pdfrwt beam="2">  1       21 0.52600191E-01 0.45591061E+03</pdfrwt>
<totfact> 0.64595012E+04</totfact>
</mgrwt>
</event>
<event>
 7    0  0.4779893E-002  0.4515767E+03  0.7546771E-02  0.1027253E+00
         21   -1    0    0  502  501  0.00000000000E+00  0.00000000000E+00  0.26190340374E+02  0.26190340374E+02  0.00000000000E+00 0.  1.
         21   -1    0    0  501  502 -0.00000000000E+00 -0.00000000000E+00 -0.19465338355E+04  0.19465338355E+04  0.00000000000E+00 0.  1.
      99926    2    1    2    0    0 -0.14210854715E-13 -0.35527136788E-14 -0.19203434952E+04  0.19727241759E+04  0.45157672084E+03 0.  0.
      99925    2    3    3    0    0 -0.10217683441E+03 -0.31335958071E+02 -0.13243950437E+04  0.13544814140E+04  0.26301258777E+03 0.  0.
         25    1    4    4    0    0 -0.23281753164E+02  0.17513345526E+01 -0.47922587792E+03  0.49583269091E+03  0.12509000000E+03 0.  0.
         25    1    4    4    0    0 -0.78895081247E+02 -0.33087292624E+02 -0.84516916582E+03  0.85864872313E+03  0.12509000000E+03 0.  0.
         25    1    3    3    0    0  0.10217683441E+03  0.31335958071E+02 -0.59594845143E+03  0.61824276188E+03  0.12509000000E+03 0.  0.
<mgrwt>
<rscale>  2 0.45157672E+03</rscale>
<asrwt>0</asrwt>
<pdfrwt beam="1">  1       21 0.38515209E-02 0.45157672E+03</pdfrwt>
<pdfrwt beam="2">  1       21 0.28625496E+00 0.45157672E+03</pdfrwt>
<totfact> 0.14542887E+04</totfact>
</mgrwt>
</event>
<event>
 7    0  0.4779893E-002  0.4542579E+03  0.7546771E-02  0.1026460E+00
         21   -1    0    0  502  501  0.00000000000E+00  0.00000000000E+00  0.12648055140E+03  0.12648055140E+03  0.00000000000E+00 0. -1.
         21   -1    0    0  501  502 -0.00000000000E+00 -0.00000000000E+00 -0.40786945117E+03  0.40786945117E+03  0.00000000000E+00 0. -1.
      99926    2    1    2    0    0  0.17763568394E-14  0.00000000000E+00 -0.28138889977E+03  0.53435000256E+03  0.45425786986E+03 0.  0.
      99925    2    3    3    0    0 -0.11454041982E+02 -0.11110307183E+03 -0.18910475811E+03  0.34293694515E+03  0.26338194919E+03 0.  0.
         25    1    3    3    0    0  0.11454041982E+02  0.11110307183E+03 -0.92284141657E+02  0.19141305741E+03  0.12509000000E+03 0.  0.
         25    1    4    4    0    0 -0.41777816804E+02 -0.56423005428E+02 -0.11963735439E+03  0.18678743583E+03  0.12509000000E+03 0.  0.
         25    1    4    4    0    0  0.30323774821E+02 -0.54680066401E+02 -0.69467403725E+02  0.15614950932E+03  0.12509000000E+03 0.  0.
<mgrwt>
<rscale>  2 0.45425787E+03</rscale>
<asrwt>0</asrwt>
<pdfrwt beam="1">  1       21 0.18600081E-01 0.45425787E+03</pdfrwt>
<pdfrwt beam="2">  1       21 0.59980801E-01 0.45425787E+03</pdfrwt>
<totfact> 0.63283582E+04</totfact>
</mgrwt>
</event>
<event>
 7    0  0.4779893E-002  0.4503935E+03  0.7546771E-02  0.1027605E+00
         21   -1    0    0  502  501  0.00000000000E+00  0.00000000000E+00  0.14445979618E+03  0.14445979618E+03  0.00000000000E+00 0.  1.
         21   -1    0    0  501  502 -0.00000000000E+00 -0.00000000000E+00 -0.35105670279E+03  0.35105670279E+03  0.00000000000E+00 0.  1.
      99926    2    1    2    0    0  0.00000000000E+00 -0.35527136788E-14 -0.20659690662E+03  0.49551649897E+03  0.45039351564E+03 0.  0.
      99925    2    3    3    0    0 -0.10467431180E+03  0.31765218436E+02 -0.13448591314E+03  0.31437223565E+03  0.26225503057E+03 0.  0.
         25    1    3    3    0    0  0.10467431180E+03 -0.31765218436E+02 -0.72110993476E+02  0.18114426332E+03  0.12509000000E+03 0.  0.
         25    1    4    4    0    0 -0.67912954177E+02  0.36548119260E+02 -0.10500814592E+03  0.18061603798E+03  0.12509000000E+03 0.  0.
         25    1    4    4    0    0 -0.36761357627E+02 -0.47829008241E+01 -0.29477767228E+02  0.13375619767E+03  0.12509000000E+03 0.  0.
<mgrwt>
<rscale>  2 0.45039352E+03</rscale>
<asrwt>0</asrwt>
<pdfrwt beam="1">  1       21 0.21244088E-01 0.45039352E+03</pdfrwt>
<pdfrwt beam="2">  1       21 0.51625985E-01 0.45039352E+03</pdfrwt>
<totfact> 0.68041055E+04</totfact>
</mgrwt>
</event>
<event>
 7    0  0.4779893E-002  0.4587831E+03  0.7546771E-02  0.1025135E+00
         21   -1    0    0  502  501  0.00000000000E+00  0.00000000000E+00  0.96918255696E+02  0.96918255696E+02  0.00000000000E+00 0. -1.
         21   -1    0    0  501  502 -0.00000000000E+00 -0.00000000000E+00 -0.54293682028E+03  0.54293682028E+03  0.00000000000E+00 0. -1.
      99926    2    1    2    0    0 -0.14210854715E-13  0.00000000000E+00 -0.44601856458E+03  0.63985507597E+03  0.45878312774E+03 0.  0.
      99925    2    3    3    0    0 -0.86988083882E+02  0.63437285786E+02 -0.34246370082E+03  0.44501582461E+03  0.26299521251E+03 0.  0.
         25    1    4    4    0    0 -0.53000565487E+02 -0.81488117946E+01 -0.16471435615E+03  0.21366747599E+03  0.12509000000E+03 0.  0.
         25    1    3    3    0    0  0.86988083882E+02 -0.63437285786E+02 -0.10355486375E+03  0.19483925137E+03  0.12509000000E+03 0.  0.
         25    1    4    4    0    0 -0.33987518395E+02  0.71586097581E+02 -0.17774934468E+03  0.23134834861E+03  0.12509000000E+03 0.  0.
<mgrwt>
<rscale>  2 0.45878313E+03</rscale>
<asrwt>0</asrwt>
<pdfrwt beam="1">  1       21 0.14252685E-01 0.45878313E+03</pdfrwt>
<pdfrwt beam="2">  1       21 0.79843650E-01 0.45878313E+03</pdfrwt>
<totfact> 0.54640069E+04</totfact>
</mgrwt>
</event>
<event>
 7    0  0.4779893E-002  0.4505412E+03  0.7546771E-02  0.1027561E+00
         21   -1    0    0  502  501  0.00000000000E+00  0.00000000000E+00  0.12808095277E+03  0.12808095277E+03  0.00000000000E+00 0. -1.
         21   -1    0    0  501  502 -0.00000000000E+00 -0.00000000000E+00 -0.39620910215E+03  0.39620910215E+03  0.00000000000E+00 0. -1.
      99926    2    1    2    0    0  0.00000000000E+00  0.00000000000E+00 -0.26812814938E+03  0.52429005492E+03  0.45054118257E+03 0.  0.
      99925    2    3    3    0    0 -0.84933979130E+02  0.51349148349E+02 -0.22167236760E+03  0.35798863097E+03  0.26299563779E+03 0.  0.
         25    1    3    3    0    0  0.84933979130E+02 -0.51349148349E+02 -0.46455781783E+02  0.16630142395E+03  0.12509000000E+03 0.  0.
         25    1    4    4    0    0 -0.82409722607E+01  0.41235595934E+02 -0.12649142643E+03  0.18280010136E+03  0.12509000000E+03 0.  0.
         25    1    4    4    0    0 -0.76693006869E+02  0.10113552414E+02 -0.95180941171E+02  0.17518852961E+03  0.12509000000E+03 0.  0.
<mgrwt>
<rscale>  2 0.45054118E+03</rscale>
<asrwt>0</asrwt>
<pdfrwt beam="1">  1       21 0.18835434E-01 0.45054118E+03</pdfrwt>
<pdfrwt beam="2">  1       21 0.58266045E-01 0.45054118E+03</pdfrwt>
<totfact> 0.65893021E+04</totfact>
</mgrwt>
</event>
<event>
 7    0  0.4779893E-002  0.4541047E+03  0.7546771E-02  0.1026505E+00
         21   -1    0    0  502  501  0.00000000000E+00  0.00000000000E+00  0.17084159211E+03  0.17084159211E+03  0.00000000000E+00 0. -1.
         21   -1    0    0  501  502 -0.00000000000E+00 -0.00000000000E+00 -0.30175773332E+03  0.30175773332E+03  0.00000000000E+00 0. -1.
      99926    2    1    2    0    0  0.00000000000E+00 -0.35527136788E-14 -0.13091614121E+03  0.47259932542E+03  0.45410470859E+03 0.  0.
      99925    2    3    3    0    0 -0.63077943896E+02 -0.25691742651E+02  0.10492622823E+02  0.27189347276E+03  0.26301534699E+03 0.  0.
         25    1    4    4    0    0  0.21418269484E+00 -0.38559699857E+02  0.63621934088E+01  0.13105297376E+03  0.12509000000E+03 0.  0.
         25    1    3    3    0    0  0.63077943896E+02  0.25691742651E+02 -0.14140876403E+03  0.20070585266E+03  0.12509000000E+03 0.  0.
         25    1    4    4    0    0 -0.63292126591E+02  0.12867957207E+02  0.41304294145E+01  0.14084049900E+03  0.12509000000E+03 0.  0.
<mgrwt>
<rscale>  2 0.45410471E+03</rscale>
<asrwt>0</asrwt>
<pdfrwt beam="1">  1       21 0.25123764E-01 0.45410471E+03</pdfrwt>
<pdfrwt beam="2">  1       21 0.44376137E-01 0.45410471E+03</pdfrwt>
<totfact> 0.67722760E+04</totfact>
</mgrwt>
</event>
<event>
 7    0  0.4779893E-002  0.4480419E+03  0.7546771E-02  0.1028308E+00
         21   -1    0    0  502  501  0.00000000000E+00  0.00000000000E+00  0.20100272442E+03  0.20100272442E+03  0.00000000000E+00 0. -1.
         21   -1    0    0  501  502 -0.00000000000E+00 -0.00000000000E+00 -0.24967518963E+03  0.24967518963E+03  0.00000000000E+00 0. -1.
      99926    2    1    2    0    0  0.35527136788E-14  0.14210854715E-13 -0.48672465211E+02  0.45067791405E+03  0.44804193257E+03 0.  0.
      99925    2    3    3    0    0  0.29415356036E+02  0.10048336244E+03 -0.11254748058E+02  0.28331673888E+03  0.26302002942E+03 0.  0.
         25    1    4    4    0    0  0.20589591569E+02  0.68298447391E+02 -0.42486933575E+02  0.15013745975E+03  0.12509000000E+03 0.  0.
         25    1    3    3    0    0 -0.29415356036E+02 -0.10048336244E+03 -0.37417717153E+02  0.16736117517E+03  0.12509000000E+03 0.  0.
         25    1    4    4    0    0  0.88257644669E+01  0.32184915054E+02  0.31232185517E+02  0.13317927912E+03  0.12509000000E+03 0.  0.
<mgrwt>
<rscale>  2 0.44804193E+03</rscale>
<asrwt>0</asrwt>
<pdfrwt beam="1">  1       21 0.29559224E-01 0.44804193E+03</pdfrwt>
<pdfrwt beam="2">  1       21 0.36716939E-01 0.44804193E+03</pdfrwt>
<totfact> 0.72823111E+04</totfact>
</mgrwt>
</event>
<event>
 7    0  0.4779893E-002  0.4540461E+03  0.7546771E-02  0.1026522E+00
         21   -1    0    0  502  501  0.00000000000E+00  0.00000000000E+00  0.27618461792E+03  0.27618461792E+03  0.00000000000E+00 0.  1.
         21   -1    0    0  501  502 -0.00000000000E+00 -0.00000000000E+00 -0.18661233015E+03  0.18661233015E+03  0.00000000000E+00 0.  1.
      99926    2    1    2    0    0  0.00000000000E+00  0.00000000000E+00  0.89572287774E+02  0.46279694807E+03  0.45404605538E+03 0.  0.
      99925    2    3    3    0    0  0.96338663850E+02  0.55787915894E+02  0.71243878601E+02  0.29434259700E+03  0.26299894383E+03 0.  0.
         25    1    4    4    0    0  0.50941615512E+02  0.65476292116E+02  0.55328084359E+02  0.15997155384E+03  0.12509000000E+03 0.  0.
         25    1    4    4    0    0  0.45397048338E+02 -0.96883762222E+01  0.15915794242E+02  0.13437104315E+03  0.12509000000E+03 0.  0.
         25    1    3    3    0    0 -0.96338663850E+02 -0.55787915894E+02  0.18328409173E+02  0.16845435107E+03  0.12509000000E+03 0.  0.
<mgrwt>
<rscale>  2 0.45404606E+03</rscale>
<asrwt>0</asrwt>
<pdfrwt beam="1">  1       21 0.40615385E-01 0.45404606E+03</pdfrwt>
<pdfrwt beam="2">  1       21 0.27442989E-01 0.45404606E+03</pdfrwt>
<totfact> 0.68491978E+04</totfact>
</mgrwt>
</event>
<event>
 7    0  0.4779893E-002  0.4585324E+03  0.7546771E-02  0.1025208E+00
         21   -1    0    0  502  501  0.00000000000E+00  0.00000000000E+00  0.69759390100E+03  0.69759390100E+03  0.00000000000E+00 0.  1.
         21   -1    0    0  501  502 -0.00000000000E+00 -0.00000000000E+00 -0.75348967777E+02  0.75348967777E+02  0.00000000000E+00 0.  1.
      99926    2    1    2    0    0  0.00000000000E+00 -0.14210854715E-13  0.62224493322E+03  0.77294286877E+03  0.45853235597E+03 0.  0.
      99925    2    3    3    0    0 -0.48338158427E+02  0.89135540633E+02  0.29593599290E+03  0.40906547899E+03  0.26358059876E+03 0.  0.
         25    1    3    3    0    0  0.48338158427E+02 -0.89135540633E+02  0.32630894031E+03  0.36387738978E+03  0.12509000000E+03 0.  0.
         25    1    4    4    0    0 -0.37271236402E+02  0.23997225449E+02  0.19251534290E+03  0.23382616886E+03  0.12509000000E+03 0.  0.
         25    1    4    4    0    0 -0.11066922025E+02  0.65138315184E+02  0.10342065001E+03  0.17523931013E+03  0.12509000000E+03 0.  0.
<mgrwt>
<rscale>  2 0.45853236E+03</rscale>
<asrwt>0</asrwt>
<pdfrwt beam="1">  1       21 0.10258733E+00 0.45853236E+03</pdfrwt>
<pdfrwt beam="2">  1       21 0.11080731E-01 0.45853236E+03</pdfrwt>
<totfact> 0.47763146E+04</totfact>
</mgrwt>
</event>
<event>
 7    0  0.4779893E-002  0.4467325E+03  0.7546771E-02  0.1028701E+00
         21   -1    0    0  502  501  0.00000000000E+00  0.00000000000E+00  0.20365808793E+03  0.20365808793E+03  0.00000000000E+00 0. -1.
         21   -1    0    0  501  502 -0.00000000000E+00 -0.00000000000E+00 -0.24498158397E+03  0.24498158397E+03  0.00000000000E+00 0. -1.
      99926    2    1    2    0    0  0.35527136788E-14  0.00000000000E+00 -0.41323496044E+02  0.44863967190E+03  0.44673249701E+03 0.  0.
      99925    2    3    3    0    0 -0.23826050791E+02  0.10240890332E+03 -0.22020432533E+02  0.28409368886E+03  0.26300011487E+03 0.  0.
         25    1    3    3    0    0  0.23826050791E+02 -0.10240890332E+03 -0.19303063511E+02  0.16454598305E+03  0.12509000000E+03 0.  0.
         25    1    4    4    0    0 -0.86244510306E+01  0.45314336796E+02  0.29360692781E+02  0.13651860187E+03  0.12509000000E+03 0.  0.
         25    1    4    4    0    0 -0.15201599761E+02  0.57094566525E+02 -0.51381125314E+02  0.14757508699E+03  0.12509000000E+03 0.  0.
<mgrwt>
<rscale>  2 0.44673250E+03</rscale>
<asrwt>0</asrwt>
<pdfrwt beam="1">  1       21 0.29949719E-01 0.44673250E+03</pdfrwt>
<pdfrwt beam="2">  1       21 0.36026703E-01 0.44673250E+03</pdfrwt>
<totfact> 0.73761042E+04</totfact>
</mgrwt>
</event>
<event>
 7    0  0.4779893E-002  0.4528710E+03  0.7546771E-02  0.1026869E+00
         21   -1    0    0  502  501  0.00000000000E+00  0.00000000000E+00  0.10507612709E+04  0.10507612709E+04  0.00000000000E+00 0.  1.
         21   -1    0    0  501  502 -0.00000000000E+00 -0.00000000000E+00 -0.48796085503E+02  0.48796085503E+02  0.00000000000E+00 0.  1.
      99926    2    1    2    0    0  0.00000000000E+00  0.00000000000E+00  0.10019651854E+04  0.10995573564E+04  0.45287100510E+03 0.  0.
      99925    2    3    3    0    0 -0.41024429011E+02  0.24749778177E+02  0.38822076919E+03  0.47136529037E+03  0.26301010635E+03 0.  0.
         25    1    4    4    0    0 -0.86646775417E+01  0.41660492149E+02  0.15049451058E+03  0.20026676973E+03  0.12509000000E+03 0.  0.
         25    1    4    4    0    0 -0.32359751469E+02 -0.16910713972E+02  0.23772625861E+03  0.27109852065E+03  0.12509000000E+03 0.  0.
         25    1    3    3    0    0  0.41024429011E+02 -0.24749778177E+02  0.61374441616E+03  0.62819206599E+03  0.12509000000E+03 0.  0.
<mgrwt>
<rscale>  2 0.45287101E+03</rscale>
<asrwt>0</asrwt>
<pdfrwt beam="1">  1       21 0.15452370E+00 0.45287101E+03</pdfrwt>
<pdfrwt beam="2">  1       21 0.71758956E-02 0.45287101E+03</pdfrwt>
<totfact> 0.36105527E+04</totfact>
</mgrwt>
</event>
<event>
 7    0  0.4779893E-002  0.4466795E+03  0.7546771E-02  0.1028717E+00
         21   -1    0    0  502  501  0.00000000000E+00  0.00000000000E+00  0.11660696989E+04  0.11660696989E+04  0.00000000000E+00 0.  1.
         21   -1    0    0  501  502 -0.00000000000E+00 -0.00000000000E+00 -0.42776716717E+02  0.42776716717E+02  0.00000000000E+00 0.  1.
      99926    2    1    2    0    0  0.00000000000E+00  0.35527136788E-14  0.11232929822E+04  0.12088464156E+04  0.44667945188E+03 0.  0.
      99925    2    3    3    0    0 -0.41462362311E+02 -0.18032932432E+02  0.96954289333E+03  0.10055463614E+04  0.26280363141E+03 0.  0.
         25    1    4    4    0    0 -0.33670944362E+02  0.23276924423E+01  0.35207076075E+03  0.37515394083E+03  0.12509000000E+03 0.  0.
         25    1    3    3    0    0  0.41462362311E+02  0.18032932432E+02  0.15375008885E+03  0.20330005426E+03  0.12509000000E+03 0.  0.
         25    1    4    4    0    0 -0.77914179497E+01 -0.20360624874E+02  0.61747213259E+03  0.63039242053E+03  0.12509000000E+03 0.  0.
<mgrwt>
<rscale>  2 0.44667945E+03</rscale>
<asrwt>0</asrwt>
<pdfrwt beam="1">  1       21 0.17148082E+00 0.44667945E+03</pdfrwt>
<pdfrwt beam="2">  1       21 0.62906944E-02 0.44667945E+03</pdfrwt>
<totfact> 0.34029368E+04</totfact>
</mgrwt>
</event>
<event>
 7    0  0.4779893E-002  0.4524007E+03  0.7546771E-02  0.1027009E+00
         21   -1    0    0  502  501  0.00000000000E+00  0.00000000000E+00  0.10288286662E+03  0.10288286662E+03  0.00000000000E+00 0.  1.
         21   -1    0    0  501  502 -0.00000000000E+00 -0.00000000000E+00 -0.49732873689E+03  0.49732873689E+03  0.00000000000E+00 0.  1.
      99926    2    1    2    0    0  0.00000000000E+00  0.00000000000E+00 -0.39444587027E+03  0.60021160351E+03  0.45240073432E+03 0.  0.
      99925    2    3    3    0    0 -0.10389832345E+03 -0.38099136415E+02 -0.23960907414E+03  0.37246536897E+03  0.26281464354E+03 0.  0.
         25    1    4    4    0    0 -0.87121886393E+02 -0.42794413882E+02 -0.12192362487E+03  0.19983609121E+03  0.12509000000E+03 0.  0.
         25    1    4    4    0    0 -0.16776437056E+02  0.46952774668E+01 -0.11768544927E+03  0.17262927776E+03  0.12509000000E+03 0.  0.
         25    1    3    3    0    0  0.10389832345E+03  0.38099136415E+02 -0.15483679613E+03  0.22774623454E+03  0.12509000000E+03 0.  0.
<mgrwt>
<rscale>  2 0.45240073E+03</rscale>
<asrwt>0</asrwt>
<pdfrwt beam="1">  1       21 0.15129834E-01 0.45240073E+03</pdfrwt>
<pdfrwt beam="2">  1       21 0.73136578E-01 0.45240073E+03</pdfrwt>
<totfact> 0.59885678E+04</totfact>
</mgrwt>
</event>
<event>
 7    0  0.4779893E-002  0.4573695E+03  0.7546771E-02  0.1025547E+00
         21   -1    0    0  502  501  0.00000000000E+00  0.00000000000E+00  0.25008177027E+03  0.25008177027E+03  0.00000000000E+00 0. -1.
         21   -1    0    0  501  502 -0.00000000000E+00 -0.00000000000E+00 -0.20911842756E+03  0.20911842756E+03  0.00000000000E+00 0. -1.
      99926    2    1    2    0    0  0.00000000000E+00  0.00000000000E+00  0.40963342703E+02  0.45920019783E+03  0.45736946361E+03 0.  0.
      99925    2    3    3    0    0 -0.80396631481E+02  0.51533368517E+02  0.90700344311E+02  0.29415298079E+03  0.26302113456E+03 0.  0.
         25    1    4    4    0    0 -0.47551804243E+02 -0.47580331451E+01  0.16921521786E+02  0.13497280825E+03  0.12509000000E+03 0.  0.
         25    1    4    4    0    0 -0.32844827238E+02  0.56291401663E+02  0.73778822526E+02  0.15918017254E+03  0.12509000000E+03 0.  0.
         25    1    3    3    0    0  0.80396631481E+02 -0.51533368517E+02 -0.49737001608E+02  0.16504721704E+03  0.12509000000E+03 0.  0.
<mgrwt>
<rscale>  2 0.45736946E+03</rscale>
<asrwt>0</asrwt>
<pdfrwt beam="1">  1       21 0.36776731E-01 0.45736946E+03</pdfrwt>
<pdfrwt beam="2">  1       21 0.30752710E-01 0.45736946E+03</pdfrwt>
<totfact> 0.66964249E+04</totfact>
</mgrwt>
</event>
<event>
 7    0  0.4779893E-002  0.4598731E+03  0.7546771E-02  0.1024818E+00
         21   -1    0    0  502  501  0.00000000000E+00  0.00000000000E+00  0.17813501221E+03  0.17813501221E+03  0.00000000000E+00 0.  1.
         21   -1    0    0  501  502 -0.00000000000E+00 -0.00000000000E+00 -0.29680196767E+03  0.29680196767E+03  0.00000000000E+00 0.  1.
      99926    2    1    2    0    0  0.71054273576E-14  0.00000000000E+00 -0.11866695546E+03  0.47493697989E+03  0.45987312222E+03 0.  0.
      99925    2    3    3    0    0 -0.57561867497E+02  0.93162595584E+02 -0.29895000614E+02  0.28646786869E+03  0.26301614195E+03 0.  0.
         25    1    4    4    0    0 -0.35687777882E+02  0.75298239368E+02  0.13931396793E+02  0.15094712405E+03  0.12509000000E+03 0.  0.
         25    1    4    4    0    0 -0.21874089615E+02  0.17864356216E+02 -0.43826397407E+02  0.13552074465E+03  0.12509000000E+03 0.  0.
         25    1    3    3    0    0  0.57561867497E+02 -0.93162595584E+02 -0.88771954849E+02  0.18846911119E+03  0.12509000000E+03 0.  0.
<mgrwt>
<rscale>  2 0.45987312E+03</rscale>
<asrwt>0</asrwt>
<pdfrwt beam="1">  1       21 0.26196326E-01 0.45987312E+03</pdfrwt>
<pdfrwt beam="2">  1       21 0.43647347E-01 0.45987312E+03</pdfrwt>
<totfact> 0.64538850E+04</totfact>
</mgrwt>
</event>
<event>
 7    0  0.4779893E-002  0.4672567E+03  0.7546771E-02  0.1022697E+00
         21   -1    0    0  502  501  0.00000000000E+00  0.00000000000E+00  0.33387088423E+03  0.33387088423E+03  0.00000000000E+00 0. -1.
         21   -1    0    0  501  502 -0.00000000000E+00 -0.00000000000E+00 -0.16348296326E+03  0.16348296326E+03  0.00000000000E+00 0. -1.
      99926    2    1    2    0    0  0.00000000000E+00  0.00000000000E+00  0.17038792097E+03  0.49735384749E+03  0.46725668106E+03 0.  0.
      99925    2    3    3    0    0 -0.43248178754E+02 -0.11580588079E+03  0.97431826094E+02  0.30695556265E+03  0.26352865065E+03 0.  0.
         25    1    3    3    0    0  0.43248178754E+02  0.11580588079E+03  0.72956094874E+02  0.19039828484E+03  0.12509000000E+03 0.  0.
         25    1    4    4    0    0 -0.19848330655E+02 -0.55415597438E+02  0.47330530010E+01  0.13832843005E+03  0.12509000000E+03 0.  0.
         25    1    4    4    0    0 -0.23399848099E+02 -0.60390283354E+02  0.92698773093E+02  0.16862713260E+03  0.12509000000E+03 0.  0.
<mgrwt>
<rscale>  2 0.46725668E+03</rscale>
<asrwt>0</asrwt>
<pdfrwt beam="1">  1       21 0.49098659E-01 0.46725668E+03</pdfrwt>
<pdfrwt beam="2">  1       21 0.24041612E-01 0.46725668E+03</pdfrwt>
<totfact> 0.59457667E+04</totfact>
</mgrwt>
</event>
<event>
 7    0  0.4779893E-002  0.4669423E+03  0.7546771E-02  0.1022787E+00
         21   -1    0    0  502  501  0.00000000000E+00  0.00000000000E+00  0.11838558044E+04  0.11838558044E+04  0.00000000000E+00 0.  1.
         21   -1    0    0  501  502 -0.00000000000E+00 -0.00000000000E+00 -0.46043429888E+02  0.46043429888E+02  0.00000000000E+00 0.  1.
      99926    2    1    2    0    0  0.00000000000E+00  0.00000000000E+00  0.11378123745E+04  0.12298992343E+04  0.46694231647E+03 0.  0.
      99925    2    3    3    0    0  0.12226387799E+03  0.21039679945E+02  0.68810113394E+03  0.74690976029E+03  0.26267831181E+03 0.  0.
         25    1    4    4    0    0  0.36919296363E+02  0.19842323182E+02  0.40362042646E+03  0.42463361736E+03  0.12509000000E+03 0.  0.
         25    1    4    4    0    0  0.85344581631E+02  0.11973567628E+01  0.28448070748E+03  0.32227614293E+03  0.12509000000E+03 0.  0.
         25    1    3    3    0    0 -0.12226387799E+03 -0.21039679945E+02  0.44971124058E+03  0.48298947400E+03  0.12509000000E+03 0.  0.
<mgrwt>
<rscale>  2 0.46694232E+03</rscale>
<asrwt>0</asrwt>
<pdfrwt beam="1">  1       21 0.17409642E+00 0.46694232E+03</pdfrwt>
<pdfrwt beam="2">  1       21 0.67710934E-02 0.46694232E+03</pdfrwt>
<totfact> 0.28478848E+04</totfact>
</mgrwt>
</event>
<event>
 7    0  0.4779893E-002  0.4543006E+03  0.7546771E-02  0.1026447E+00
         21   -1    0    0  502  501  0.00000000000E+00  0.00000000000E+00  0.86496238830E+02  0.86496238830E+02  0.00000000000E+00 0. -1.
         21   -1    0    0  501  502 -0.00000000000E+00 -0.00000000000E+00 -0.59652600471E+03  0.59652600471E+03  0.00000000000E+00 0. -1.
      99926    2    1    2    0    0  0.14210854715E-13 -0.11102230246E-15 -0.51002976588E+03  0.68302224354E+03  0.45430058671E+03 0.  0.
      99925    2    3    3    0    0  0.77309335905E+02  0.60646134716E+00 -0.19826240467E+03  0.33831440083E+03  0.26300485069E+03 0.  0.
         25    1    3    3    0    0 -0.77309335905E+02 -0.60646134716E+00 -0.31176736121E+03  0.34470784272E+03  0.12509000000E+03 0.  0.
         25    1    4    4    0    0  0.13360168749E+02  0.16236819912E+02 -0.12894913382E+03  0.18087983758E+03  0.12509000000E+03 0.  0.
         25    1    4    4    0    0  0.63949167156E+02 -0.15630358564E+02 -0.69313270854E+02  0.15743456325E+03  0.12509000000E+03 0.  0.
<mgrwt>
<rscale>  2 0.45430059E+03</rscale>
<asrwt>0</asrwt>
<pdfrwt beam="1">  1       21 0.12720035E-01 0.45430059E+03</pdfrwt>
<pdfrwt beam="2">  1       21 0.87724411E-01 0.45430059E+03</pdfrwt>
<totfact> 0.54132249E+04</totfact>
</mgrwt>
</event>
<event>
 7    0  0.4779893E-002  0.4495255E+03  0.7546771E-02  0.1027864E+00
         21   -1    0    0  502  501  0.00000000000E+00  0.00000000000E+00  0.22642187579E+03  0.22642187579E+03  0.00000000000E+00 0.  1.
         21   -1    0    0  501  502 -0.00000000000E+00 -0.00000000000E+00 -0.22311579771E+03  0.22311579771E+03  0.00000000000E+00 0.  1.
      99926    2    1    2    0    0  0.70776717820E-15  0.00000000000E+00  0.33060780797E+01  0.44953767351E+03  0.44952551624E+03 0.  0.
      99925    2    3    3    0    0 -0.75617728012E-01 -0.32790163261E+02  0.10498158835E+03  0.28503655493E+03  0.26296293129E+03 0.  0.
         25    1    4    4    0    0 -0.25043294414E+02  0.13765198496E+02  0.62740097483E+02  0.14283023215E+03  0.12509000000E+03 0.  0.
         25    1    4    4    0    0  0.24967676685E+02 -0.46555361757E+02  0.42241490863E+02  0.14220632278E+03  0.12509000000E+03 0.  0.
         25    1    3    3    0    0  0.75617728012E-01  0.32790163261E+02 -0.10167551027E+03  0.16450111858E+03  0.12509000000E+03 0.  0.
<mgrwt>
<rscale>  2 0.44952552E+03</rscale>
<asrwt>0</asrwt>
<pdfrwt beam="1">  1       21 0.33297335E-01 0.44952552E+03</pdfrwt>
<pdfrwt beam="2">  1       21 0.32811147E-01 0.44952552E+03</pdfrwt>
<totfact> 0.72043686E+04</totfact>
</mgrwt>
</event>
<event>
 7    0  0.4779893E-002  0.4556566E+03  0.7546771E-02  0.1026048E+00
         21   -1    0    0  502  501  0.00000000000E+00  0.00000000000E+00  0.27345488130E+03  0.27345488130E+03  0.00000000000E+00 0.  1.
         21   -1    0    0  501  502 -0.00000000000E+00 -0.00000000000E+00 -0.18981463424E+03  0.18981463424E+03  0.00000000000E+00 0.  1.
      99926    2    1    2    0    0  0.00000000000E+00 -0.71054273576E-14  0.83640247061E+02  0.46326951555E+03  0.45565661754E+03 0.  0.
      99925    2    3    3    0    0  0.43930234224E+02  0.33239381084E+02  0.15374431757E+03  0.30965698111E+03  0.26308821492E+03 0.  0.
         25    1    4    4    0    0  0.26299232939E+02  0.41132964136E+02  0.41669882724E+02  0.14059679092E+03  0.12509000000E+03 0.  0.
         25    1    4    4    0    0  0.17631001285E+02 -0.78935830520E+01  0.11207443485E+03  0.16906019019E+03  0.12509000000E+03 0.  0.
         25    1    3    3    0    0 -0.43930234224E+02 -0.33239381084E+02 -0.70104070510E+02  0.15361253444E+03  0.12509000000E+03 0.  0.
<mgrwt>
<rscale>  2 0.45565662E+03</rscale>
<asrwt>0</asrwt>
<pdfrwt beam="1">  1       21 0.40213953E-01 0.45565662E+03</pdfrwt>
<pdfrwt beam="2">  1       21 0.27913917E-01 0.45565662E+03</pdfrwt>
<totfact> 0.67585327E+04</totfact>
</mgrwt>
</event>
<event>
 7    0  0.4779893E-002  0.4555611E+03  0.7546771E-02  0.1026077E+00
         21   -1    0    0  502  501  0.00000000000E+00  0.00000000000E+00  0.57403843967E+02  0.57403843967E+02  0.00000000000E+00 0. -1.
         21   -1    0    0  501  502 -0.00000000000E+00 -0.00000000000E+00 -0.90384144316E+03  0.90384144316E+03  0.00000000000E+00 0. -1.
      99926    2    1    2    0    0 -0.44408920985E-15  0.00000000000E+00 -0.84643759919E+03  0.96124528713E+03  0.45556107461E+03 0.  0.
      99925    2    3    3    0    0 -0.25080845668E+01  0.49574979656E+02 -0.74821578352E+03  0.79463495651E+03  0.26297126515E+03 0.  0.
         25    1    4    4    0    0  0.23618767765E+02  0.38875758313E+02 -0.29523455717E+03  0.32385200728E+03  0.12509000000E+03 0.  0.
         25    1    4    4    0    0 -0.26126852332E+02  0.10699221343E+02 -0.45298122635E+03  0.47078294922E+03  0.12509000000E+03 0.  0.
         25    1    3    3    0    0  0.25080845668E+01 -0.49574979656E+02 -0.98221815672E+02  0.16661033062E+03  0.12509000000E+03 0.  0.
<mgrwt>
<rscale>  2 0.45556107E+03</rscale>
<asrwt>0</asrwt>
<pdfrwt beam="1">  1       21 0.84417417E-02 0.45556107E+03</pdfrwt>
<pdfrwt beam="2">  1       21 0.13291786E+00 0.45556107E+03</pdfrwt>
<totfact> 0.40510794E+04</totfact>
</mgrwt>
</event>
<event>
 7    0  0.4779893E-002  0.4439842E+03  0.7546771E-02  0.1029531E+00
         21   -1    0    0  502  501  0.00000000000E+00  0.00000000000E+00  0.11322994931E+03  0.11322994931E+03  0.00000000000E+00 0. -1.
         21   -1    0    0  501  502 -0.00000000000E+00 -0.00000000000E+00 -0.43522492432E+03  0.43522492432E+03  0.00000000000E+00 0. -1.
      99926    2    1    2    0    0  0.00000000000E+00  0.35527136788E-14 -0.32199497501E+03  0.54845487363E+03  0.44398421648E+03 0.  0.
      99925    2    3    3    0    0 -0.65619419691E+02  0.23883064867E+02 -0.29755853143E+03  0.40312436444E+03  0.26285331375E+03 0.  0.
         25    1    4    4    0    0 -0.44959158358E+02  0.48904036425E+02 -0.17367788582E+03  0.22410811414E+03  0.12509000000E+03 0.  0.
         25    1    4    4    0    0 -0.20660261333E+02 -0.25020971558E+02 -0.12388064561E+03  0.17901625030E+03  0.12509000000E+03 0.  0.
         25    1    3    3    0    0  0.65619419691E+02 -0.23883064867E+02 -0.24436443582E+02  0.14533050920E+03  0.12509000000E+03 0.  0.
<mgrwt>
<rscale>  2 0.44398422E+03</rscale>
<asrwt>0</asrwt>
<pdfrwt beam="1">  1       21 0.16651463E-01 0.44398422E+03</pdfrwt>
<pdfrwt beam="2">  1       21 0.64003665E-01 0.44398422E+03</pdfrwt>
<totfact> 0.67677259E+04</totfact>
</mgrwt>
</event>
<event>
 6    0  0.4779893E-002  0.4561619E+03  0.7546771E-02  0.1025900E+00
         21   -1    0    0  502  501  0.00000000000E+00  0.00000000000E+00  0.40948527521E+03  0.40948527521E+03  0.00000000000E+00 0.  1.
         21   -1    0    0  501  502 -0.00000000000E+00 -0.00000000000E+00 -0.12703979916E+03  0.12703979916E+03  0.00000000000E+00 0.  1.
      99926    2    1    2    0    0  0.00000000000E+00  0.00000000000E+00  0.28244547605E+03  0.53652507437E+03  0.45616193230E+03 0.  0.
         25    1    3    3    0    0  0.95026459828E+01 -0.27870734342E+02  0.46417798895E+02  0.13663527461E+03  0.12509000000E+03 0.  0.
         25    1    3    3    0    0 -0.37045479928E+02 -0.29065905684E+02  0.22185197355E+03  0.25900386237E+03  0.12509000000E+03 0.  0.
         25    1    3    3    0    0  0.27542833945E+02  0.56936640026E+02  0.14175703601E+02  0.14088593738E+03  0.12509000000E+03 0.  0.
<mgrwt>
<rscale>  2 0.45616193E+03</rscale>
<asrwt>0</asrwt>
<pdfrwt beam="1">  1       21 0.60218422E-01 0.45616193E+03</pdfrwt>
<pdfrwt beam="2">  1       21 0.18682324E-01 0.45616193E+03</pdfrwt>
<totfact> 0.62191912E+04</totfact>
</mgrwt>
</event>
<event>
 7    0  0.4779893E-002  0.4535551E+03  0.7546771E-02  0.1026667E+00
         21   -1    0    0  502  501  0.00000000000E+00  0.00000000000E+00  0.51612920759E+03  0.51612920759E+03  0.00000000000E+00 0.  1.
         21   -1    0    0  501  502 -0.00000000000E+00 -0.00000000000E+00 -0.99641846535E+02  0.99641846535E+02  0.00000000000E+00 0.  1.
      99926    2    1    2    0    0  0.00000000000E+00  0.00000000000E+00  0.41648736105E+03  0.61577105412E+03  0.45355514458E+03 0.  0.
      99925    2    3    3    0    0 -0.15567263286E+02  0.69691575151E+02  0.37924020349E+03  0.46699567249E+03  0.26298777700E+03 0.  0.
         25    1    4    4    0    0 -0.26057708607E+02  0.10158712169E+02  0.13606466357E+03  0.18693128252E+03  0.12509000000E+03 0.  0.
         25    1    4    4    0    0  0.10490445321E+02  0.59532862982E+02  0.24317553991E+03  0.28006438997E+03  0.12509000000E+03 0.  0.
         25    1    3    3    0    0  0.15567263286E+02 -0.69691575151E+02  0.37247157567E+02  0.14877538163E+03  0.12509000000E+03 0.  0.
<mgrwt>
<rscale>  2 0.45355514E+03</rscale>
<asrwt>0</asrwt>
<pdfrwt beam="1">  1       21 0.75901353E-01 0.45355514E+03</pdfrwt>
<pdfrwt beam="2">  1       21 0.14653213E-01 0.45355514E+03</pdfrwt>
<totfact> 0.58381197E+04</totfact>
</mgrwt>
</event>
<event>
 7    0  0.4779893E-002  0.4566728E+03  0.7546771E-02  0.1025751E+00
         21   -1    0    0  502  501  0.00000000000E+00  0.00000000000E+00  0.50081793852E+02  0.50081793852E+02  0.00000000000E+00 0. -1.
         21   -1    0    0  501  502 -0.00000000000E+00 -0.00000000000E+00 -0.10410471719E+04  0.10410471719E+04  0.00000000000E+00 0. -1.
      99926    2    1    2    0    0  0.00000000000E+00 -0.14210854715E-13 -0.99096537809E+03  0.10911289658E+04  0.45667279252E+03 0.  0.
      99925    2    3    3    0    0  0.58235382727E+02 -0.76049841432E+02 -0.47145759387E+03  0.54825625130E+03  0.26294051815E+03 0.  0.
         25    1    4    4    0    0  0.41223790448E+02 -0.78141964932E+02 -0.27365653980E+03  0.31359365022E+03  0.12509000000E+03 0.  0.
         25    1    3    3    0    0 -0.58235382727E+02  0.76049841432E+02 -0.51950778422E+03  0.54287271450E+03  0.12509000000E+03 0.  0.
         25    1    4    4    0    0  0.17011592279E+02  0.20921235005E+01 -0.19780105407E+03  0.23466260107E+03  0.12509000000E+03 0.  0.
<mgrwt>
<rscale>  2 0.45667279E+03</rscale>
<asrwt>0</asrwt>
<pdfrwt beam="1">  1       21 0.73649699E-02 0.45667279E+03</pdfrwt>
<pdfrwt beam="2">  1       21 0.15309517E+00 0.45667279E+03</pdfrwt>
<totfact> 0.35339917E+04</totfact>
</mgrwt>
</event>
<event>
 7    0  0.4779893E-002  0.4535194E+03  0.7546771E-02  0.1026678E+00
         21   -1    0    0  502  501  0.00000000000E+00  0.00000000000E+00  0.18966219916E+03  0.18966219916E+03  0.00000000000E+00 0. -1.
         21   -1    0    0  501  502 -0.00000000000E+00 -0.00000000000E+00 -0.27111336162E+03  0.27111336162E+03  0.00000000000E+00 0. -1.
      99926    2    1    2    0    0  0.35527136788E-14  0.00000000000E+00 -0.81451162457E+02  0.46077556078E+03  0.45351937726E+03 0.  0.
      99925    2    3    3    0    0 -0.95888853559E+01  0.71728193001E+02 -0.13770651135E+03  0.30569799060E+03  0.26315641318E+03 0.  0.
         25    1    4    4    0    0 -0.39962084596E+02  0.28841901558E+02 -0.46722217142E+02  0.14233515787E+03  0.12509000000E+03 0.  0.
         25    1    4    4    0    0  0.30373199241E+02  0.42886291442E+02 -0.90984294213E+02  0.16336283274E+03  0.12509000000E+03 0.  0.
         25    1    3    3    0    0  0.95888853559E+01 -0.71728193001E+02  0.56255348898E+02  0.15507757018E+03  0.12509000000E+03 0.  0.
<mgrwt>
<rscale>  2 0.45351938E+03</rscale>
<asrwt>0</asrwt>
<pdfrwt beam="1">  1       21 0.27891500E-01 0.45351938E+03</pdfrwt>
<pdfrwt beam="2">  1       21 0.39869612E-01 0.45351938E+03</pdfrwt>
<totfact> 0.68932629E+04</totfact>
</mgrwt>
</event>
<event>
 7    0  0.4779893E-002  0.4537314E+03  0.7546771E-02  0.1026615E+00
         21   -1    0    0  502  501  0.00000000000E+00  0.00000000000E+00  0.61318284074E+02  0.61318284074E+02  0.00000000000E+00 0.  1.
         21   -1    0    0  501  502 -0.00000000000E+00 -0.00000000000E+00 -0.83935886001E+03  0.83935886001E+03  0.00000000000E+00 0.  1.
      99926    2    1    2    0    0  0.00000000000E+00 -0.14210854715E-13 -0.77804057594E+03  0.90067714409E+03  0.45373139640E+03 0.  0.
      99925    2    3    3    0    0  0.13457634657E+02  0.81839010399E+02 -0.63958205159E+03  0.69647870477E+03  0.26294230153E+03 0.  0.
         25    1    4    4    0    0  0.88668220967E+01  0.75653722919E+02 -0.28554384419E+03  0.32091260708E+03  0.12509000000E+03 0.  0.
         25    1    3    3    0    0 -0.13457634657E+02 -0.81839010399E+02 -0.13845852435E+03  0.20419843932E+03  0.12509000000E+03 0.  0.
         25    1    4    4    0    0  0.45908125605E+01  0.61852874799E+01 -0.35403820739E+03  0.37556609769E+03  0.12509000000E+03 0.  0.
<mgrwt>
<rscale>  2 0.45373140E+03</rscale>
<asrwt>0</asrwt>
<pdfrwt beam="1">  1       21 0.90173952E-02 0.45373140E+03</pdfrwt>
<pdfrwt beam="2">  1       21 0.12343512E+00 0.45373140E+03</pdfrwt>
<totfact> 0.43636226E+04</totfact>
</mgrwt>
</event>
<event>
 7    0  0.4779893E-002  0.4558532E+03  0.7546771E-02  0.1025991E+00
         21   -1    0    0  502  501  0.00000000000E+00  0.00000000000E+00  0.23565020525E+03  0.23565020525E+03  0.00000000000E+00 0.  1.
         21   -1    0    0  501  502 -0.00000000000E+00 -0.00000000000E+00 -0.22045613504E+03  0.22045613504E+03  0.00000000000E+00 0.  1.
      99926    2    1    2    0    0 -0.14210854715E-13  0.00000000000E+00  0.15194070210E+02  0.45610634030E+03  0.45585319335E+03 0.  0.
      99925    2    3    3    0    0  0.78648875986E+02 -0.57709625078E+02  0.68691595690E+02  0.28869803748E+03  0.26289156511E+03 0.  0.
         25    1    4    4    0    0  0.66751797098E+02  0.31384502897E+00  0.40424264896E+02  0.14743652942E+03  0.12509000000E+03 0.  0.
         25    1    4    4    0    0  0.11897078888E+02 -0.58023470107E+02  0.28267330794E+02  0.14126150806E+03  0.12509000000E+03 0.  0.
         25    1    3    3    0    0 -0.78648875986E+02  0.57709625078E+02 -0.53497525480E+02  0.16740830282E+03  0.12509000000E+03 0.  0.
<mgrwt>
<rscale>  2 0.45585319E+03</rscale>
<asrwt>0</asrwt>
<pdfrwt beam="1">  1       21 0.34654442E-01 0.45585319E+03</pdfrwt>
<pdfrwt beam="2">  1       21 0.32420020E-01 0.45585319E+03</pdfrwt>
<totfact> 0.68000733E+04</totfact>
</mgrwt>
</event>
<event>
 7    0  0.4779893E-002  0.4485141E+03  0.7546771E-02  0.1028166E+00
         21   -1    0    0  502  501  0.00000000000E+00  0.00000000000E+00  0.37790348768E+03  0.37790348768E+03  0.00000000000E+00 0.  1.
         21   -1    0    0  501  502 -0.00000000000E+00 -0.00000000000E+00 -0.13307951849E+03  0.13307951849E+03  0.00000000000E+00 0.  1.
      99926    2    1    2    0    0  0.00000000000E+00  0.00000000000E+00  0.24482396920E+03  0.51098300617E+03  0.44851405408E+03 0.  0.
      99925    2    3    3    0    0 -0.64789327656E+01  0.65154798392E+02  0.58108634962E+02  0.27689488503E+03  0.26269190999E+03 0.  0.
         25    1    4    4    0    0  0.22530240524E+02  0.61953138941E+01  0.45056809679E+02  0.13499488083E+03  0.12509000000E+03 0.  0.
         25    1    3    3    0    0  0.64789327656E+01 -0.65154798392E+02  0.18671533423E+03  0.23408812115E+03  0.12509000000E+03 0.  0.
         25    1    4    4    0    0 -0.29009173290E+02  0.58959484498E+02  0.13051825284E+02  0.14190000419E+03  0.12509000000E+03 0.  0.
<mgrwt>
<rscale>  2 0.44851405E+03</rscale>
<asrwt>0</asrwt>
<pdfrwt beam="1">  1       21 0.55574042E-01 0.44851405E+03</pdfrwt>
<pdfrwt beam="2">  1       21 0.19570518E-01 0.44851405E+03</pdfrwt>
<totfact> 0.67935427E+04</totfact>
</mgrwt>
</event>
<event>
 7    0  0.4779893E-002  0.4575192E+03  0.7546771E-02  0.1025503E+00
         21   -1    0    0  502  501  0.00000000000E+00  0.00000000000E+00  0.53756444700E+02  0.53756444700E+02  0.00000000000E+00 0. -1.
         21   -1    0    0  501  502 -0.00000000000E+00 -0.00000000000E+00 -0.97348260098E+03  0.97348260098E+03  0.00000000000E+00 0. -1.
      99926    2    1    2    0    0  0.00000000000E+00 -0.17763568394E-14 -0.91972615628E+03  0.10272390457E+04  0.45751923940E+03 0.  0.
      99925    2    3    3    0    0 -0.96474734098E+02  0.40728387808E+01 -0.72124756235E+03  0.77353602503E+03  0.26236610585E+03 0.  0.
         25    1    4    4    0    0 -0.73483854491E+02  0.16042572304E+02 -0.46224715131E+03  0.48474444607E+03  0.12509000000E+03 0.  0.
         25    1    4    4    0    0 -0.22990879607E+02 -0.11969733523E+02 -0.25900041103E+03  0.28879157896E+03  0.12509000000E+03 0.  0.
         25    1    3    3    0    0  0.96474734098E+02 -0.40728387808E+01 -0.19847859393E+03  0.25370302064E+03  0.12509000000E+03 0.  0.
<mgrwt>
<rscale>  2 0.45751924E+03</rscale>
<asrwt>0</asrwt>
<pdfrwt beam="1">  1       21 0.79053594E-02 0.45751924E+03</pdfrwt>
<pdfrwt beam="2">  1       21 0.14315921E+00 0.45751924E+03</pdfrwt>
<totfact> 0.37383116E+04</totfact>
</mgrwt>
</event>
<event>
 7    0  0.4779893E-002  0.4668777E+03  0.7546771E-02  0.1022805E+00
         21   -1    0    0  502  501  0.00000000000E+00  0.00000000000E+00  0.81917161843E+03  0.81917161843E+03  0.00000000000E+00 0.  1.
         21   -1    0    0  501  502 -0.00000000000E+00 -0.00000000000E+00 -0.66522923452E+02  0.66522923452E+02  0.00000000000E+00 0.  1.
      99926    2    1    2    0    0  0.00000000000E+00  0.00000000000E+00  0.75264869498E+03  0.88569454189E+03  0.46687767506E+03 0.  0.
      99925    2    3    3    0    0  0.29122711611E+02 -0.96132175050E+02  0.60713938928E+03  0.66910739186E+03  0.26267267923E+03 0.  0.
         25    1    3    3    0    0 -0.29122711611E+02  0.96132175050E+02  0.14550930570E+03  0.21658715003E+03  0.12509000000E+03 0.  0.
         25    1    4    4    0    0  0.51389138097E+02 -0.58005755334E+02  0.28560457886E+03  0.32128335583E+03  0.12509000000E+03 0.  0.
         25    1    4    4    0    0 -0.22266426487E+02 -0.38126419716E+02  0.32153481042E+03  0.34782403603E+03  0.12509000000E+03 0.  0.
<mgrwt>
<rscale>  2 0.46687768E+03</rscale>
<asrwt>0</asrwt>
<pdfrwt beam="1">  1       21 0.12046641E+00 0.46687768E+03</pdfrwt>
<pdfrwt beam="2">  1       21 0.97827833E-02 0.46687768E+03</pdfrwt>
<totfact> 0.40004992E+04</totfact>
</mgrwt>
</event>
<event>
 7    0  0.4779893E-002  0.4500294E+03  0.7546771E-02  0.1027713E+00
         21   -1    0    0  502  501  0.00000000000E+00  0.00000000000E+00  0.11035173333E+03  0.11035173333E+03  0.00000000000E+00 0.  1.
         21   -1    0    0  501  502 -0.00000000000E+00 -0.00000000000E+00 -0.45882032905E+03  0.45882032905E+03  0.00000000000E+00 0.  1.
      99926    2    1    2    0    0 -0.17763568394E-14 -0.14210854715E-13 -0.34846859572E+03  0.56917206237E+03  0.45002941502E+03 0.  0.
      99925    2    3    3    0    0 -0.81073739859E+01 -0.10814742812E+03 -0.21936422842E+03  0.35922673264E+03  0.26298590268E+03 0.  0.
         25    1    4    4    0    0 -0.40629225628E+02 -0.67387115461E+02 -0.13061607897E+03  0.19723038683E+03  0.12509000000E+03 0.  0.
         25    1    3    3    0    0  0.81073739859E+01  0.10814742812E+03 -0.12910436729E+03  0.20994532973E+03  0.12509000000E+03 0.  0.
         25    1    4    4    0    0  0.32521851642E+02 -0.40760312664E+02 -0.88748149459E+02  0.16199634581E+03  0.12509000000E+03 0.  0.
<mgrwt>
<rscale>  2 0.45002942E+03</rscale>
<asrwt>0</asrwt>
<pdfrwt beam="1">  1       21 0.16228196E-01 0.45002942E+03</pdfrwt>
<pdfrwt beam="2">  1       21 0.67473577E-01 0.45002942E+03</pdfrwt>
<totfact> 0.63059460E+04</totfact>
</mgrwt>
</event>
<event>
 7    0  0.4779893E-002  0.4566074E+03  0.7546771E-02  0.1025770E+00
         21   -1    0    0  502  501  0.00000000000E+00  0.00000000000E+00  0.84672661091E+02  0.84672661091E+02  0.00000000000E+00 0. -1.
         21   -1    0    0  501  502 -0.00000000000E+00 -0.00000000000E+00 -0.61557744192E+03  0.61557744192E+03  0.00000000000E+00 0. -1.
      99926    2    1    2    0    0  0.17763568394E-14  0.00000000000E+00 -0.53090478083E+03  0.70025010301E+03  0.45660740298E+03 0.  0.
      99925    2    3    3    0    0 -0.13236281060E+01 -0.65192225707E+02 -0.47819768915E+03  0.54966018337E+03  0.26306179690E+03 0.  0.
         25    1    4    4    0    0  0.35332145147E+02 -0.23001077206E+02 -0.20130454737E+03  0.24072481992E+03  0.12509000000E+03 0.  0.
         25    1    3    3    0    0  0.13236281060E+01  0.65192225707E+02 -0.52707091677E+02  0.15058991964E+03  0.12509000000E+03 0.  0.
         25    1    4    4    0    0 -0.36655773253E+02 -0.42191148501E+02 -0.27689314178E+03  0.30893536345E+03  0.12509000000E+03 0.  0.
<mgrwt>
<rscale>  2 0.45660740E+03</rscale>
<asrwt>0</asrwt>
<pdfrwt beam="1">  1       21 0.12451862E-01 0.45660740E+03</pdfrwt>
<pdfrwt beam="2">  1       21 0.90526096E-01 0.45660740E+03</pdfrwt>
<totfact> 0.52225587E+04</totfact>
</mgrwt>
</event>
<event>
 7    0  0.4779893E-002  0.4189374E+03  0.7546771E-02  0.1037413E+00
         21   -1    0    0  502  501  0.00000000000E+00  0.00000000000E+00  0.22606695503E+04  0.22606695503E+04  0.00000000000E+00 0. -1.
         21   -1    0    0  501  502 -0.00000000000E+00 -0.00000000000E+00 -0.19408911951E+02  0.19408911951E+02  0.00000000000E+00 0. -1.
      99926    2    1    2    0    0  0.00000000000E+00  0.00000000000E+00  0.22412606384E+04  0.22800784623E+04  0.41893739987E+03 0.  0.
      99925    2    3    3    0    0  0.42084112774E+01 -0.73379548977E+02  0.15286473714E+04  0.15528457311E+04  0.26299203326E+03 0.  0.
         25    1    4    4    0    0  0.66183470424E+00 -0.13114673443E+02  0.53789442996E+03  0.55240416234E+03  0.12509000000E+03 0.  0.
         25    1    3    3    0    0 -0.42084112774E+01  0.73379548977E+02  0.71261326698E+03  0.72723273118E+03  0.12509000000E+03 0.  0.
         25    1    4    4    0    0  0.35465765731E+01 -0.60264875534E+02  0.99075294141E+03  0.10004415687E+04  0.12509000000E+03 0.  0.
<mgrwt>
<rscale>  2 0.41893740E+03</rscale>
<asrwt>0</asrwt>
<pdfrwt beam="1">  1       21 0.33245122E+00 0.41893740E+03</pdfrwt>
<pdfrwt beam="2">  1       21 0.28542533E-02 0.41893740E+03</pdfrwt>
<totfact> 0.12907439E+04</totfact>
</mgrwt>
</event>
<event>
 7    0  0.4779893E-002  0.4564703E+03  0.7546771E-02  0.1025810E+00
         21   -1    0    0  502  501  0.00000000000E+00  0.00000000000E+00  0.13687139503E+03  0.13687139503E+03  0.00000000000E+00 0. -1.
         21   -1    0    0  501  502 -0.00000000000E+00 -0.00000000000E+00 -0.38058563402E+03  0.38058563402E+03  0.00000000000E+00 0. -1.
      99926    2    1    2    0    0  0.00000000000E+00  0.00000000000E+00 -0.24371423899E+03  0.51745702905E+03  0.45647031298E+03 0.  0.
      99925    2    3    3    0    0 -0.10952380181E+03 -0.24139180669E+02 -0.12650913735E+03  0.31260901916E+03  0.26294804396E+03 0.  0.
         25    1    4    4    0    0 -0.70533633104E+02 -0.50269491350E+02 -0.71707296356E+02  0.16820065282E+03  0.12509000000E+03 0.  0.
         25    1    3    3    0    0  0.10952380181E+03  0.24139180669E+02 -0.11720510164E+03  0.20484800989E+03  0.12509000000E+03 0.  0.
         25    1    4    4    0    0 -0.38990168709E+02  0.26130310681E+02 -0.54801840996E+02  0.14440836634E+03  0.12509000000E+03 0.  0.
<mgrwt>
<rscale>  2 0.45647031E+03</rscale>
<asrwt>0</asrwt>
<pdfrwt beam="1">  1       21 0.20128147E-01 0.45647031E+03</pdfrwt>
<pdfrwt beam="2">  1       21 0.55968474E-01 0.45647031E+03</pdfrwt>
<totfact> 0.63318922E+04</totfact>
</mgrwt>
</event>
<event>
 7    0  0.4779893E-002  0.4505751E+03  0.7546771E-02  0.1027551E+00
         21   -1    0    0  502  501  0.00000000000E+00  0.00000000000E+00  0.33970086265E+03  0.33970086265E+03  0.00000000000E+00 0. -1.
         21   -1    0    0  501  502 -0.00000000000E+00 -0.00000000000E+00 -0.14940931736E+03  0.14940931736E+03  0.00000000000E+00 0. -1.
      99926    2    1    2    0    0  0.00000000000E+00 -0.71054273576E-14  0.19029154529E+03  0.48911018001E+03  0.45057507252E+03 0.  0.
      99925    2    3    3    0    0 -0.96411987268E+02 -0.41653980056E+02  0.15179727246E+03  0.32130182955E+03  0.26298693580E+03 0.  0.
         25    1    3    3    0    0  0.96411987268E+02  0.41653980056E+02  0.38494272829E+02  0.16780835046E+03  0.12509000000E+03 0.  0.
         25    1    4    4    0    0 -0.31540431335E+02  0.12691689509E+02  0.48859784735E+02  0.13853037377E+03  0.12509000000E+03 0.  0.
         25    1    4    4    0    0 -0.64871555933E+02 -0.54345669564E+02  0.10293748772E+03  0.18277145578E+03  0.12509000000E+03 0.  0.
<mgrwt>
<rscale>  2 0.45057507E+03</rscale>
<asrwt>0</asrwt>
<pdfrwt beam="1">  1       21 0.49956009E-01 0.45057507E+03</pdfrwt>
<pdfrwt beam="2">  1       21 0.21971958E-01 0.45057507E+03</pdfrwt>
<totfact> 0.68414555E+04</totfact>
</mgrwt>
</event>
<event>
 7    0  0.4779893E-002  0.4570278E+03  0.7546771E-02  0.1025647E+00
         21   -1    0    0  502  501  0.00000000000E+00  0.00000000000E+00  0.27225929428E+03  0.27225929428E+03  0.00000000000E+00 0.  1.
         21   -1    0    0  501  502 -0.00000000000E+00 -0.00000000000E+00 -0.19179732433E+03  0.19179732433E+03  0.00000000000E+00 0.  1.
      99926    2    1    2    0    0  0.00000000000E+00 -0.14210854715E-13  0.80461969943E+02  0.46405661861E+03  0.45702780732E+03 0.  0.
      99925    2    3    3    0    0 -0.47839954972E+02 -0.72127863899E+02 -0.26609637808E+02  0.27803799769E+03  0.26288013484E+03 0.  0.
         25    1    3    3    0    0  0.47839954972E+02  0.72127863899E+02  0.10707160775E+03  0.18601862092E+03  0.12509000000E+03 0.  0.
         25    1    4    4    0    0 -0.39842443255E+02 -0.30786675571E+02 -0.50342221701E+02  0.14393431510E+03  0.12509000000E+03 0.  0.
         25    1    4    4    0    0 -0.79975117169E+01 -0.41341188329E+02  0.23732583893E+02  0.13410368259E+03  0.12509000000E+03 0.  0.
<mgrwt>
<rscale>  2 0.45702781E+03</rscale>
<asrwt>0</asrwt>
<pdfrwt beam="1">  1       21 0.40038132E-01 0.45702781E+03</pdfrwt>
<pdfrwt beam="2">  1       21 0.28205489E-01 0.45702781E+03</pdfrwt>
<totfact> 0.66796937E+04</totfact>
</mgrwt>
</event>
<event>
 7    0  0.4779893E-002  0.4504706E+03  0.7546771E-02  0.1027582E+00
         21   -1    0    0  502  501  0.00000000000E+00  0.00000000000E+00  0.16838008616E+03  0.16838008616E+03  0.00000000000E+00 0. -1.
         21   -1    0    0  501  502 -0.00000000000E+00 -0.00000000000E+00 -0.30128822907E+03  0.30128822907E+03  0.00000000000E+00 0. -1.
      99926    2    1    2    0    0  0.14210854715E-13  0.00000000000E+00 -0.13290814291E+03  0.46966831523E+03  0.45047058936E+03 0.  0.
      99925    2    3    3    0    0  0.69518942606E+02 -0.82054171016E+02 -0.66827698853E+02  0.29196096155E+03  0.26307696854E+03 0.  0.
         25    1    4    4    0    0  0.67226818973E+02 -0.69526255562E+02 -0.29952666522E+02  0.16092860446E+03  0.12509000000E+03 0.  0.
         25    1    3    3    0    0 -0.69518942606E+02  0.82054171016E+02 -0.66080444054E+02  0.17770735367E+03  0.12509000000E+03 0.  0.
         25    1    4    4    0    0  0.22921236329E+01 -0.12527915455E+02 -0.36875032331E+02  0.13103235709E+03  0.12509000000E+03 0.  0.
<mgrwt>
<rscale>  2 0.45047059E+03</rscale>
<asrwt>0</asrwt>
<pdfrwt beam="1">  1       21 0.24761778E-01 0.45047059E+03</pdfrwt>
<pdfrwt beam="2">  1       21 0.44307092E-01 0.45047059E+03</pdfrwt>
<totfact> 0.69940275E+04</totfact>
</mgrwt>
</event>
<event>
 6    0  0.4779893E-002  0.4504161E+03  0.7546771E-02  0.1027598E+00
         21   -1    0    0  502  501  0.00000000000E+00  0.00000000000E+00  0.20756930325E+03  0.20756930325E+03  0.00000000000E+00 0.  1.
         21   -1    0    0  501  502 -0.00000000000E+00 -0.00000000000E+00 -0.24434569500E+03  0.24434569500E+03  0.00000000000E+00 0.  1.
      99926    2    1    2    0    0  0.00000000000E+00  0.00000000000E+00 -0.36776391752E+02  0.45191499825E+03  0.45041609946E+03 0.  0.
         25    1    3    3    0    0  0.93754765425E+01  0.88934545811E+02 -0.57733388518E+02  0.16424952130E+03  0.12509000000E+03 0.  0.
         25    1    3    3    0    0 -0.15038390891E+02 -0.98670020660E+02  0.25180755172E+02  0.16199847132E+03  0.12509000000E+03 0.  0.
         25    1    3    3    0    0  0.56629143490E+01  0.97354748494E+01 -0.42237584061E+01  0.12566700563E+03  0.12509000000E+03 0.  0.
<mgrwt>
<rscale>  2 0.45041610E+03</rscale>
<asrwt>0</asrwt>
<pdfrwt beam="1">  1       21 0.30524898E-01 0.45041610E+03</pdfrwt>
<pdfrwt beam="2">  1       21 0.35933190E-01 0.45041610E+03</pdfrwt>
<totfact> 0.71346318E+04</totfact>
</mgrwt>
</event>
<event>
 7    0  0.4779893E-002  0.4557633E+03  0.7546771E-02  0.1026017E+00
         21   -1    0    0  502  501  0.00000000000E+00  0.00000000000E+00  0.82905096708E+02  0.82905096708E+02  0.00000000000E+00 0.  1.
         21   -1    0    0  501  502 -0.00000000000E+00 -0.00000000000E+00 -0.62637954353E+03  0.62637954353E+03  0.00000000000E+00 0.  1.
      99926    2    1    2    0    0  0.00000000000E+00  0.35527136788E-14 -0.54347444682E+03  0.70928464024E+03  0.45576334487E+03 0.  0.
      99925    2    3    3    0    0  0.56229756180E+02  0.26995389294E+02 -0.49001898043E+03  0.55963327369E+03  0.26302141227E+03 0.  0.
         25    1    4    4    0    0  0.32951928848E+01 -0.19586125992E+02 -0.23576367239E+03  0.26763126116E+03  0.12509000000E+03 0.  0.
         25    1    3    3    0    0 -0.56229756180E+02 -0.26995389294E+02 -0.53455466391E+02  0.14965136655E+03  0.12509000000E+03 0.  0.
         25    1    4    4    0    0  0.52934563295E+02  0.46581515287E+02 -0.25425530804E+03  0.29200201253E+03  0.12509000000E+03 0.  0.
<mgrwt>
<rscale>  2 0.45576334E+03</rscale>
<asrwt>0</asrwt>
<pdfrwt beam="1">  1       21 0.12191926E-01 0.45576334E+03</pdfrwt>
<pdfrwt beam="2">  1       21 0.92114635E-01 0.45576334E+03</pdfrwt>
<totfact> 0.52088228E+04</totfact>
</mgrwt>
</event>
<event>
 7    0  0.4779893E-002  0.4530048E+03  0.7546771E-02  0.1026830E+00
         21   -1    0    0  502  501  0.00000000000E+00  0.00000000000E+00  0.55614497639E+03  0.55614497639E+03  0.00000000000E+00 0.  1.
         21   -1    0    0  501  502 -0.00000000000E+00 -0.00000000000E+00 -0.92248115707E+02  0.92248115707E+02  0.00000000000E+00 0.  1.
      99926    2    1    2    0    0  0.00000000000E+00  0.35527136788E-14  0.46389686069E+03  0.64839309210E+03  0.45300475111E+03 0.  0.
      99925    2    3    3    0    0  0.10436107551E+03 -0.31546953755E+02  0.32522385985E+03  0.43214288139E+03  0.26285065445E+03 0.  0.
         25    1    4    4    0    0  0.63111500469E+02 -0.18191513340E+02  0.22666864271E+03  0.26709581490E+03  0.12509000000E+03 0.  0.
         25    1    4    4    0    0  0.41249575043E+02 -0.13355440415E+02  0.98555217141E+02  0.16504706649E+03  0.12509000000E+03 0.  0.
         25    1    3    3    0    0 -0.10436107551E+03  0.31546953755E+02  0.13867300084E+03  0.21625021071E+03  0.12509000000E+03 0.  0.
<mgrwt>
<rscale>  2 0.45300475E+03</rscale>
<asrwt>0</asrwt>
<pdfrwt beam="1">  1       21 0.81786024E-01 0.45300475E+03</pdfrwt>
<pdfrwt beam="2">  1       21 0.13565900E-01 0.45300475E+03</pdfrwt>
<totfact> 0.56681121E+04</totfact>
</mgrwt>
</event>
<event>
 7    0  0.4779893E-002  0.4422748E+03  0.7546771E-02  0.1030051E+00
         21   -1    0    0  502  501  0.00000000000E+00  0.00000000000E+00  0.83917297224E+02  0.83917297224E+02  0.00000000000E+00 0. -1.
         21   -1    0    0  501  502 -0.00000000000E+00 -0.00000000000E+00 -0.58273751805E+03  0.58273751805E+03  0.00000000000E+00 0. -1.
      99926    2    1    2    0    0  0.00000000000E+00  0.00000000000E+00 -0.49882022082E+03  0.66665481527E+03  0.44227483539E+03 0.  0.
      99925    2    3    3    0    0  0.79318769874E+02  0.34357241230E+02 -0.39481944729E+03  0.48243875659E+03  0.26342526573E+03 0.  0.
         25    1    4    4    0    0  0.35306117025E+02  0.58229049352E+02 -0.20875056354E+03  0.25270823090E+03  0.12509000000E+03 0.  0.
         25    1    4    4    0    0  0.44012652849E+02 -0.23871808122E+02 -0.18606888375E+03  0.22973052569E+03  0.12509000000E+03 0.  0.
         25    1    3    3    0    0 -0.79318769874E+02 -0.34357241230E+02 -0.10400077353E+03  0.18421605868E+03  0.12509000000E+03 0.  0.
<mgrwt>
<rscale>  2 0.44227484E+03</rscale>
<asrwt>0</asrwt>
<pdfrwt beam="1">  1       21 0.12340779E-01 0.44227484E+03</pdfrwt>
<pdfrwt beam="2">  1       21 0.85696697E-01 0.44227484E+03</pdfrwt>
<totfact> 0.60602187E+04</totfact>
</mgrwt>
</event>
<event>
 7    0  0.4779893E-002  0.4542136E+03  0.7546771E-02  0.1026473E+00
         21   -1    0    0  502  501  0.00000000000E+00  0.00000000000E+00  0.10931512936E+03  0.10931512936E+03  0.00000000000E+00 0.  1.
         21   -1    0    0  501  502 -0.00000000000E+00 -0.00000000000E+00 -0.47182403697E+03  0.47182403697E+03  0.00000000000E+00 0.  1.
      99926    2    1    2    0    0 -0.14210854715E-13  0.00000000000E+00 -0.36250890761E+03  0.58113916632E+03  0.45421363095E+03 0.  0.
      99925    2    3    3    0    0  0.98844359376E+02 -0.52632335897E+02 -0.21504867462E+03  0.35768358108E+03  0.26296623653E+03 0.  0.
         25    1    3    3    0    0 -0.98844359376E+02  0.52632335897E+02 -0.14746023300E+03  0.22345558525E+03  0.12509000000E+03 0.  0.
         25    1    4    4    0    0  0.92074023607E+02 -0.25207999592E+02 -0.12549120961E+03  0.20126753553E+03  0.12509000000E+03 0.  0.
         25    1    4    4    0    0  0.67703357690E+01 -0.27424336305E+02 -0.89557465001E+02  0.15641604555E+03  0.12509000000E+03 0.  0.
<mgrwt>
<rscale>  2 0.45421363E+03</rscale>
<asrwt>0</asrwt>
<pdfrwt beam="1">  1       21 0.16075754E-01 0.45421363E+03</pdfrwt>
<pdfrwt beam="2">  1       21 0.69385890E-01 0.45421363E+03</pdfrwt>
<totfact> 0.60228022E+04</totfact>
</mgrwt>
</event>
<event>
 7    0  0.4779893E-002  0.4705886E+03  0.7546771E-02  0.1021754E+00
         21   -1    0    0  502  501  0.00000000000E+00  0.00000000000E+00  0.31018330684E+03  0.31018330684E+03  0.00000000000E+00 0.  1.
         21   -1    0    0  501  502 -0.00000000000E+00 -0.00000000000E+00 -0.17848611497E+03  0.17848611497E+03  0.00000000000E+00 0.  1.
      99926    2    1    2    0    0  0.00000000000E+00  0.00000000000E+00  0.13169719187E+03  0.48866942181E+03  0.47058862446E+03 0.  0.
      99925    2    3    3    0    0  0.34394342455E+02  0.38029602393E+02 -0.39077786086E+02  0.27086027910E+03  0.26307602699E+03 0.  0.
         25    1    4    4    0    0  0.83600373299E+01  0.58627319094E+02 -0.25504348916E+02  0.14073035452E+03  0.12509000000E+03 0.  0.
         25    1    3    3    0    0 -0.34394342455E+02 -0.38029602393E+02  0.17077497796E+03  0.21780914271E+03  0.12509000000E+03 0.  0.
         25    1    4    4    0    0  0.26034305125E+02 -0.20597716701E+02 -0.13573437170E+02  0.13012992459E+03  0.12509000000E+03 0.  0.
<mgrwt>
<rscale>  2 0.47058862E+03</rscale>
<asrwt>0</asrwt>
<pdfrwt beam="1">  1       21 0.45615192E-01 0.47058862E+03</pdfrwt>
<pdfrwt beam="2">  1       21 0.26247958E-01 0.47058862E+03</pdfrwt>
<totfact> 0.58494729E+04</totfact>
</mgrwt>
</event>
<event>
 7    0  0.4779893E-002  0.4704661E+03  0.7546771E-02  0.1021789E+00
         21   -1    0    0  502  501  0.00000000000E+00  0.00000000000E+00  0.12517833303E+04  0.12517833303E+04  0.00000000000E+00 0. -1.
         21   -1    0    0  501  502 -0.00000000000E+00 -0.00000000000E+00 -0.44204600693E+02  0.44204600693E+02  0.00000000000E+00 0. -1.
      99926    2    1    2    0    0 -0.44408920985E-15  0.00000000000E+00  0.12075787296E+04  0.12959879310E+04  0.47046607644E+03 0.  0.
      99925    2    3    3    0    0  0.29926146276E+01 -0.22203062007E+02  0.40504210860E+03  0.48345210540E+03  0.26299219908E+03 0.  0.
         25    1    4    4    0    0 -0.33781603722E+02 -0.10125538167E+02  0.16521879707E+03  0.21021056653E+03  0.12509000000E+03 0.  0.
         25    1    3    3    0    0 -0.29926146276E+01  0.22203062007E+02  0.80253662104E+03  0.81253582562E+03  0.12509000000E+03 0.  0.
         25    1    4    4    0    0  0.36774218350E+02 -0.12077523841E+02  0.23982331152E+03  0.27324153888E+03  0.12509000000E+03 0.  0.
<mgrwt>
<rscale>  2 0.47046608E+03</rscale>
<asrwt>0</asrwt>
<pdfrwt beam="1">  1       21 0.18408576E+00 0.47046608E+03</pdfrwt>
<pdfrwt beam="2">  1       21 0.65006774E-02 0.47046608E+03</pdfrwt>
<totfact> 0.25963478E+04</totfact>
</mgrwt>
</event>
<event>
 7    0  0.4779893E-002  0.4571585E+03  0.7546771E-02  0.1025609E+00
         21   -1    0    0  502  501  0.00000000000E+00  0.00000000000E+00  0.18875761688E+03  0.18875761688E+03  0.00000000000E+00 0. -1.
         21   -1    0    0  501  502 -0.00000000000E+00 -0.00000000000E+00 -0.27680189817E+03  0.27680189817E+03  0.00000000000E+00 0. -1.
      99926    2    1    2    0    0  0.00000000000E+00 -0.14210854715E-13 -0.88044281288E+02  0.46555951505E+03  0.45715846988E+03 0.  0.
      99925    2    3    3    0    0  0.73204125211E+02  0.78546708381E+02 -0.97796361939E+02  0.30042005725E+03  0.26298222952E+03 0.  0.
         25    1    3    3    0    0 -0.73204125211E+02 -0.78546708381E+02  0.97520806508E+01  0.16513945780E+03  0.12509000000E+03 0.  0.
         25    1    4    4    0    0  0.59887812381E+02  0.69846916433E+02 -0.33411152722E+02  0.15883625226E+03  0.12509000000E+03 0.  0.
         25    1    4    4    0    0  0.13316312830E+02  0.86997919481E+01 -0.64385209216E+02  0.14158380498E+03  0.12509000000E+03 0.  0.
<mgrwt>
<rscale>  2 0.45715847E+03</rscale>
<asrwt>0</asrwt>
<pdfrwt beam="1">  1       21 0.27758473E-01 0.45715847E+03</pdfrwt>
<pdfrwt beam="2">  1       21 0.40706162E-01 0.45715847E+03</pdfrwt>
<totfact> 0.66618267E+04</totfact>
</mgrwt>
</event>
<event>
 7    0  0.4779893E-002  0.4410170E+03  0.7546771E-02  0.1030435E+00
         21   -1    0    0  502  501  0.00000000000E+00  0.00000000000E+00  0.17070805741E+03  0.17070805741E+03  0.00000000000E+00 0.  1.
         21   -1    0    0  501  502 -0.00000000000E+00 -0.00000000000E+00 -0.28483714465E+03  0.28483714465E+03  0.00000000000E+00 0.  1.
      99926    2    1    2    0    0  0.00000000000E+00  0.00000000000E+00 -0.11412908724E+03  0.45554520207E+03  0.44101698672E+03 0.  0.
      99925    2    3    3    0    0 -0.64427976608E+02 -0.73334253905E+02 -0.53120570298E+02  0.28554983682E+03  0.26303619020E+03 0.  0.
         25    1    4    4    0    0 -0.35201947912E+02  0.10597389828E+01 -0.71527994718E+01  0.13014980147E+03  0.12509000000E+03 0.  0.
         25    1    3    3    0    0  0.64427976608E+02  0.73334253905E+02 -0.61008516940E+02  0.16999536524E+03  0.12509000000E+03 0.  0.
         25    1    4    4    0    0 -0.29226028696E+02 -0.74393992887E+02 -0.45967770826E+02  0.15540003535E+03  0.12509000000E+03 0.  0.
<mgrwt>
<rscale>  2 0.44101699E+03</rscale>
<asrwt>0</asrwt>
<pdfrwt beam="1">  1       21 0.25104126E-01 0.44101699E+03</pdfrwt>
<pdfrwt beam="2">  1       21 0.41887815E-01 0.44101699E+03</pdfrwt>
<totfact> 0.76685244E+04</totfact>
</mgrwt>
</event>
<event>
 7    0  0.4779893E-002  0.4590628E+03  0.7546771E-02  0.1025053E+00
         21   -1    0    0  502  501  0.00000000000E+00  0.00000000000E+00  0.30867771145E+03  0.30867771145E+03  0.00000000000E+00 0. -1.
         21   -1    0    0  501  502 -0.00000000000E+00 -0.00000000000E+00 -0.17067851467E+03  0.17067851467E+03  0.00000000000E+00 0. -1.
      99926    2    1    2    0    0  0.00000000000E+00  0.00000000000E+00  0.13799919678E+03  0.47935622612E+03  0.45906275520E+03 0.  0.
      99925    2    3    3    0    0  0.13327935433E+02 -0.19513276866E+02  0.20607699461E+03  0.33499384704E+03  0.26304894603E+03 0.  0.
         25    1    3    3    0    0 -0.13327935433E+02  0.19513276866E+02 -0.68077797831E+02  0.14436237908E+03  0.12509000000E+03 0.  0.
         25    1    4    4    0    0  0.31437202754E+01 -0.33325265792E+02  0.62464005423E+02  0.14376966436E+03  0.12509000000E+03 0.  0.
         25    1    4    4    0    0  0.10184215157E+02  0.13811988926E+02  0.14361298918E+03  0.19122418267E+03  0.12509000000E+03 0.  0.
<mgrwt>
<rscale>  2 0.45906276E+03</rscale>
<asrwt>0</asrwt>
<pdfrwt beam="1">  1       21 0.45393781E-01 0.45906276E+03</pdfrwt>
<pdfrwt beam="2">  1       21 0.25099782E-01 0.45906276E+03</pdfrwt>
<totfact> 0.64637522E+04</totfact>
</mgrwt>
</event>
<event>
 7    0  0.4779893E-002  0.4710414E+03  0.7546771E-02  0.1021627E+00
         21   -1    0    0  502  501  0.00000000000E+00  0.00000000000E+00  0.71929324282E+02  0.71929324282E+02  0.00000000000E+00 0. -1.
         21   -1    0    0  501  502 -0.00000000000E+00 -0.00000000000E+00 -0.77117379423E+03  0.77117379423E+03  0.00000000000E+00 0. -1.
      99926    2    1    2    0    0  0.00000000000E+00 -0.14210854715E-13 -0.69924446995E+03  0.84310311851E+03  0.47104144159E+03 0.  0.
      99925    2    3    3    0    0  0.42325286523E+02  0.10578622242E+03 -0.33118967292E+03  0.43801794666E+03  0.26304175984E+03 0.  0.
         25    1    4    4    0    0  0.58517882355E+02  0.70325115740E+02 -0.19419135725E+03  0.24845071098E+03  0.12509000000E+03 0.  0.
         25    1    3    3    0    0 -0.42325286523E+02 -0.10578622242E+03 -0.36805479703E+03  0.40508517185E+03  0.12509000000E+03 0.  0.
         25    1    4    4    0    0 -0.16192595832E+02  0.35461106682E+02 -0.13699831567E+03  0.18956723568E+03  0.12509000000E+03 0.  0.
<mgrwt>
<rscale>  2 0.47104144E+03</rscale>
<asrwt>0</asrwt>
<pdfrwt beam="1">  1       21 0.10577841E-01 0.47104144E+03</pdfrwt>
<pdfrwt beam="2">  1       21 0.11340791E+00 0.47104144E+03</pdfrwt>
<totfact> 0.40417650E+04</totfact>
</mgrwt>
</event>
<event>
 7    0  0.4779893E-002  0.4565470E+03  0.7546771E-02  0.1025787E+00
         21   -1    0    0  502  501  0.00000000000E+00  0.00000000000E+00  0.57570011512E+03  0.57570011512E+03  0.00000000000E+00 0.  1.
         21   -1    0    0  501  502 -0.00000000000E+00 -0.00000000000E+00 -0.90513785765E+02  0.90513785765E+02  0.00000000000E+00 0.  1.
      99926    2    1    2    0    0 -0.66613381478E-15  0.00000000000E+00  0.48518632936E+03  0.66621390089E+03  0.45654702665E+03 0.  0.
      99925    2    3    3    0    0  0.28196696374E+00  0.51795358197E+02  0.45304042897E+03  0.52706036824E+03  0.26431829837E+03 0.  0.
         25    1    4    4    0    0 -0.15477601089E+02  0.21484002298E+02  0.14787956898E+03  0.19549167121E+03  0.12509000000E+03 0.  0.
         25    1    3    3    0    0 -0.28196696374E+00 -0.51795358197E+02  0.32145900387E+02  0.13915353265E+03  0.12509000000E+03 0.  0.
         25    1    4    4    0    0  0.15759568053E+02  0.30311355899E+02  0.30516085999E+03  0.33156869703E+03  0.12509000000E+03 0.  0.
<mgrwt>
<rscale>  2 0.45654703E+03</rscale>
<asrwt>0</asrwt>
<pdfrwt beam="1">  1       21 0.84661779E-01 0.45654703E+03</pdfrwt>
<pdfrwt beam="2">  1       21 0.13310851E-01 0.45654703E+03</pdfrwt>
<totfact> 0.54112829E+04</totfact>
</mgrwt>
</event>
<event>
 7    0  0.4779893E-002  0.4514749E+03  0.7546771E-02  0.1027283E+00
         21   -1    0    0  502  501  0.00000000000E+00  0.00000000000E+00  0.92685095667E+03  0.92685095667E+03  0.00000000000E+00 0.  1.
         21   -1    0    0  501  502 -0.00000000000E+00 -0.00000000000E+00 -0.54979071114E+02  0.54979071114E+02  0.00000000000E+00 0.  1.
      99926    2    1    2    0    0  0.00000000000E+00  0.00000000000E+00  0.87187188556E+03  0.98183002779E+03  0.45147493689E+03 0.  0.
      99925    2    3    3    0    0 -0.55896435017E+02 -0.36481543654E+02  0.36070006329E+03  0.45135905360E+03  0.26299267125E+03 0.  0.
         25    1    3    3    0    0  0.55896435017E+02  0.36481543654E+02  0.51117182227E+03  0.53047097419E+03  0.12509000000E+03 0.  0.
         25    1    4    4    0    0 -0.29897004736E+02 -0.53994627387E+02  0.22007414155E+03  0.26055591829E+03  0.12509000000E+03 0.  0.
         25    1    4    4    0    0 -0.25999430281E+02  0.17513083733E+02  0.14062592174E+03  0.19080313530E+03  0.12509000000E+03 0.  0.
<mgrwt>
<rscale>  2 0.45147494E+03</rscale>
<asrwt>0</asrwt>
<pdfrwt beam="1">  1       21 0.13630160E+00 0.45147494E+03</pdfrwt>
<pdfrwt beam="2">  1       21 0.80851581E-02 0.45147494E+03</pdfrwt>
<totfact> 0.40995916E+04</totfact>
</mgrwt>
</event>
<event>
 7    0  0.4779893E-002  0.4270333E+03  0.7546771E-02  0.1034801E+00
         21   -1    0    0  502  501  0.00000000000E+00  0.00000000000E+00  0.15012091918E+04  0.15012091918E+04  0.00000000000E+00 0.  1.
         21   -1    0    0  501  502 -0.00000000000E+00 -0.00000000000E+00 -0.30368430054E+02  0.30368430054E+02  0.00000000000E+00 0.  1.
      99926    2    1    2    0    0  0.00000000000E+00  0.00000000000E+00  0.14708407617E+04  0.15315776219E+04  0.42703333049E+03 0.  0.
      99925    2    3    3    0    0 -0.19864444152E+02 -0.79425684125E+02  0.10241470043E+04  0.10605300059E+04  0.26295203287E+03 0.  0.
         25    1    3    3    0    0  0.19864444152E+02  0.79425684125E+02  0.44669375745E+03  0.47104761595E+03  0.12509000000E+03 0.  0.
         25    1    4    4    0    0 -0.17033696499E+02 -0.71810189035E+01  0.38410834443E+03  0.40438650103E+03  0.12509000000E+03 0.  0.
         25    1    4    4    0    0 -0.28307476529E+01 -0.72244665222E+02  0.64003865986E+03  0.65614350488E+03  0.12509000000E+03 0.  0.
<mgrwt>
<rscale>  2 0.42703333E+03</rscale>
<asrwt>0</asrwt>
<pdfrwt beam="1">  1       21 0.22076601E+00 0.42703333E+03</pdfrwt>
<pdfrwt beam="2">  1       21 0.44659466E-02 0.42703333E+03</pdfrwt>
<totfact> 0.28777471E+04</totfact>
</mgrwt>
</event>
<event>
 7    0  0.4779893E-002  0.4520520E+03  0.7546771E-02  0.1027112E+00
         21   -1    0    0  502  501  0.00000000000E+00  0.00000000000E+00  0.49538309817E+03  0.49538309817E+03  0.00000000000E+00 0.  1.
         21   -1    0    0  501  502 -0.00000000000E+00 -0.00000000000E+00 -0.10312777537E+03  0.10312777537E+03  0.00000000000E+00 0.  1.
      99926    2    1    2    0    0  0.00000000000E+00  0.71054273576E-14  0.39225532280E+03  0.59851087353E+03  0.45205201855E+03 0.  0.
      99925    2    3    3    0    0 -0.46124125457E+02  0.48849623932E+02  0.13166490566E+03  0.30174734088E+03  0.26306290054E+03 0.  0.
         25    1    3    3    0    0  0.46124125457E+02 -0.48849623932E+02  0.26059041714E+03  0.29676353265E+03  0.12509000000E+03 0.  0.
         25    1    4    4    0    0 -0.20590161401E+02  0.62539375918E+02  0.51894458448E+02  0.15058443214E+03  0.12509000000E+03 0.  0.
         25    1    4    4    0    0 -0.25533964056E+02 -0.13689751986E+02  0.79770447211E+02  0.15116290874E+03  0.12509000000E+03 0.  0.
<mgrwt>
<rscale>  2 0.45205202E+03</rscale>
<asrwt>0</asrwt>
<pdfrwt beam="1">  1       21 0.72850455E-01 0.45205202E+03</pdfrwt>
<pdfrwt beam="2">  1       21 0.15165850E-01 0.45205202E+03</pdfrwt>
<totfact> 0.60159135E+04</totfact>
</mgrwt>
</event>
<event>
 7    0  0.4779893E-002  0.5108656E+03  0.7546771E-02  0.1010981E+00
         21   -1    0    0  502  501  0.00000000000E+00  0.00000000000E+00  0.11907162882E+04  0.11907162882E+04  0.00000000000E+00 0.  1.
         21   -1    0    0  501  502 -0.00000000000E+00 -0.00000000000E+00 -0.54795516693E+02  0.54795516693E+02  0.00000000000E+00 0.  1.
      99926    2    1    2    0    0  0.00000000000E+00 -0.14210854715E-13  0.11359207715E+04  0.12455118049E+04  0.51086559581E+03 0.  0.
      99925    2    3    3    0    0 -0.12851878962E+03  0.78326734249E+02  0.81635426858E+03  0.87078201628E+03  0.26301116223E+03 0.  0.
         25    1    4    4    0    0 -0.27054010030E+02  0.37288383394E+02  0.43007717587E+03  0.45026239939E+03  0.12509000000E+03 0.  0.
         25    1    3    3    0    0  0.12851878962E+03 -0.78326734249E+02  0.31956650290E+03  0.37472978860E+03  0.12509000000E+03 0.  0.
         25    1    4    4    0    0 -0.10146477959E+03  0.41038350856E+02  0.38627709271E+03  0.42051961689E+03  0.12509000000E+03 0.  0.
<mgrwt>
<rscale>  2 0.51086560E+03</rscale>
<asrwt>0</asrwt>
<pdfrwt beam="1">  1       21 0.17510532E+00 0.51086560E+03</pdfrwt>
<pdfrwt beam="2">  1       21 0.80581650E-02 0.51086560E+03</pdfrwt>
<totfact> 0.20346565E+04</totfact>
</mgrwt>
</event>
<event>
 7    0  0.4779893E-002  0.4583161E+03  0.7546771E-02  0.1025271E+00
         21   -1    0    0  502  501  0.00000000000E+00  0.00000000000E+00  0.83580100717E+03  0.83580100717E+03  0.00000000000E+00 0.  1.
         21   -1    0    0  501  502 -0.00000000000E+00 -0.00000000000E+00 -0.62830042892E+02  0.62830042892E+02  0.00000000000E+00 0.  1.
      99926    2    1    2    0    0  0.00000000000E+00 -0.17763568394E-14  0.77297096428E+03  0.89863105007E+03  0.45831610546E+03 0.  0.
      99925    2    3    3    0    0  0.38850109729E+02  0.14148756448E+02  0.69807830301E+03  0.74708588469E+03  0.26289633631E+03 0.  0.
         25    1    4    4    0    0 -0.52085681344E+01  0.39072539164E+02  0.33845012694E+03  0.36297353764E+03  0.12509000000E+03 0.  0.
         25    1    3    3    0    0 -0.38850109729E+02 -0.14148756448E+02  0.74892661275E+02  0.15154516537E+03  0.12509000000E+03 0.  0.
         25    1    4    4    0    0  0.44058677864E+02 -0.24923782717E+02  0.35962817607E+03  0.38411234706E+03  0.12509000000E+03 0.  0.
<mgrwt>
<rscale>  2 0.45831611E+03</rscale>
<asrwt>0</asrwt>
<pdfrwt beam="1">  1       21 0.12291191E+00 0.45831611E+03</pdfrwt>
<pdfrwt beam="2">  1       21 0.92397127E-02 0.45831611E+03</pdfrwt>
<totfact> 0.42186875E+04</totfact>
</mgrwt>
</event>
<event>
 7    0  0.4779893E-002  0.4516995E+03  0.7546771E-02  0.1027216E+00
         21   -1    0    0  502  501  0.00000000000E+00  0.00000000000E+00  0.40490854262E+03  0.40490854262E+03  0.00000000000E+00 0.  1.
         21   -1    0    0  501  502 -0.00000000000E+00 -0.00000000000E+00 -0.12597442407E+03  0.12597442407E+03  0.00000000000E+00 0.  1.
      99926    2    1    2    0    0  0.88817841970E-15  0.35527136788E-14  0.27893411855E+03  0.53088296669E+03  0.45169954819E+03 0.  0.
      99925    2    3    3    0    0  0.68318270345E+01  0.30880150268E+02  0.52060336936E+02  0.26988588161E+03  0.26292176187E+03 0.  0.
         25    1    4    4    0    0  0.27048273524E+01  0.54721689353E+02  0.16155056305E+02  0.13751462948E+03  0.12509000000E+03 0.  0.
         25    1    3    3    0    0 -0.68318270345E+01 -0.30880150268E+02  0.22687378161E+03  0.26099708509E+03  0.12509000000E+03 0.  0.
         25    1    4    4    0    0  0.41269996821E+01 -0.23841539086E+02  0.35905280631E+02  0.13237125213E+03  0.12509000000E+03 0.  0.
<mgrwt>
<rscale>  2 0.45169955E+03</rscale>
<asrwt>0</asrwt>
<pdfrwt beam="1">  1       21 0.59545373E-01 0.45169955E+03</pdfrwt>
<pdfrwt beam="2">  1       21 0.18525651E-01 0.45169955E+03</pdfrwt>
<totfact> 0.64824779E+04</totfact>
</mgrwt>
</event>
<event>
 7    0  0.4779893E-002  0.4507136E+03  0.7546771E-02  0.1027509E+00
         21   -1    0    0  502  501  0.00000000000E+00  0.00000000000E+00  0.53492471422E+02  0.53492471422E+02  0.00000000000E+00 0.  1.
         21   -1    0    0  501  502 -0.00000000000E+00 -0.00000000000E+00 -0.94939863972E+03  0.94939863972E+03  0.00000000000E+00 0.  1.
      99926    2    1    2    0    0  0.14210854715E-13  0.00000000000E+00 -0.89590616830E+03  0.10028911111E+04  0.45071356582E+03 0.  0.
      99925    2    3    3    0    0  0.98814552776E+02  0.45032719596E+02 -0.54090266943E+03  0.61114214307E+03  0.26291968273E+03 0.  0.
         25    1    4    4    0    0  0.67076182647E+02  0.59366036518E+02 -0.31547992043E+03  0.35099662229E+03  0.12509000000E+03 0.  0.
         25    1    4    4    0    0  0.31738370129E+02 -0.14333316922E+02 -0.22542274900E+03  0.26014552077E+03  0.12509000000E+03 0.  0.
         25    1    3    3    0    0 -0.98814552776E+02 -0.45032719596E+02 -0.35500349888E+03  0.39174896808E+03  0.12509000000E+03 0.  0.
<mgrwt>
<rscale>  2 0.45071357E+03</rscale>
<asrwt>0</asrwt>
<pdfrwt beam="1">  1       21 0.78665410E-02 0.45071357E+03</pdfrwt>
<pdfrwt beam="2">  1       21 0.13961743E+00 0.45071357E+03</pdfrwt>
<totfact> 0.40389724E+04</totfact>
</mgrwt>
</event>
<event>
 7    0  0.4779893E-002  0.4519426E+03  0.7546771E-02  0.1027144E+00
         21   -1    0    0  502  501  0.00000000000E+00  0.00000000000E+00  0.30434660953E+03  0.30434660953E+03  0.00000000000E+00 0. -1.
         21   -1    0    0  501  502 -0.00000000000E+00 -0.00000000000E+00 -0.16777920736E+03  0.16777920736E+03  0.00000000000E+00 0. -1.
      99926    2    1    2    0    0  0.71054273576E-14  0.00000000000E+00  0.13656740217E+03  0.47212581689E+03  0.45194261986E+03 0.  0.
      99925    2    3    3    0    0 -0.43506598517E+02  0.89643009225E+02  0.13539992234E+03  0.31219594374E+03  0.26306743451E+03 0.  0.
         25    1    4    4    0    0 -0.34311184517E+02  0.74549834287E+02  0.10343465150E+03  0.18188229822E+03  0.12509000000E+03 0.  0.
         25    1    3    3    0    0  0.43506598517E+02 -0.89643009225E+02  0.11674798239E+01  0.15992987315E+03  0.12509000000E+03 0.  0.
         25    1    4    4    0    0 -0.91954139998E+01  0.15093174938E+02  0.31965270837E+02  0.13031364552E+03  0.12509000000E+03 0.  0.
<mgrwt>
<rscale>  2 0.45194262E+03</rscale>
<asrwt>0</asrwt>
<pdfrwt beam="1">  1       21 0.44756855E-01 0.45194262E+03</pdfrwt>
<pdfrwt beam="2">  1       21 0.24673413E-01 0.45194262E+03</pdfrwt>
<totfact> 0.68935275E+04</totfact>
</mgrwt>
</event>
<event>
 7    0  0.4779893E-002  0.4592196E+03  0.7546771E-02  0.1025008E+00
         21   -1    0    0  502  501  0.00000000000E+00  0.00000000000E+00  0.33184789924E+03  0.33184789924E+03  0.00000000000E+00 0.  1.
         21   -1    0    0  501  502 -0.00000000000E+00 -0.00000000000E+00 -0.15886996956E+03  0.15886996956E+03  0.00000000000E+00 0.  1.
      99926    2    1    2    0    0  0.71054273576E-14  0.00000000000E+00  0.17297792969E+03  0.49071786880E+03  0.45921962350E+03 0.  0.
      99925    2    3    3    0    0  0.34318242692E+02 -0.10574636856E+03  0.14773301677E+03  0.32146997377E+03  0.26297882718E+03 0.  0.
         25    1    4    4    0    0  0.41592965409E+02 -0.48697189393E+02  0.38460327955E+02  0.14569864774E+03  0.12509000000E+03 0.  0.
         25    1    4    4    0    0 -0.72747227167E+01 -0.57049179166E+02  0.10927268882E+03  0.17577132603E+03  0.12509000000E+03 0.  0.
         25    1    3    3    0    0 -0.34318242692E+02  0.10574636856E+03  0.25244912914E+02  0.16924789503E+03  0.12509000000E+03 0.  0.
<mgrwt>
<rscale>  2 0.45921962E+03</rscale>
<asrwt>0</asrwt>
<pdfrwt beam="1">  1       21 0.48801162E-01 0.45921962E+03</pdfrwt>
<pdfrwt beam="2">  1       21 0.23363231E-01 0.45921962E+03</pdfrwt>
<totfact> 0.63764894E+04</totfact>
</mgrwt>
</event>
<event>
 7    0  0.4779893E-002  0.4490093E+03  0.7546771E-02  0.1028018E+00
         21   -1    0    0  502  501  0.00000000000E+00  0.00000000000E+00  0.61396761354E+03  0.61396761354E+03  0.00000000000E+00 0.  1.
         21   -1    0    0  501  502 -0.00000000000E+00 -0.00000000000E+00 -0.82092842503E+02  0.82092842503E+02  0.00000000000E+00 0.  1.
      99926    2    1    2    0    0 -0.35527136788E-14  0.00000000000E+00  0.53187477103E+03  0.69606045604E+03  0.44900933888E+03 0.  0.
      99925    2    3    3    0    0 -0.20304251629E+02  0.53309787011E+02  0.47763993399E+03  0.54826626916E+03  0.26306234876E+03 0.  0.
         25    1    3    3    0    0  0.20304251629E+02 -0.53309787011E+02  0.54234837040E+02  0.14779418688E+03  0.12509000000E+03 0.  0.
         25    1    4    4    0    0 -0.23906125597E+02  0.51147184799E+02  0.18821196347E+03  0.23293515975E+03  0.12509000000E+03 0.  0.
         25    1    4    4    0    0  0.36018739685E+01  0.21626022122E+01  0.28942797052E+03  0.31533110941E+03  0.12509000000E+03 0.  0.
<mgrwt>
<rscale>  2 0.44900934E+03</rscale>
<asrwt>0</asrwt>
<pdfrwt beam="1">  1       21 0.90289353E-01 0.44900934E+03</pdfrwt>
<pdfrwt beam="2">  1       21 0.12072477E-01 0.44900934E+03</pdfrwt>
<totfact> 0.55697415E+04</totfact>
</mgrwt>
</event>
<event>
 7    0  0.4779893E-002  0.4331376E+03  0.7546771E-02  0.1032873E+00
         21   -1    0    0  502  501  0.00000000000E+00  0.00000000000E+00  0.42467082439E+03  0.42467082439E+03  0.00000000000E+00 0. -1.
         21   -1    0    0  501  502 -0.00000000000E+00 -0.00000000000E+00 -0.11044329047E+03  0.11044329047E+03  0.00000000000E+00 0. -1.
      99926    2    1    2    0    0 -0.88817841970E-15  0.00000000000E+00  0.31422753392E+03  0.53511411486E+03  0.43313759113E+03 0.  0.
      99925    2    3    3    0    0  0.24458209965E+01 -0.90558350287E+02  0.21485654158E+03  0.35145982260E+03  0.26297124671E+03 0.  0.
         25    1    4    4    0    0  0.38094384011E+02 -0.54666627414E+02  0.91958119735E+02  0.16894799830E+03  0.12509000000E+03 0.  0.
         25    1    4    4    0    0 -0.35648563014E+02 -0.35891722873E+02  0.12289842184E+03  0.18251182430E+03  0.12509000000E+03 0.  0.
         25    1    3    3    0    0 -0.24458209965E+01  0.90558350287E+02  0.99370992340E+02  0.18365429226E+03  0.12509000000E+03 0.  0.
<mgrwt>
<rscale>  2 0.43313759E+03</rscale>
<asrwt>0</asrwt>
<pdfrwt beam="1">  1       21 0.62451591E-01 0.43313759E+03</pdfrwt>
<pdfrwt beam="2">  1       21 0.16241661E-01 0.43313759E+03</pdfrwt>
<totfact> 0.75024377E+04</totfact>
</mgrwt>
</event>
<event>
 7    0  0.4779893E-002  0.4559740E+03  0.7546771E-02  0.1025955E+00
         21   -1    0    0  502  501  0.00000000000E+00  0.00000000000E+00  0.62605703678E+03  0.62605703678E+03  0.00000000000E+00 0. -1.
         21   -1    0    0  501  502 -0.00000000000E+00 -0.00000000000E+00 -0.83024516967E+02  0.83024516967E+02  0.00000000000E+00 0. -1.
      99926    2    1    2    0    0 -0.14210854715E-13  0.88817841970E-15  0.54303251981E+03  0.70908155375E+03  0.45597404782E+03 0.  0.
      99925    2    3    3    0    0  0.96678903854E+02 -0.44621640626E+01  0.24728707537E+03  0.37370177295E+03  0.26293610650E+03 0.  0.
         25    1    3    3    0    0 -0.96678903854E+02  0.44621640626E+01  0.29574544444E+03  0.33537978080E+03  0.12509000000E+03 0.  0.
         25    1    4    4    0    0  0.31334520605E+02  0.13266331435E+02  0.16336719051E+03  0.20855261870E+03  0.12509000000E+03 0.  0.
         25    1    4    4    0    0  0.65344383249E+02 -0.17728495498E+02  0.83919884862E+02  0.16514915425E+03  0.12509000000E+03 0.  0.
<mgrwt>
<rscale>  2 0.45597405E+03</rscale>
<asrwt>0</asrwt>
<pdfrwt beam="1">  1       21 0.92067208E-01 0.45597405E+03</pdfrwt>
<pdfrwt beam="2">  1       21 0.12209488E-01 0.45597405E+03</pdfrwt>
<totfact> 0.52012910E+04</totfact>
</mgrwt>
</event>
<event>
 7    0  0.4779893E-002  0.4540922E+03  0.7546771E-02  0.1026509E+00
         21   -1    0    0  502  501  0.00000000000E+00  0.00000000000E+00  0.30859183433E+04  0.30859183433E+04  0.00000000000E+00 0.  1.
         21   -1    0    0  501  502 -0.00000000000E+00 -0.00000000000E+00 -0.16704894386E+02  0.16704894386E+02  0.00000000000E+00 0.  1.
      99926    2    1    2    0    0  0.00000000000E+00  0.00000000000E+00  0.30692134489E+04  0.31026232377E+04  0.45409223737E+03 0.  0.
      99925    2    3    3    0    0  0.84439259378E+02 -0.71635432047E+02  0.20386331408E+04  0.20585902385E+04  0.26364192377E+03 0.  0.
         25    1    4    4    0    0  0.45900777444E+02 -0.64805759635E+02  0.85752073894E+03  0.87022755281E+03  0.12509000000E+03 0.  0.
         25    1    3    3    0    0 -0.84439259378E+02  0.71635432047E+02  0.10305803082E+04  0.10440329992E+04  0.12509000000E+03 0.  0.
         25    1    4    4    0    0  0.38538481933E+02 -0.68296724116E+01  0.11811124018E+04  0.11883626857E+04  0.12509000000E+03 0.  0.
<mgrwt>
<rscale>  2 0.45409224E+03</rscale>
<asrwt>0</asrwt>
<pdfrwt beam="1">  1       21 0.45381113E+00 0.45409224E+03</pdfrwt>
<pdfrwt beam="2">  1       21 0.24566042E-02 0.45409224E+03</pdfrwt>
<totfact> 0.27348971E+03</totfact>
</mgrwt>
</event>
<event>
 7    0  0.4779893E-002  0.4533684E+03  0.7546771E-02  0.1026722E+00
         21   -1    0    0  502  501  0.00000000000E+00  0.00000000000E+00  0.25744856884E+02  0.25744856884E+02  0.00000000000E+00 0. -1.
         21   -1    0    0  501  502 -0.00000000000E+00 -0.00000000000E+00 -0.19959605933E+04  0.19959605933E+04  0.00000000000E+00 0. -1.
      99926    2    1    2    0    0  0.00000000000E+00  0.00000000000E+00 -0.19702157364E+04  0.20217054502E+04  0.45336837041E+03 0.  0.
      99925    2    3    3    0    0 -0.10066249350E+03  0.37959939495E+02 -0.13741514789E+04  0.14032282867E+04  0.26302745662E+03 0.  0.
         25    1    3    3    0    0  0.10066249350E+03 -0.37959939495E+02 -0.59606425749E+03  0.61847716349E+03  0.12509000000E+03 0.  0.
         25    1    4    4    0    0 -0.24517919128E+02  0.28572170375E+02 -0.80139824834E+03  0.81197546626E+03  0.12509000000E+03 0.  0.
         25    1    4    4    0    0 -0.76144574369E+02  0.93877691197E+01 -0.57275323061E+03  0.59125282045E+03  0.12509000000E+03 0.  0.
<mgrwt>
<rscale>  2 0.45336837E+03</rscale>
<asrwt>0</asrwt>
<pdfrwt beam="1">  1       21 0.37860091E-02 0.45336837E+03</pdfrwt>
<pdfrwt beam="2">  1       21 0.29352356E+00 0.45336837E+03</pdfrwt>
<totfact> 0.13529048E+04</totfact>
</mgrwt>
</event>
<event>
 7    0  0.4779893E-002  0.4451739E+03  0.7546771E-02  0.1029171E+00
         21   -1    0    0  502  501  0.00000000000E+00  0.00000000000E+00  0.52432061444E+03  0.52432061444E+03  0.00000000000E+00 0. -1.
         21   -1    0    0  501  502 -0.00000000000E+00 -0.00000000000E+00 -0.94493594783E+02  0.94493594783E+02  0.00000000000E+00 0. -1.
      99926    2    1    2    0    0  0.00000000000E+00  0.00000000000E+00  0.42982701966E+03  0.61881420922E+03  0.44517385223E+03 0.  0.
      99925    2    3    3    0    0  0.55761306175E+02 -0.80545777975E+02  0.31990996211E+03  0.42561427844E+03  0.26307448477E+03 0.  0.
         25    1    4    4    0    0  0.38626377295E+02 -0.64151267999E+01  0.18348523330E+03  0.22549387977E+03  0.12509000000E+03 0.  0.
         25    1    3    3    0    0 -0.55761306175E+02  0.80545777975E+02  0.10991705755E+03  0.19319993079E+03  0.12509000000E+03 0.  0.
         25    1    4    4    0    0  0.17134928880E+02 -0.74130651175E+02  0.13642472881E+03  0.20012039866E+03  0.12509000000E+03 0.  0.
<mgrwt>
<rscale>  2 0.44517385E+03</rscale>
<asrwt>0</asrwt>
<pdfrwt beam="1">  1       21 0.77105971E-01 0.44517385E+03</pdfrwt>
<pdfrwt beam="2">  1       21 0.13896117E-01 0.44517385E+03</pdfrwt>
<totfact> 0.62224169E+04</totfact>
</mgrwt>
</event>
<event>
 7    0  0.4779893E-002  0.4338143E+03  0.7546771E-02  0.1032662E+00
         21   -1    0    0  502  501  0.00000000000E+00  0.00000000000E+00  0.17026251805E+04  0.17026251805E+04  0.00000000000E+00 0.  1.
         21   -1    0    0  501  502 -0.00000000000E+00 -0.00000000000E+00 -0.27633040462E+02  0.27633040462E+02  0.00000000000E+00 0.  1.
      99926    2    1    2    0    0  0.00000000000E+00  0.00000000000E+00  0.16749921400E+04  0.17302582210E+04  0.43381429439E+03 0.  0.
      99925    2    3    3    0    0 -0.56063169224E+02 -0.67986436423E+02  0.11683240589E+04  0.12009895868E+04  0.26387430095E+03 0.  0.
         25    1    4    4    0    0 -0.21593013292E+02  0.89967634615E+01  0.54798945689E+03  0.56257190913E+03  0.12509000000E+03 0.  0.
         25    1    4    4    0    0 -0.34470155932E+02 -0.76983199884E+02  0.62033460197E+03  0.63841767772E+03  0.12509000000E+03 0.  0.
         25    1    3    3    0    0  0.56063169224E+02  0.67986436423E+02  0.50666808118E+03  0.52926863412E+03  0.12509000000E+03 0.  0.
<mgrwt>
<rscale>  2 0.43381429E+03</rscale>
<asrwt>0</asrwt>
<pdfrwt beam="1">  1       21 0.25038598E+00 0.43381429E+03</pdfrwt>
<pdfrwt beam="2">  1       21 0.40636836E-02 0.43381429E+03</pdfrwt>
<totfact> 0.22047860E+04</totfact>
</mgrwt>
</event>
<event>
 7    0  0.4779893E-002  0.4532041E+03  0.7546771E-02  0.1026771E+00
         21   -1    0    0  502  501  0.00000000000E+00  0.00000000000E+00  0.21465014665E+03  0.21465014665E+03  0.00000000000E+00 0.  1.
         21   -1    0    0  501  502 -0.00000000000E+00 -0.00000000000E+00 -0.23921949133E+03  0.23921949133E+03  0.00000000000E+00 0.  1.
      99926    2    1    2    0    0  0.00000000000E+00  0.00000000000E+00 -0.24569344680E+02  0.45386963797E+03  0.45320414338E+03 0.  0.
      99925    2    3    3    0    0 -0.10814412178E+03  0.23691368444E+02 -0.28695857644E+02  0.28677395214E+03  0.26298177763E+03 0.  0.
         25    1    4    4    0    0 -0.84776463044E+02  0.33644617388E+02  0.45312871708E+01  0.15487753107E+03  0.12509000000E+03 0.  0.
         25    1    3    3    0    0  0.10814412178E+03 -0.23691368444E+02  0.41265129640E+01  0.16709568583E+03  0.12509000000E+03 0.  0.
         25    1    4    4    0    0 -0.23367658741E+02 -0.99532489441E+01 -0.33227144815E+02  0.13189642107E+03  0.12509000000E+03 0.  0.
<mgrwt>
<rscale>  2 0.45320414E+03</rscale>
<asrwt>0</asrwt>
<pdfrwt beam="1">  1       21 0.31566198E-01 0.45320414E+03</pdfrwt>
<pdfrwt beam="2">  1       21 0.35179337E-01 0.45320414E+03</pdfrwt>
<totfact> 0.69620965E+04</totfact>
</mgrwt>
</event>
<event>
 7    0  0.4779893E-002  0.4504266E+03  0.7546771E-02  0.1027595E+00
         21   -1    0    0  502  501  0.00000000000E+00  0.00000000000E+00  0.10216770007E+03  0.10216770007E+03  0.00000000000E+00 0. -1.
         21   -1    0    0  501  502 -0.00000000000E+00 -0.00000000000E+00 -0.49644888985E+03  0.49644888985E+03  0.00000000000E+00 0. -1.
      99926    2    1    2    0    0  0.00000000000E+00  0.00000000000E+00 -0.39428118978E+03  0.59861658992E+03  0.45042664788E+03 0.  0.
      99925    2    3    3    0    0 -0.17568780099E+02  0.81858990133E+02 -0.34064651478E+03  0.43882377794E+03  0.26366020510E+03 0.  0.
         25    1    4    4    0    0  0.27702923971E+02  0.19189624700E+02 -0.16283381503E+03  0.20808184233E+03  0.12509000000E+03 0.  0.
         25    1    4    4    0    0 -0.45271704070E+02  0.62669365433E+02 -0.17781269975E+03  0.23074193560E+03  0.12509000000E+03 0.  0.
         25    1    3    3    0    0  0.17568780099E+02 -0.81858990133E+02 -0.53634674998E+02  0.15979281198E+03  0.12509000000E+03 0.  0.
<mgrwt>
<rscale>  2 0.45042665E+03</rscale>
<asrwt>0</asrwt>
<pdfrwt beam="1">  1       21 0.15024662E-01 0.45042665E+03</pdfrwt>
<pdfrwt beam="2">  1       21 0.73007190E-01 0.45042665E+03</pdfrwt>
<totfact> 0.60935798E+04</totfact>
</mgrwt>
</event>
<event>
 7    0  0.4779893E-002  0.4493446E+03  0.7546771E-02  0.1027918E+00
         21   -1    0    0  502  501  0.00000000000E+00  0.00000000000E+00  0.22719592462E+03  0.22719592462E+03  0.00000000000E+00 0. -1.
         21   -1    0    0  501  502 -0.00000000000E+00 -0.00000000000E+00 -0.22217669500E+03  0.22217669500E+03  0.00000000000E+00 0. -1.
      99926    2    1    2    0    0  0.00000000000E+00  0.00000000000E+00  0.50192296292E+01  0.44937261962E+03  0.44934458781E+03 0.  0.
      99925    2    3    3    0    0  0.47106834578E+02  0.96883232970E+02  0.58492988823E+00  0.28422848316E+03  0.26302105201E+03 0.  0.
         25    1    4    4    0    0  0.17862841421E+01  0.67600612991E+02  0.28849883813E+02  0.14509602884E+03  0.12509000000E+03 0.  0.
         25    1    3    3    0    0 -0.47106834578E+02 -0.96883232970E+02  0.44342997410E+01  0.16514413647E+03  0.12509000000E+03 0.  0.
         25    1    4    4    0    0  0.45320550435E+02  0.29282619979E+02 -0.28264953925E+02  0.13913245432E+03  0.12509000000E+03 0.  0.
<mgrwt>
<rscale>  2 0.44934459E+03</rscale>
<asrwt>0</asrwt>
<pdfrwt beam="1">  1       21 0.33411166E-01 0.44934459E+03</pdfrwt>
<pdfrwt beam="2">  1       21 0.32673043E-01 0.44934459E+03</pdfrwt>
<totfact> 0.72161716E+04</totfact>
</mgrwt>
</event>
<event>
 7    0  0.4779893E-002  0.4645279E+03  0.7546771E-02  0.1023476E+00
         21   -1    0    0  502  501  0.00000000000E+00  0.00000000000E+00  0.96284430351E+03  0.96284430351E+03  0.00000000000E+00 0. -1.
         21   -1    0    0  501  502 -0.00000000000E+00 -0.00000000000E+00 -0.56028313990E+02  0.56028313990E+02  0.00000000000E+00 0. -1.
      99926    2    1    2    0    0  0.00000000000E+00  0.00000000000E+00  0.90681598952E+03  0.10188726175E+04  0.46452790212E+03 0.  0.
      99925    2    3    3    0    0 -0.31141059020E+02 -0.80156820278E+02  0.37684888142E+03  0.46759453417E+03  0.26312485167E+03 0.  0.
         25    1    4    4    0    0 -0.27784969921E+02 -0.14871529976E+02  0.23136145878E+03  0.26489394041E+03  0.12509000000E+03 0.  0.
         25    1    4    4    0    0 -0.33560890990E+01 -0.65285290303E+02  0.14548742264E+03  0.20270059376E+03  0.12509000000E+03 0.  0.
         25    1    3    3    0    0  0.31141059020E+02  0.80156820278E+02  0.52996710810E+03  0.55127808333E+03  0.12509000000E+03 0.  0.
<mgrwt>
<rscale>  2 0.46452790E+03</rscale>
<asrwt>0</asrwt>
<pdfrwt beam="1">  1       21 0.14159474E+00 0.46452790E+03</pdfrwt>
<pdfrwt beam="2">  1       21 0.82394585E-02 0.46452790E+03</pdfrwt>
<totfact> 0.35709201E+04</totfact>
</mgrwt>
</event>
<event>
 7    0  0.4779893E-002  0.4086687E+03  0.7546771E-02  0.1040819E+00
         21   -1    0    0  502  501  0.00000000000E+00  0.00000000000E+00  0.76170017299E+02  0.76170017299E+02  0.00000000000E+00 0. -1.
         21   -1    0    0  501  502 -0.00000000000E+00 -0.00000000000E+00 -0.54814912517E+03  0.54814912517E+03  0.00000000000E+00 0. -1.
      99926    2    1    2    0    0  0.00000000000E+00  0.00000000000E+00 -0.47197910787E+03  0.62431914247E+03  0.40866870860E+03 0.  0.
      99925    2    3    3    0    0  0.46705752481E+02  0.21237844730E+02 -0.26322183158E+03  0.37560327673E+03  0.26298215816E+03 0.  0.
         25    1    4    4    0    0  0.30449495969E+02  0.24434607780E+02 -0.81327324497E+02  0.15422666330E+03  0.12509000000E+03 0.  0.
         25    1    3    3    0    0 -0.46705752481E+02 -0.21237844730E+02 -0.20875727629E+03  0.24871586574E+03  0.12509000000E+03 0.  0.
         25    1    4    4    0    0  0.16256256512E+02 -0.31967630503E+01 -0.18189450708E+03  0.22137661344E+03  0.12509000000E+03 0.  0.
<mgrwt>
<rscale>  2 0.40866871E+03</rscale>
<asrwt>0</asrwt>
<pdfrwt beam="1">  1       21 0.11201473E-01 0.40866871E+03</pdfrwt>
<pdfrwt beam="2">  1       21 0.80610165E-01 0.40866871E+03</pdfrwt>
<totfact> 0.83932197E+04</totfact>
</mgrwt>
</event>
<event>
 7    0  0.4779893E-002  0.4570205E+03  0.7546771E-02  0.1025649E+00
         21   -1    0    0  502  501  0.00000000000E+00  0.00000000000E+00  0.58070100885E+02  0.58070100885E+02  0.00000000000E+00 0. -1.
         21   -1    0    0  501  502 -0.00000000000E+00 -0.00000000000E+00 -0.89920529186E+03  0.89920529186E+03  0.00000000000E+00 0. -1.
      99926    2    1    2    0    0  0.00000000000E+00  0.00000000000E+00 -0.84113519097E+03  0.95727539274E+03  0.45702053352E+03 0.  0.
      99925    2    3    3    0    0  0.68894363616E+02  0.46958106187E+02 -0.36171099048E+03  0.45483478014E+03  0.26284660834E+03 0.  0.
         25    1    4    4    0    0  0.49200150934E+02 -0.81757794854E+01 -0.21192829727E+03  0.25109482174E+03  0.12509000000E+03 0.  0.
         25    1    4    4    0    0  0.19694212683E+02  0.55133885673E+02 -0.14978269321E+03  0.20373995840E+03  0.12509000000E+03 0.  0.
         25    1    3    3    0    0 -0.68894363616E+02 -0.46958106187E+02 -0.47942420049E+03  0.50244061260E+03  0.12509000000E+03 0.  0.
<mgrwt>
<rscale>  2 0.45702053E+03</rscale>
<asrwt>0</asrwt>
<pdfrwt beam="1">  1       21 0.85397211E-02 0.45702053E+03</pdfrwt>
<pdfrwt beam="2">  1       21 0.13223607E+00 0.45702053E+03</pdfrwt>
<totfact> 0.40208602E+04</totfact>
</mgrwt>
</event>
<event>
 7    0  0.4779893E-002  0.4536851E+03  0.7546771E-02  0.1026629E+00
         21   -1    0    0  502  501  0.00000000000E+00  0.00000000000E+00  0.36165633817E+03  0.36165633817E+03  0.00000000000E+00 0.  1.
         21   -1    0    0  501  502 -0.00000000000E+00 -0.00000000000E+00 -0.14228297705E+03  0.14228297705E+03  0.00000000000E+00 0.  1.
      99926    2    1    2    0    0 -0.71054273576E-14  0.00000000000E+00  0.21937336112E+03  0.50393931521E+03  0.45368509106E+03 0.  0.
      99925    2    3    3    0    0  0.32582330541E+02  0.60898277648E+02  0.23611715170E+03  0.36007107304E+03  0.26292519816E+03 0.  0.
         25    1    4    4    0    0 -0.16216498964E+02  0.99950081114E+01  0.13085500354E+03  0.18202586376E+03  0.12509000000E+03 0.  0.
         25    1    3    3    0    0 -0.32582330541E+02 -0.60898277648E+02 -0.16743790582E+02  0.14386824218E+03  0.12509000000E+03 0.  0.
         25    1    4    4    0    0  0.48798829506E+02  0.50903269537E+02  0.10526214816E+03  0.17804520927E+03  0.12509000000E+03 0.  0.
<mgrwt>
<rscale>  2 0.45368509E+03</rscale>
<asrwt>0</asrwt>
<pdfrwt beam="1">  1       21 0.53184755E-01 0.45368509E+03</pdfrwt>
<pdfrwt beam="2">  1       21 0.20923967E-01 0.45368509E+03</pdfrwt>
<totfact> 0.65677588E+04</totfact>
</mgrwt>
</event>
<event>
 7    0  0.4779893E-002  0.4416195E+03  0.7546771E-02  0.1030251E+00
         21   -1    0    0  502  501  0.00000000000E+00  0.00000000000E+00  0.21221655838E+03  0.21221655838E+03  0.00000000000E+00 0. -1.
         21   -1    0    0  501  502 -0.00000000000E+00 -0.00000000000E+00 -0.22975091601E+03  0.22975091601E+03  0.00000000000E+00 0. -1.
      99926    2    1    2    0    0  0.00000000000E+00  0.00000000000E+00 -0.17534357633E+02  0.44196747439E+03  0.44161951351E+03 0.  0.
      99925    2    3    3    0    0 -0.46190488329E+02  0.75080506725E+02 -0.58669437019E+02  0.28350534466E+03  0.26298770676E+03 0.  0.
         25    1    3    3    0    0  0.46190488329E+02 -0.75080506725E+02  0.41135079386E+02  0.15846212973E+03  0.12509000000E+03 0.  0.
         25    1    4    4    0    0 -0.52615041039E+02  0.11129158663E+02 -0.37955722161E+02  0.14135185057E+03  0.12509000000E+03 0.  0.
         25    1    4    4    0    0  0.64245527099E+01  0.63951348062E+02 -0.20713714858E+02  0.14215349408E+03  0.12509000000E+03 0.  0.
<mgrwt>
<rscale>  2 0.44161951E+03</rscale>
<asrwt>0</asrwt>
<pdfrwt beam="1">  1       21 0.31208318E-01 0.44161951E+03</pdfrwt>
<pdfrwt beam="2">  1       21 0.33786899E-01 0.44161951E+03</pdfrwt>
<totfact> 0.77456187E+04</totfact>
</mgrwt>
</event>
<event>
 7    0  0.4779893E-002  0.4552370E+03  0.7546771E-02  0.1026172E+00
         21   -1    0    0  502  501  0.00000000000E+00  0.00000000000E+00  0.31293254244E+02  0.31293254244E+02  0.00000000000E+00 0. -1.
         21   -1    0    0  501  502 -0.00000000000E+00 -0.00000000000E+00 -0.16556343405E+04  0.16556343405E+04  0.00000000000E+00 0. -1.
      99926    2    1    2    0    0  0.00000000000E+00 -0.14210854715E-13 -0.16243410863E+04  0.16869275947E+04  0.45523702113E+03 0.  0.
      99925    2    3    3    0    0  0.77418570280E+02 -0.67999053065E+02 -0.12001879367E+04  0.12328671267E+04  0.26247430830E+03 0.  0.
         25    1    4    4    0    0  0.58866315297E+02 -0.60892958177E+02 -0.54499912946E+03  0.56554818950E+03  0.12509000000E+03 0.  0.
         25    1    4    4    0    0  0.18552254983E+02 -0.71060948875E+01 -0.65518880719E+03  0.66731893718E+03  0.12509000000E+03 0.  0.
         25    1    3    3    0    0 -0.77418570280E+02  0.67999053065E+02 -0.42415314961E+03  0.45406046807E+03  0.12509000000E+03 0.  0.
<mgrwt>
<rscale>  2 0.45523702E+03</rscale>
<asrwt>0</asrwt>
<pdfrwt beam="1">  1       21 0.46019492E-02 0.45523702E+03</pdfrwt>
<pdfrwt beam="2">  1       21 0.24347564E+00 0.45523702E+03</pdfrwt>
<totfact> 0.19499025E+04</totfact>
</mgrwt>
</event>
<event>
 7    0  0.4779893E-002  0.4515375E+03  0.7546771E-02  0.1027265E+00
         21   -1    0    0  502  501  0.00000000000E+00  0.00000000000E+00  0.11509885845E+04  0.11509885845E+04  0.00000000000E+00 0.  1.
         21   -1    0    0  501  502 -0.00000000000E+00 -0.00000000000E+00 -0.44285000648E+02  0.44285000648E+02  0.00000000000E+00 0.  1.
      99926    2    1    2    0    0 -0.17763568394E-14  0.35527136788E-14  0.11067035839E+04  0.11952735852E+04  0.45153750769E+03 0.  0.
      99925    2    3    3    0    0  0.96710334485E+01 -0.11547792998E+02  0.41080203517E+03  0.48805837464E+03  0.26308892898E+03 0.  0.
         25    1    4    4    0    0  0.34120675708E+02  0.21828774349E+02  0.21644562308E+03  0.25325270335E+03  0.12509000000E+03 0.  0.
         25    1    4    4    0    0 -0.24449642259E+02 -0.33376567347E+02  0.19435641208E+03  0.23480567130E+03  0.12509000000E+03 0.  0.
         25    1    3    3    0    0 -0.96710334485E+01  0.11547792998E+02  0.69590154872E+03  0.70721521054E+03  0.12509000000E+03 0.  0.
<mgrwt>
<rscale>  2 0.45153751E+03</rscale>
<asrwt>0</asrwt>
<pdfrwt beam="1">  1       21 0.16926301E+00 0.45153751E+03</pdfrwt>
<pdfrwt beam="2">  1       21 0.65125008E-02 0.45153751E+03</pdfrwt>
<totfact> 0.33192432E+04</totfact>
</mgrwt>
</event>
<event>
 7    0  0.4779893E-002  0.4532696E+03  0.7546771E-02  0.1026751E+00
         21   -1    0    0  502  501  0.00000000000E+00  0.00000000000E+00  0.49358247800E+02  0.49358247800E+02  0.00000000000E+00 0.  1.
         21   -1    0    0  501  502 -0.00000000000E+00 -0.00000000000E+00 -0.10406230043E+04  0.10406230043E+04  0.00000000000E+00 0.  1.
      99926    2    1    2    0    0  0.00000000000E+00  0.00000000000E+00 -0.99126475653E+03  0.10899812521E+04  0.45326958033E+03 0.  0.
      99925    2    3    3    0    0 -0.56985342305E+02 -0.83762841352E+02 -0.73702688016E+03  0.78906939010E+03  0.26297972828E+03 0.  0.
         25    1    4    4    0    0 -0.26618857279E+02 -0.29656713852E+02 -0.46664899165E+03  0.48476476125E+03  0.12509000000E+03 0.  0.
         25    1    3    3    0    0  0.56985342305E+02  0.83762841352E+02 -0.25423787637E+03  0.30091186203E+03  0.12509000000E+03 0.  0.
         25    1    4    4    0    0 -0.30366485026E+02 -0.54106127500E+02 -0.27037788851E+03  0.30430462885E+03  0.12509000000E+03 0.  0.
<mgrwt>
<rscale>  2 0.45326958E+03</rscale>
<asrwt>0</asrwt>
<pdfrwt beam="1">  1       21 0.72585666E-02 0.45326958E+03</pdfrwt>
<pdfrwt beam="2">  1       21 0.15303278E+00 0.45326958E+03</pdfrwt>
<totfact> 0.36331629E+04</totfact>
</mgrwt>
</event>
<event>
 7    0  0.4779893E-002  0.4247062E+03  0.7546771E-02  0.1035545E+00
         21   -1    0    0  502  501  0.00000000000E+00  0.00000000000E+00  0.17757852739E+03  0.17757852739E+03  0.00000000000E+00 0. -1.
         21   -1    0    0  501  502 -0.00000000000E+00 -0.00000000000E+00 -0.25393744973E+03  0.25393744973E+03  0.00000000000E+00 0. -1.
      99926    2    1    2    0    0  0.00000000000E+00  0.00000000000E+00 -0.76358922341E+02  0.43151597712E+03  0.42470619667E+03 0.  0.
      99925    2    3    3    0    0 -0.50965281840E+02 -0.20054414948E+02 -0.11093339518E+03  0.29065241979E+03  0.26300755018E+03 0.  0.
         25    1    3    3    0    0  0.50965281840E+02  0.20054414948E+02  0.34574472841E+02  0.14086355733E+03  0.12509000000E+03 0.  0.
         25    1    4    4    0    0 -0.38576032391E+02 -0.10407637864E+02 -0.14875994798E+02  0.13215609151E+03  0.12509000000E+03 0.  0.
         25    1    4    4    0    0 -0.12389249449E+02 -0.96467770837E+01 -0.96057400384E+02  0.15849632828E+03  0.12509000000E+03 0.  0.
<mgrwt>
<rscale>  2 0.42470620E+03</rscale>
<asrwt>0</asrwt>
<pdfrwt beam="1">  1       21 0.26114490E-01 0.42470620E+03</pdfrwt>
<pdfrwt beam="2">  1       21 0.37343742E-01 0.42470620E+03</pdfrwt>
<totfact> 0.90202193E+04</totfact>
</mgrwt>
</event>
<event>
 7    0  0.4779893E-002  0.4442795E+03  0.7546771E-02  0.1029442E+00
         21   -1    0    0  502  501  0.00000000000E+00  0.00000000000E+00  0.55627804775E+03  0.55627804775E+03  0.00000000000E+00 0.  1.
         21   -1    0    0  501  502 -0.00000000000E+00 -0.00000000000E+00 -0.88707548545E+02  0.88707548545E+02  0.00000000000E+00 0.  1.
      99926    2    1    2    0    0 -0.88817841970E-15  0.00000000000E+00  0.46757049920E+03  0.64498559629E+03  0.44427947026E+03 0.  0.
      99925    2    3    3    0    0  0.22515616554E+01 -0.64084503129E+02  0.41463977364E+03  0.49478219127E+03  0.26224298245E+03 0.  0.
         25    1    4    4    0    0 -0.21178012143E+02 -0.63621394567E+02  0.23724439482E+03  0.27645723181E+03  0.12509000000E+03 0.  0.
         25    1    3    3    0    0 -0.22515616554E+01  0.64084503129E+02  0.52930725561E+02  0.15020340502E+03  0.12509000000E+03 0.  0.
         25    1    4    4    0    0  0.23429573798E+02 -0.46310856214E+00  0.17739537882E+03  0.21832495946E+03  0.12509000000E+03 0.  0.
<mgrwt>
<rscale>  2 0.44427947E+03</rscale>
<asrwt>0</asrwt>
<pdfrwt beam="1">  1       21 0.81805594E-01 0.44427947E+03</pdfrwt>
<pdfrwt beam="2">  1       21 0.13045228E-01 0.44427947E+03</pdfrwt>
<totfact> 0.60988311E+04</totfact>
</mgrwt>
</event>
<event>
 7    0  0.4779893E-002  0.4443704E+03  0.7546771E-02  0.1029414E+00
         21   -1    0    0  502  501  0.00000000000E+00  0.00000000000E+00  0.10336405711E+03  0.10336405711E+03  0.00000000000E+00 0.  1.
         21   -1    0    0  501  502 -0.00000000000E+00 -0.00000000000E+00 -0.47759595872E+03  0.47759595872E+03  0.00000000000E+00 0.  1.
      99926    2    1    2    0    0  0.00000000000E+00  0.00000000000E+00 -0.37423190161E+03  0.58096001583E+03  0.44437036784E+03 0.  0.
      99925    2    3    3    0    0  0.57770020978E+02  0.42306262520E+02 -0.14126828768E+03  0.30701339934E+03  0.26300818067E+03 0.  0.
         25    1    4    4    0    0 -0.57613424690E+01 -0.54226258759E+00 -0.75736850409E+02  0.14634570621E+03  0.12509000000E+03 0.  0.
         25    1    4    4    0    0  0.63531363447E+02  0.42848525108E+02 -0.65531437274E+02  0.16066769313E+03  0.12509000000E+03 0.  0.
         25    1    3    3    0    0 -0.57770020978E+02 -0.42306262520E+02 -0.23296361393E+03  0.27394661649E+03  0.12509000000E+03 0.  0.
<mgrwt>
<rscale>  2 0.44437037E+03</rscale>
<asrwt>0</asrwt>
<pdfrwt beam="1">  1       21 0.15200596E-01 0.44437037E+03</pdfrwt>
<pdfrwt beam="2">  1       21 0.70234702E-01 0.44437037E+03</pdfrwt>
<totfact> 0.65171949E+04</totfact>
</mgrwt>
</event>
<event>
 7    0  0.4779893E-002  0.4538467E+03  0.7546771E-02  0.1026581E+00
         21   -1    0    0  502  501  0.00000000000E+00  0.00000000000E+00  0.82840383074E+02  0.82840383074E+02  0.00000000000E+00 0. -1.
         21   -1    0    0  501  502 -0.00000000000E+00 -0.00000000000E+00 -0.62160744708E+03  0.62160744708E+03  0.00000000000E+00 0. -1.
      99926    2    1    2    0    0  0.00000000000E+00  0.00000000000E+00 -0.53876706400E+03  0.70444783015E+03  0.45384666590E+03 0.  0.
      99925    2    3    3    0    0 -0.84087935225E+02 -0.71768743321E+02 -0.31003748702E+03  0.42127604332E+03  0.26292342602E+03 0.  0.
         25    1    4    4    0    0 -0.21654892745E+02 -0.56039770041E+01 -0.17282564503E+03  0.21451468626E+03  0.12509000000E+03 0.  0.
         25    1    3    3    0    0  0.84087935225E+02  0.71768743321E+02 -0.22872957698E+03  0.28317178683E+03  0.12509000000E+03 0.  0.
         25    1    4    4    0    0 -0.62433042480E+02 -0.66164766317E+02 -0.13721184199E+03  0.20676135707E+03  0.12509000000E+03 0.  0.
<mgrwt>
<rscale>  2 0.45384667E+03</rscale>
<asrwt>0</asrwt>
<pdfrwt beam="1">  1       21 0.12182409E-01 0.45384667E+03</pdfrwt>
<pdfrwt beam="2">  1       21 0.91412859E-01 0.45384667E+03</pdfrwt>
<totfact> 0.53142782E+04</totfact>
</mgrwt>
</event>
<event>
 7    0  0.4779893E-002  0.4513002E+03  0.7546771E-02  0.1027335E+00
         21   -1    0    0  502  501  0.00000000000E+00  0.00000000000E+00  0.54471272077E+02  0.54471272077E+02  0.00000000000E+00 0. -1.
         21   -1    0    0  501  502 -0.00000000000E+00 -0.00000000000E+00 -0.93476735786E+03  0.93476735786E+03  0.00000000000E+00 0. -1.
      99926    2    1    2    0    0  0.00000000000E+00  0.00000000000E+00 -0.88029608578E+03  0.98923862994E+03  0.45130019756E+03 0.  0.
      99925    2    3    3    0    0 -0.14836170216E+02 -0.36654825319E+02 -0.77918932127E+03  0.82360718939E+03  0.26387329512E+03 0.  0.
         25    1    4    4    0    0  0.14374631561E+02 -0.44996891847E+02 -0.47106844856E+03  0.48967779369E+03  0.12509000000E+03 0.  0.
         25    1    3    3    0    0  0.14836170216E+02  0.36654825319E+02 -0.10110676452E+03  0.16563144055E+03  0.12509000000E+03 0.  0.
         25    1    4    4    0    0 -0.29210801777E+02  0.83420665278E+01 -0.30812087271E+03  0.33392939570E+03  0.12509000000E+03 0.  0.
<mgrwt>
<rscale>  2 0.45130020E+03</rscale>
<asrwt>0</asrwt>
<pdfrwt beam="1">  1       21 0.80104812E-02 0.45130020E+03</pdfrwt>
<pdfrwt beam="2">  1       21 0.13746579E+00 0.45130020E+03</pdfrwt>
<totfact> 0.40752955E+04</totfact>
</mgrwt>
</event>
<event>
 7    0  0.4779893E-002  0.4556853E+03  0.7546771E-02  0.1026040E+00
         21   -1    0    0  502  501  0.00000000000E+00  0.00000000000E+00  0.36071642335E+02  0.36071642335E+02  0.00000000000E+00 0.  1.
         21   -1    0    0  501  502 -0.00000000000E+00 -0.00000000000E+00 -0.14391435500E+04  0.14391435500E+04  0.00000000000E+00 0.  1.
      99926    2    1    2    0    0  0.00000000000E+00  0.00000000000E+00 -0.14030719077E+04  0.14752151924E+04  0.45568529231E+03 0.  0.
      99925    2    3    3    0    0  0.41981210368E+02  0.10409275749E+03 -0.94476647833E+03  0.98706654813E+03  0.26290482626E+03 0.  0.
         25    1    4    4    0    0  0.29460644976E+02  0.85897228721E+02 -0.60172499879E+03  0.62126221982E+03  0.12509000000E+03 0.  0.
         25    1    4    4    0    0  0.12520565393E+02  0.18195528770E+02 -0.34304147954E+03  0.36580432831E+03  0.12509000000E+03 0.  0.
         25    1    3    3    0    0 -0.41981210368E+02 -0.10409275749E+03 -0.45830542937E+03  0.48814864424E+03  0.12509000000E+03 0.  0.
<mgrwt>
<rscale>  2 0.45568529E+03</rscale>
<asrwt>0</asrwt>
<pdfrwt beam="1">  1       21 0.53046533E-02 0.45568529E+03</pdfrwt>
<pdfrwt beam="2">  1       21 0.21163876E+00 0.45568529E+03</pdfrwt>
<totfact> 0.24263721E+04</totfact>
</mgrwt>
</event>
<event>
 7    0  0.4779893E-002  0.4620755E+03  0.7546771E-02  0.1024181E+00
         21   -1    0    0  502  501  0.00000000000E+00  0.00000000000E+00  0.31293021089E+02  0.31293021089E+02  0.00000000000E+00 0. -1.
         21   -1    0    0  501  502 -0.00000000000E+00 -0.00000000000E+00 -0.17057618325E+04  0.17057618325E+04  0.00000000000E+00 0. -1.
      99926    2    1    2    0    0  0.00000000000E+00  0.00000000000E+00 -0.16744688114E+04  0.17370548536E+04  0.46207549598E+03 0.  0.
      99925    2    3    3    0    0 -0.11254259184E+03  0.40181097096E+02 -0.10224357092E+04  0.10624623618E+04  0.26300405925E+03 0.  0.
         25    1    4    4    0    0 -0.69740957708E+02 -0.19892043171E+01 -0.40372273318E+03  0.42837753384E+03  0.12509000000E+03 0.  0.
         25    1    3    3    0    0  0.11254259184E+03 -0.40181097096E+02 -0.65203310217E+03  0.67459249178E+03  0.12509000000E+03 0.  0.
         25    1    4    4    0    0 -0.42801634133E+02  0.42170301413E+02 -0.61871297604E+03  0.63408482794E+03  0.12509000000E+03 0.  0.
<mgrwt>
<rscale>  2 0.46207550E+03</rscale>
<asrwt>0</asrwt>
<pdfrwt beam="1">  1       21 0.46019148E-02 0.46207550E+03</pdfrwt>
<pdfrwt beam="2">  1       21 0.25084733E+00 0.46207550E+03</pdfrwt>
<totfact> 0.17518662E+04</totfact>
</mgrwt>
</event>
<event>
 7    0  0.4779893E-002  0.4777491E+03  0.7546771E-02  0.1019756E+00
         21   -1    0    0  502  501  0.00000000000E+00  0.00000000000E+00  0.29937718927E+03  0.29937718927E+03  0.00000000000E+00 0.  1.
         21   -1    0    0  501  502 -0.00000000000E+00 -0.00000000000E+00 -0.19059915454E+03  0.19059915454E+03  0.00000000000E+00 0.  1.
      99926    2    1    2    0    0 -0.43229309021E-14  0.14210854715E-13  0.10877803473E+03  0.48997634381E+03  0.47774905196E+03 0.  0.
      99925    2    3    3    0    0 -0.58246526630E-01  0.93691092605E+02  0.16450331953E+03  0.32405214517E+03  0.26300271183E+03 0.  0.
         25    1    4    4    0    0 -0.35387590144E+02  0.65513166044E+02  0.96694056145E+02  0.17476128019E+03  0.12509000000E+03 0.  0.
         25    1    4    4    0    0  0.35329343617E+02  0.28177926561E+02  0.67809263384E+02  0.14929086498E+03  0.12509000000E+03 0.  0.
         25    1    3    3    0    0  0.58246526630E-01 -0.93691092605E+02 -0.55725284799E+02  0.16592419863E+03  0.12509000000E+03 0.  0.
<mgrwt>
<rscale>  2 0.47774905E+03</rscale>
<asrwt>0</asrwt>
<pdfrwt beam="1">  1       21 0.44026057E-01 0.47774905E+03</pdfrwt>
<pdfrwt beam="2">  1       21 0.28029287E-01 0.47774905E+03</pdfrwt>
<totfact> 0.55298767E+04</totfact>
</mgrwt>
</event>
<event>
 7    0  0.4779893E-002  0.4556733E+03  0.7546771E-02  0.1026044E+00
         21   -1    0    0  502  501  0.00000000000E+00  0.00000000000E+00  0.12244837724E+04  0.12244837724E+04  0.00000000000E+00 0.  1.
         21   -1    0    0  501  502 -0.00000000000E+00 -0.00000000000E+00 -0.42392991102E+02  0.42392991102E+02  0.00000000000E+00 0.  1.
      99926    2    1    2    0    0  0.00000000000E+00  0.00000000000E+00  0.11820907813E+04  0.12668767635E+04  0.45567325867E+03 0.  0.
      99925    2    3    3    0    0  0.93160789103E+02 -0.53862209125E+01  0.92415485614E+03  0.96540306051E+03  0.26312150639E+03 0.  0.
         25    1    4    4    0    0  0.40508200496E+02  0.25541668811E+02  0.55338642473E+03  0.56936572985E+03  0.12509000000E+03 0.  0.
         25    1    4    4    0    0  0.52652588607E+02 -0.30927889723E+02  0.37076843141E+03  0.39603733066E+03  0.12509000000E+03 0.  0.
         25    1    3    3    0    0 -0.93160789103E+02  0.53862209125E+01  0.25793592512E+03  0.30147370295E+03  0.12509000000E+03 0.  0.
<mgrwt>
<rscale>  2 0.45567326E+03</rscale>
<asrwt>0</asrwt>
<pdfrwt beam="1">  1       21 0.18007112E+00 0.45567326E+03</pdfrwt>
<pdfrwt beam="2">  1       21 0.62342642E-02 0.45567326E+03</pdfrwt>
<totfact> 0.29934878E+04</totfact>
</mgrwt>
</event>
<event>
 7    0  0.4779893E-002  0.4527319E+03  0.7546771E-02  0.1026910E+00
         21   -1    0    0  502  501  0.00000000000E+00  0.00000000000E+00  0.18814930318E+03  0.18814930318E+03  0.00000000000E+00 0. -1.
         21   -1    0    0  501  502 -0.00000000000E+00 -0.00000000000E+00 -0.27234516750E+03  0.27234516750E+03  0.00000000000E+00 0. -1.
      99926    2    1    2    0    0  0.00000000000E+00 -0.17763568394E-14 -0.84195864319E+02  0.46049447067E+03  0.45273194492E+03 0.  0.
      99925    2    3    3    0    0 -0.87792203184E+02  0.14374419353E+02  0.14851280929E+02  0.27781458685E+03  0.26276660604E+03 0.  0.
         25    1    3    3    0    0  0.87792203184E+02 -0.14374419353E+02 -0.99047145248E+02  0.18267988382E+03  0.12509000000E+03 0.  0.
         25    1    4    4    0    0 -0.52192719766E+02  0.17591853435E+02 -0.30498718565E+02  0.14004011296E+03  0.12509000000E+03 0.  0.
         25    1    4    4    0    0 -0.35599483418E+02 -0.32174340820E+01  0.45349999493E+02  0.13777447389E+03  0.12509000000E+03 0.  0.
<mgrwt>
<rscale>  2 0.45273194E+03</rscale>
<asrwt>0</asrwt>
<pdfrwt beam="1">  1       21 0.27669015E-01 0.45273194E+03</pdfrwt>
<pdfrwt beam="2">  1       21 0.40050760E-01 0.45273194E+03</pdfrwt>
<totfact> 0.69388541E+04</totfact>
</mgrwt>
</event>
<event>
 7    0  0.4779893E-002  0.4545538E+03  0.7546771E-02  0.1026373E+00
         21   -1    0    0  502  501  0.00000000000E+00  0.00000000000E+00  0.98287046681E+03  0.98287046681E+03  0.00000000000E+00 0. -1.
         21   -1    0    0  501  502 -0.00000000000E+00 -0.00000000000E+00 -0.52555039565E+02  0.52555039565E+02  0.00000000000E+00 0. -1.
      99926    2    1    2    0    0 -0.35527136788E-14  0.00000000000E+00  0.93031542725E+03  0.10354255064E+04  0.45455383079E+03 0.  0.
      99925    2    3    3    0    0 -0.96594303022E+01 -0.37490066771E+02  0.34427792736E+03  0.43493714756E+03  0.26295288810E+03 0.  0.
         25    1    4    4    0    0  0.15646461993E+02 -0.18122741256E+00  0.11907529798E+03  0.17341072431E+03  0.12509000000E+03 0.  0.
         25    1    4    4    0    0 -0.25305892295E+02 -0.37308839358E+02  0.22520262938E+03  0.26152642325E+03  0.12509000000E+03 0.  0.
         25    1    3    3    0    0  0.96594303022E+01  0.37490066771E+02  0.58603749989E+03  0.60048835882E+03  0.12509000000E+03 0.  0.
<mgrwt>
<rscale>  2 0.45455383E+03</rscale>
<asrwt>0</asrwt>
<pdfrwt beam="1">  1       21 0.14453976E+00 0.45455383E+03</pdfrwt>
<pdfrwt beam="2">  1       21 0.77286829E-02 0.45455383E+03</pdfrwt>
<totfact> 0.37948770E+04</totfact>
</mgrwt>
</event>
<event>
 7    0  0.4779893E-002  0.4632362E+03  0.7546771E-02  0.1023847E+00
         21   -1    0    0  502  501  0.00000000000E+00  0.00000000000E+00  0.11151861376E+04  0.11151861376E+04  0.00000000000E+00 0.  1.
         21   -1    0    0  501  502 -0.00000000000E+00 -0.00000000000E+00 -0.48105816932E+02  0.48105816932E+02  0.00000000000E+00 0.  1.
      99926    2    1    2    0    0  0.00000000000E+00  0.00000000000E+00  0.10670803207E+04  0.11632919546E+04  0.46323618244E+03 0.  0.
      99925    2    3    3    0    0  0.63339406282E+02  0.73656850433E+02  0.48457225671E+03  0.55963612156E+03  0.26257399829E+03 0.  0.
         25    1    4    4    0    0  0.71661993171E+01  0.64875787563E+02  0.21683831333E+03  0.25870172874E+03  0.12509000000E+03 0.  0.
         25    1    4    4    0    0  0.56173206965E+02  0.87810628698E+01  0.26773394338E+03  0.30093439283E+03  0.12509000000E+03 0.  0.
         25    1    3    3    0    0 -0.63339406282E+02 -0.73656850433E+02  0.58250806398E+03  0.60365583299E+03  0.12509000000E+03 0.  0.
<mgrwt>
<rscale>  2 0.46323618E+03</rscale>
<asrwt>0</asrwt>
<pdfrwt beam="1">  1       21 0.16399794E+00 0.46323618E+03</pdfrwt>
<pdfrwt beam="2">  1       21 0.70743856E-02 0.46323618E+03</pdfrwt>
<totfact> 0.31284981E+04</totfact>
</mgrwt>
</event>
<event>
 7    0  0.4779893E-002  0.4603841E+03  0.7546771E-02  0.1024670E+00
         21   -1    0    0  502  501  0.00000000000E+00  0.00000000000E+00  0.22051572832E+03  0.22051572832E+03  0.00000000000E+00 0.  1.
         21   -1    0    0  501  502 -0.00000000000E+00 -0.00000000000E+00 -0.24029294758E+03  0.24029294758E+03  0.00000000000E+00 0.  1.
      99926    2    1    2    0    0  0.24424906542E-14  0.71054273576E-14 -0.19777219263E+02  0.46080867590E+03  0.46038407594E+03 0.  0.
      99925    2    3    3    0    0  0.16989725856E+01  0.34759994148E+02  0.10061216005E+03  0.28374299754E+03  0.26301357038E+03 0.  0.
         25    1    4    4    0    0 -0.36576026711E+02  0.73304935680E+01  0.62695442136E+02  0.14480942107E+03  0.12509000000E+03 0.  0.
         25    1    4    4    0    0  0.38274999296E+02  0.27429500580E+02  0.37916717914E+02  0.13893357647E+03  0.12509000000E+03 0.  0.
         25    1    3    3    0    0 -0.16989725856E+01 -0.34759994148E+02 -0.12038937931E+03  0.17706567836E+03  0.12509000000E+03 0.  0.
<mgrwt>
<rscale>  2 0.46038408E+03</rscale>
<asrwt>0</asrwt>
<pdfrwt beam="1">  1       21 0.32428784E-01 0.46038408E+03</pdfrwt>
<pdfrwt beam="2">  1       21 0.35337198E-01 0.46038408E+03</pdfrwt>
<totfact> 0.65272908E+04</totfact>
</mgrwt>
</event>
<event>
 7    0  0.4779893E-002  0.4585503E+03  0.7546771E-02  0.1025203E+00
         21   -1    0    0  502  501  0.00000000000E+00  0.00000000000E+00  0.28296151334E+03  0.28296151334E+03  0.00000000000E+00 0. -1.
         21   -1    0    0  501  502 -0.00000000000E+00 -0.00000000000E+00 -0.18577470452E+03  0.18577470452E+03  0.00000000000E+00 0. -1.
      99926    2    1    2    0    0  0.00000000000E+00 -0.14210854715E-13  0.97186808818E+02  0.46873621785E+03  0.45855028745E+03 0.  0.
      99925    2    3    3    0    0  0.40424995801E+02  0.87940540288E+02  0.12708573972E+03  0.30777295161E+03  0.26306973522E+03 0.  0.
         25    1    4    4    0    0  0.55775065498E+01  0.56127266286E+01  0.71382377892E+02  0.14424133684E+03  0.12509000000E+03 0.  0.
         25    1    4    4    0    0  0.34847489251E+02  0.82327813659E+02  0.55703361829E+02  0.16353161477E+03  0.12509000000E+03 0.  0.
         25    1    3    3    0    0 -0.40424995801E+02 -0.87940540288E+02 -0.29898930903E+02  0.16096326625E+03  0.12509000000E+03 0.  0.
<mgrwt>
<rscale>  2 0.45855029E+03</rscale>
<asrwt>0</asrwt>
<pdfrwt beam="1">  1       21 0.41611987E-01 0.45855029E+03</pdfrwt>
<pdfrwt beam="2">  1       21 0.27319809E-01 0.45855029E+03</pdfrwt>
<totfact> 0.65661158E+04</totfact>
</mgrwt>
</event>
<event>
 7    0  0.4779893E-002  0.4545696E+03  0.7546771E-02  0.1026368E+00
         21   -1    0    0  502  501  0.00000000000E+00  0.00000000000E+00  0.31625921509E+02  0.31625921509E+02  0.00000000000E+00 0.  1.
         21   -1    0    0  501  502 -0.00000000000E+00 -0.00000000000E+00 -0.16334187633E+04  0.16334187633E+04  0.00000000000E+00 0.  1.
      99926    2    1    2    0    0  0.00000000000E+00  0.00000000000E+00 -0.16017928418E+04  0.16650446848E+04  0.45456957047E+03 0.  0.
      99925    2    3    3    0    0  0.16411992092E+02  0.11119455533E+03 -0.97368900892E+03  0.10148174049E+04  0.26296481989E+03 0.  0.
         25    1    3    3    0    0 -0.16411992092E+02 -0.11119455533E+03 -0.62810383290E+03  0.65022727998E+03  0.12509000000E+03 0.  0.
         25    1    4    4    0    0  0.20691960797E+02  0.77622416025E+02 -0.40154165568E+03  0.42817824099E+03  0.12509000000E+03 0.  0.
         25    1    4    4    0    0 -0.42799687052E+01  0.33572139305E+02 -0.57214735324E+03  0.58663916387E+03  0.12509000000E+03 0.  0.
<mgrwt>
<rscale>  2 0.45456957E+03</rscale>
<asrwt>0</asrwt>
<pdfrwt beam="1">  1       21 0.46508694E-02 0.45456957E+03</pdfrwt>
<pdfrwt beam="2">  1       21 0.24020871E+00 0.45456957E+03</pdfrwt>
<totfact> 0.20066044E+04</totfact>
</mgrwt>
</event>
<event>
 7    0  0.4779893E-002  0.4548299E+03  0.7546771E-02  0.1026291E+00
         21   -1    0    0  502  501  0.00000000000E+00  0.00000000000E+00  0.92139602261E+02  0.92139602261E+02  0.00000000000E+00 0. -1.
         21   -1    0    0  501  502 -0.00000000000E+00 -0.00000000000E+00 -0.56129555988E+03  0.56129555988E+03  0.00000000000E+00 0. -1.
      99926    2    1    2    0    0  0.00000000000E+00 -0.17763568394E-14 -0.46915595762E+03  0.65343516214E+03  0.45482985671E+03 0.  0.
      99925    2    3    3    0    0 -0.49371839317E+02  0.12063642454E+02 -0.44016034693E+03  0.51533605452E+03  0.26314826257E+03 0.  0.
         25    1    3    3    0    0  0.49371839317E+02 -0.12063642454E+02 -0.28995610695E+02  0.13809910762E+03  0.12509000000E+03 0.  0.
         25    1    4    4    0    0 -0.14507030854E+01 -0.27553667647E+02 -0.20004823112E+03  0.23754602083E+03  0.12509000000E+03 0.  0.
         25    1    4    4    0    0 -0.47921136231E+02  0.39617310101E+02 -0.24011211581E+03  0.27779003368E+03  0.12509000000E+03 0.  0.
<mgrwt>
<rscale>  2 0.45482986E+03</rscale>
<asrwt>0</asrwt>
<pdfrwt beam="1">  1       21 0.13549941E-01 0.45482986E+03</pdfrwt>
<pdfrwt beam="2">  1       21 0.82543468E-01 0.45482986E+03</pdfrwt>
<totfact> 0.55578580E+04</totfact>
</mgrwt>
</event>
<event>
 7    0  0.4779893E-002  0.4596743E+03  0.7546771E-02  0.1024876E+00
         21   -1    0    0  502  501  0.00000000000E+00  0.00000000000E+00  0.21121575256E+03  0.21121575256E+03  0.00000000000E+00 0. -1.
         21   -1    0    0  501  502 -0.00000000000E+00 -0.00000000000E+00 -0.25010024520E+03  0.25010024520E+03  0.00000000000E+00 0. -1.
      99926    2    1    2    0    0  0.00000000000E+00 -0.35527136788E-14 -0.38884492635E+02  0.46131599776E+03  0.45967428253E+03 0.  0.
      99925    2    3    3    0    0  0.63810997583E+02 -0.31267625045E+02 -0.11820427010E+03  0.29703379244E+03  0.26307283515E+03 0.  0.
         25    1    3    3    0    0 -0.63810997583E+02  0.31267625045E+02  0.79319777462E+02  0.16428220532E+03  0.12509000000E+03 0.  0.
         25    1    4    4    0    0  0.58591158320E+02  0.13334301235E+02 -0.48855745301E+02  0.14712280371E+03  0.12509000000E+03 0.  0.
         25    1    4    4    0    0  0.52198392633E+01 -0.44601926280E+02 -0.69348524796E+02  0.14991098873E+03  0.12509000000E+03 0.  0.
<mgrwt>
<rscale>  2 0.45967428E+03</rscale>
<asrwt>0</asrwt>
<pdfrwt beam="1">  1       21 0.31061140E-01 0.45967428E+03</pdfrwt>
<pdfrwt beam="2">  1       21 0.36779448E-01 0.45967428E+03</pdfrwt>
<totfact> 0.65604524E+04</totfact>
</mgrwt>
</event>
<event>
 7    0  0.4779893E-002  0.4484764E+03  0.7546771E-02  0.1028177E+00
         21   -1    0    0  502  501  0.00000000000E+00  0.00000000000E+00  0.10217332567E+03  0.10217332567E+03  0.00000000000E+00 0.  1.
         21   -1    0    0  501  502 -0.00000000000E+00 -0.00000000000E+00 -0.49213215370E+03  0.49213215370E+03  0.00000000000E+00 0.  1.
      99926    2    1    2    0    0  0.00000000000E+00  0.00000000000E+00 -0.38995882803E+03  0.59430547938E+03  0.44847643780E+03 0.  0.
      99925    2    3    3    0    0  0.35235894800E+02 -0.99434213833E+02 -0.27009136654E+03  0.39146453778E+03  0.26299507010E+03 0.  0.
         25    1    4    4    0    0  0.21698901107E+02 -0.87511899607E+02 -0.12093726322E+03  0.19596556998E+03  0.12509000000E+03 0.  0.
         25    1    4    4    0    0  0.13536993693E+02 -0.11922314227E+02 -0.14915410332E+03  0.19549896780E+03  0.12509000000E+03 0.  0.
         25    1    3    3    0    0 -0.35235894800E+02  0.99434213833E+02 -0.11986746149E+03  0.20284094160E+03  0.12509000000E+03 0.  0.
<mgrwt>
<rscale>  2 0.44847644E+03</rscale>
<asrwt>0</asrwt>
<pdfrwt beam="1">  1       21 0.15025489E-01 0.44847644E+03</pdfrwt>
<pdfrwt beam="2">  1       21 0.72372376E-01 0.44847644E+03</pdfrwt>
<totfact> 0.62173843E+04</totfact>
</mgrwt>
</event>
<event>
 7    0  0.4779893E-002  0.4599963E+03  0.7546771E-02  0.1024782E+00
         21   -1    0    0  502  501  0.00000000000E+00  0.00000000000E+00  0.37310900040E+03  0.37310900040E+03  0.00000000000E+00 0.  1.
         21   -1    0    0  501  502 -0.00000000000E+00 -0.00000000000E+00 -0.14177933314E+03  0.14177933314E+03  0.00000000000E+00 0.  1.
      99926    2    1    2    0    0  0.00000000000E+00  0.00000000000E+00  0.23132966726E+03  0.51488833354E+03  0.45999628374E+03 0.  0.
      99925    2    3    3    0    0 -0.52589737175E+02  0.10374013894E+03  0.12450014776E+03  0.31342431387E+03  0.26307188533E+03 0.  0.
         25    1    3    3    0    0  0.52589737175E+02 -0.10374013894E+03  0.10682951950E+03  0.20146401967E+03  0.12509000000E+03 0.  0.
         25    1    4    4    0    0 -0.39056145003E+02  0.75249820162E+02  0.10239690995E+03  0.18253918254E+03  0.12509000000E+03 0.  0.
         25    1    4    4    0    0 -0.13533592172E+02  0.28490318776E+02  0.22103237813E+02  0.13088513133E+03  0.12509000000E+03 0.  0.
<mgrwt>
<rscale>  2 0.45999628E+03</rscale>
<asrwt>0</asrwt>
<pdfrwt beam="1">  1       21 0.54868971E-01 0.45999628E+03</pdfrwt>
<pdfrwt beam="2">  1       21 0.20849902E-01 0.45999628E+03</pdfrwt>
<totfact> 0.61751865E+04</totfact>
</mgrwt>
</event>
<event>
 7    0  0.4779893E-002  0.4557159E+03  0.7546771E-02  0.1026031E+00
         21   -1    0    0  502  501  0.00000000000E+00  0.00000000000E+00  0.84534677052E+03  0.84534677052E+03  0.00000000000E+00 0.  1.
         21   -1    0    0  501  502 -0.00000000000E+00 -0.00000000000E+00 -0.61417698314E+02  0.61417698314E+02  0.00000000000E+00 0.  1.
      99926    2    1    2    0    0 -0.71054273576E-14  0.00000000000E+00  0.78392907221E+03  0.90676446884E+03  0.45571593311E+03 0.  0.
      99925    2    3    3    0    0 -0.39603663174E+02  0.77016228870E+02  0.34567930080E+03  0.44285680573E+03  0.26292208301E+03 0.  0.
         25    1    4    4    0    0  0.78897989835E+01  0.15693585647E+02  0.19403284768E+03  0.23152708619E+03  0.12509000000E+03 0.  0.
         25    1    4    4    0    0 -0.47493462158E+02  0.61322643223E+02  0.15164645311E+03  0.21132971954E+03  0.12509000000E+03 0.  0.
         25    1    3    3    0    0  0.39603663174E+02 -0.77016228870E+02  0.43824977141E+03  0.46390766311E+03  0.12509000000E+03 0.  0.
<mgrwt>
<rscale>  2 0.45571593E+03</rscale>
<asrwt>0</asrwt>
<pdfrwt beam="1">  1       21 0.12431569E+00 0.45571593E+03</pdfrwt>
<pdfrwt beam="2">  1       21 0.90320150E-02 0.45571593E+03</pdfrwt>
<totfact> 0.42702693E+04</totfact>
</mgrwt>
</event>
<event>
 7    0  0.4779893E-002  0.4539382E+03  0.7546771E-02  0.1026554E+00
         21   -1    0    0  502  501  0.00000000000E+00  0.00000000000E+00  0.43465856873E+03  0.43465856873E+03  0.00000000000E+00 0. -1.
         21   -1    0    0  501  502 -0.00000000000E+00 -0.00000000000E+00 -0.11851826836E+03  0.11851826836E+03  0.00000000000E+00 0. -1.
      99926    2    1    2    0    0  0.00000000000E+00 -0.35527136788E-14  0.31614030038E+03  0.55317683709E+03  0.45393823761E+03 0.  0.
      99925    2    3    3    0    0  0.10806163605E+03 -0.30931716530E+02  0.19993462745E+03  0.34876217324E+03  0.26273010859E+03 0.  0.
         25    1    4    4    0    0  0.33125734371E+02 -0.12862567096E+02  0.13708567851E+03  0.18895171675E+03  0.12509000000E+03 0.  0.
         25    1    4    4    0    0  0.74935901680E+02 -0.18069149435E+02  0.62848948933E+02  0.15981045649E+03  0.12509000000E+03 0.  0.
         25    1    3    3    0    0 -0.10806163605E+03  0.30931716530E+02  0.11620567293E+03  0.20441466385E+03  0.12509000000E+03 0.  0.
<mgrwt>
<rscale>  2 0.45393824E+03</rscale>
<asrwt>0</asrwt>
<pdfrwt beam="1">  1       21 0.63920377E-01 0.45393824E+03</pdfrwt>
<pdfrwt beam="2">  1       21 0.17429157E-01 0.45393824E+03</pdfrwt>
<totfact> 0.62177712E+04</totfact>
</mgrwt>
</event>
<event>
 7    0  0.4779893E-002  0.4583583E+03  0.7546771E-02  0.1025258E+00
         21   -1    0    0  502  501  0.00000000000E+00  0.00000000000E+00  0.51866226772E+02  0.51866226772E+02  0.00000000000E+00 0.  1.
         21   -1    0    0  501  502 -0.00000000000E+00 -0.00000000000E+00 -0.10126644159E+04  0.10126644159E+04  0.00000000000E+00 0.  1.
      99926    2    1    2    0    0  0.00000000000E+00  0.00000000000E+00 -0.96079818911E+03  0.10645306427E+04  0.45835829757E+03 0.  0.
      99925    2    3    3    0    0 -0.17313506955E+02 -0.10605486619E+03 -0.49938193352E+03  0.57453078429E+03  0.26297512128E+03 0.  0.
         25    1    4    4    0    0 -0.46067307396E+01 -0.49030148696E+02 -0.32783561197E+03  0.35432876545E+03  0.12509000000E+03 0.  0.
         25    1    4    4    0    0 -0.12706776215E+02 -0.57024717497E+02 -0.17154632154E+03  0.22020201884E+03  0.12509000000E+03 0.  0.
         25    1    3    3    0    0  0.17313506955E+02  0.10605486619E+03 -0.46141625559E+03  0.48999985836E+03  0.12509000000E+03 0.  0.
<mgrwt>
<rscale>  2 0.45835830E+03</rscale>
<asrwt>0</asrwt>
<pdfrwt beam="1">  1       21 0.76273862E-02 0.45835830E+03</pdfrwt>
<pdfrwt beam="2">  1       21 0.14892124E+00 0.45835830E+03</pdfrwt>
<totfact> 0.35801159E+04</totfact>
</mgrwt>
</event>
<event>
 7    0  0.4779893E-002  0.4534738E+03  0.7546771E-02  0.1026691E+00
         21   -1    0    0  502  501  0.00000000000E+00  0.00000000000E+00  0.52284343140E+03  0.52284343140E+03  0.00000000000E+00 0. -1.
         21   -1    0    0  501  502 -0.00000000000E+00 -0.00000000000E+00 -0.98327003368E+02  0.98327003368E+02  0.00000000000E+00 0. -1.
      99926    2    1    2    0    0  0.00000000000E+00  0.00000000000E+00  0.42451642803E+03  0.62117043477E+03  0.45347382654E+03 0.  0.
      99925    2    3    3    0    0  0.66571440636E+02  0.83963526973E+02  0.31110855669E+03  0.42119422630E+03  0.26293423446E+03 0.  0.
         25    1    4    4    0    0  0.40772256285E+02  0.83378410788E+02  0.15918391288E+03  0.22271363337E+03  0.12509000000E+03 0.  0.
         25    1    3    3    0    0 -0.66571440636E+02 -0.83963526973E+02  0.11340787134E+03  0.19997620846E+03  0.12509000000E+03 0.  0.
         25    1    4    4    0    0  0.25799184351E+02  0.58511618468E+00  0.15192464381E+03  0.19848059293E+03  0.12509000000E+03 0.  0.
<mgrwt>
<rscale>  2 0.45347383E+03</rscale>
<asrwt>0</asrwt>
<pdfrwt beam="1">  1       21 0.76888739E-01 0.45347383E+03</pdfrwt>
<pdfrwt beam="2">  1       21 0.14459854E-01 0.45347383E+03</pdfrwt>
<totfact> 0.58090622E+04</totfact>
</mgrwt>
</event>
<event>
 7    0  0.4779893E-002  0.4491901E+03  0.7546771E-02  0.1027964E+00
         21   -1    0    0  502  501  0.00000000000E+00  0.00000000000E+00  0.29227262755E+03  0.29227262755E+03  0.00000000000E+00 0.  1.
         21   -1    0    0  501  502 -0.00000000000E+00 -0.00000000000E+00 -0.17258868182E+03  0.17258868182E+03  0.00000000000E+00 0.  1.
      99926    2    1    2    0    0  0.00000000000E+00  0.00000000000E+00  0.11968394572E+03  0.46486130937E+03  0.44919014914E+03 0.  0.
      99925    2    3    3    0    0  0.39217576492E+02  0.43477094922E+02 -0.17805911105E+02  0.26997866540E+03  0.26295085703E+03 0.  0.
         25    1    3    3    0    0 -0.39217576492E+02 -0.43477094922E+02  0.13748985683E+03  0.19488264397E+03  0.12509000000E+03 0.  0.
         25    1    4    4    0    0  0.19360568196E+02  0.59417073600E+02 -0.25308794815E+02  0.14210300289E+03  0.12509000000E+03 0.  0.
         25    1    4    4    0    0  0.19857008296E+02 -0.15939978679E+02  0.75028837104E+01  0.12787566251E+03  0.12509000000E+03 0.  0.
<mgrwt>
<rscale>  2 0.44919015E+03</rscale>
<asrwt>0</asrwt>
<pdfrwt beam="1">  1       21 0.42981269E-01 0.44919015E+03</pdfrwt>
<pdfrwt beam="2">  1       21 0.25380688E-01 0.44919015E+03</pdfrwt>
<totfact> 0.71037832E+04</totfact>
</mgrwt>
</event>
<event>
 7    0  0.4779893E-002  0.4548511E+03  0.7546771E-02  0.1026285E+00
         21   -1    0    0  502  501  0.00000000000E+00  0.00000000000E+00  0.22285997615E+03  0.22285997615E+03  0.00000000000E+00 0.  1.
         21   -1    0    0  501  502 -0.00000000000E+00 -0.00000000000E+00 -0.23208468184E+03  0.23208468184E+03  0.00000000000E+00 0.  1.
      99926    2    1    2    0    0  0.00000000000E+00  0.00000000000E+00 -0.92247056838E+01  0.45494465799E+03  0.45485112580E+03 0.  0.
      99925    2    3    3    0    0  0.58993967180E+02 -0.65549801210E+02 -0.76597776817E+02  0.28772114464E+03  0.26294328867E+03 0.  0.
         25    1    4    4    0    0  0.80170716987E+01 -0.51160271225E+02 -0.68267840001E+02  0.15162339156E+03  0.12509000000E+03 0.  0.
         25    1    4    4    0    0  0.50976895482E+02 -0.14389529985E+02 -0.83299368152E+01  0.13609775308E+03  0.12509000000E+03 0.  0.
         25    1    3    3    0    0 -0.58993967180E+02  0.65549801210E+02  0.67373071133E+02  0.16722351335E+03  0.12509000000E+03 0.  0.
<mgrwt>
<rscale>  2 0.45485113E+03</rscale>
<asrwt>0</asrwt>
<pdfrwt beam="1">  1       21 0.32773526E-01 0.45485113E+03</pdfrwt>
<pdfrwt beam="2">  1       21 0.34130100E-01 0.45485113E+03</pdfrwt>
<totfact> 0.68631338E+04</totfact>
</mgrwt>
</event>
<event>
 7    0  0.4779893E-002  0.4567018E+03  0.7546771E-02  0.1025742E+00
         21   -1    0    0  502  501  0.00000000000E+00  0.00000000000E+00  0.12277142869E+03  0.12277142869E+03  0.00000000000E+00 0.  1.
         21   -1    0    0  501  502 -0.00000000000E+00 -0.00000000000E+00 -0.42472527405E+03  0.42472527405E+03  0.00000000000E+00 0.  1.
      99926    2    1    2    0    0  0.00000000000E+00  0.00000000000E+00 -0.30195384536E+03  0.54749670273E+03  0.45670177882E+03 0.  0.
      99925    2    3    3    0    0  0.80237337985E+02  0.45722671017E+02 -0.10803426430E+03  0.29893905334E+03  0.26299156317E+03 0.  0.
         25    1    3    3    0    0 -0.80237337985E+02 -0.45722671017E+02 -0.19391958106E+03  0.24855764939E+03  0.12509000000E+03 0.  0.
         25    1    4    4    0    0  0.75705653459E+02  0.46282637437E+02 -0.53897751997E+02  0.16256046341E+03  0.12509000000E+03 0.  0.
         25    1    4    4    0    0  0.45316845253E+01 -0.55996642044E+00 -0.54136512303E+02  0.13637858993E+03  0.12509000000E+03 0.  0.
<mgrwt>
<rscale>  2 0.45670178E+03</rscale>
<asrwt>0</asrwt>
<pdfrwt beam="1">  1       21 0.18054622E-01 0.45670178E+03</pdfrwt>
<pdfrwt beam="2">  1       21 0.62459599E-01 0.45670178E+03</pdfrwt>
<totfact> 0.61203938E+04</totfact>
</mgrwt>
</event>
<event>
 7    0  0.4779893E-002  0.4535416E+03  0.7546771E-02  0.1026671E+00
         21   -1    0    0  502  501  0.00000000000E+00  0.00000000000E+00  0.20582456616E+03  0.20582456616E+03  0.00000000000E+00 0.  1.
         21   -1    0    0  501  502 -0.00000000000E+00 -0.00000000000E+00 -0.24984868307E+03  0.24984868307E+03  0.00000000000E+00 0.  1.
      99926    2    1    2    0    0  0.00000000000E+00 -0.71054273576E-14 -0.44024116910E+02  0.45567324924E+03  0.45354160471E+03 0.  0.
      99925    2    3    3    0    0 -0.10822562300E+03 -0.28183716689E+02 -0.28609128837E+02  0.28717328687E+03  0.26295038901E+03 0.  0.
         25    1    3    3    0    0  0.10822562300E+03  0.28183716689E+02 -0.15414988073E+02  0.16849996236E+03  0.12509000000E+03 0.  0.
         25    1    4    4    0    0 -0.64296592439E+02 -0.51432942726E+02 -0.95341889706E+00  0.14975919506E+03  0.12509000000E+03 0.  0.
         25    1    4    4    0    0 -0.43929030559E+02  0.23249226037E+02 -0.27655709940E+02  0.13741409182E+03  0.12509000000E+03 0.  0.
<mgrwt>
<rscale>  2 0.45354160E+03</rscale>
<asrwt>0</asrwt>
<pdfrwt beam="1">  1       21 0.30268319E-01 0.45354160E+03</pdfrwt>
<pdfrwt beam="2">  1       21 0.36742453E-01 0.45354160E+03</pdfrwt>
<totfact> 0.69299358E+04</totfact>
</mgrwt>
</event>
<event>
 7    0  0.4779893E-002  0.4603771E+03  0.7546771E-02  0.1024672E+00
         21   -1    0    0  502  501  0.00000000000E+00  0.00000000000E+00  0.66187088722E+03  0.66187088722E+03  0.00000000000E+00 0.  1.
         21   -1    0    0  501  502 -0.00000000000E+00 -0.00000000000E+00 -0.80056049896E+02  0.80056049896E+02  0.00000000000E+00 0.  1.
      99926    2    1    2    0    0  0.00000000000E+00  0.00000000000E+00  0.58181483733E+03  0.74192693712E+03  0.46037710096E+03 0.  0.
      99925    2    3    3    0    0 -0.36450459176E+02  0.10844453903E+03  0.31728815612E+03  0.42774430362E+03  0.26306759825E+03 0.  0.
         25    1    3    3    0    0  0.36450459176E+02 -0.10844453903E+03  0.26452668120E+03  0.31418263349E+03  0.12509000000E+03 0.  0.
         25    1    4    4    0    0 -0.17186720220E+02  0.33745400012E+02  0.96273350410E+02  0.16232745138E+03  0.12509000000E+03 0.  0.
         25    1    4    4    0    0 -0.19263738956E+02  0.74699139020E+02  0.22101480571E+03  0.26541685224E+03  0.12509000000E+03 0.  0.
<mgrwt>
<rscale>  2 0.46037710E+03</rscale>
<asrwt>0</asrwt>
<pdfrwt beam="1">  1       21 0.97333951E-01 0.46037710E+03</pdfrwt>
<pdfrwt beam="2">  1       21 0.11772949E-01 0.46037710E+03</pdfrwt>
<totfact> 0.48597943E+04</totfact>
</mgrwt>
</event>
<event>
 7    0  0.4779893E-002  0.4505738E+03  0.7546771E-02  0.1027551E+00
         21   -1    0    0  502  501  0.00000000000E+00  0.00000000000E+00  0.23254694979E+03  0.23254694979E+03  0.00000000000E+00 0.  1.
         21   -1    0    0  501  502 -0.00000000000E+00 -0.00000000000E+00 -0.21825350082E+03  0.21825350082E+03  0.00000000000E+00 0.  1.
      99926    2    1    2    0    0  0.00000000000E+00 -0.88817841970E-15  0.14293448976E+02  0.45080045061E+03  0.45057379372E+03 0.  0.
      99925    2    3    3    0    0 -0.19209401015E+02  0.75808510143E+01 -0.98102448974E+02  0.28136959048E+03  0.26290356704E+03 0.  0.
         25    1    3    3    0    0  0.19209401015E+02 -0.75808510143E+01  0.11239589795E+03  0.16943086013E+03  0.12509000000E+03 0.  0.
         25    1    4    4    0    0  0.22714840867E+02  0.55882168490E+01 -0.74101627442E+02  0.14726082796E+03  0.12509000000E+03 0.  0.
         25    1    4    4    0    0 -0.41924241882E+02  0.19926341652E+01 -0.24000821532E+02  0.13410876251E+03  0.12509000000E+03 0.  0.
<mgrwt>
<rscale>  2 0.45057379E+03</rscale>
<asrwt>0</asrwt>
<pdfrwt beam="1">  1       21 0.34198081E-01 0.45057379E+03</pdfrwt>
<pdfrwt beam="2">  1       21 0.32096103E-01 0.45057379E+03</pdfrwt>
<totfact> 0.71340969E+04</totfact>
</mgrwt>
</event>
<event>
 7    0  0.4779893E-002  0.4483468E+03  0.7546771E-02  0.1028216E+00
         21   -1    0    0  502  501  0.00000000000E+00  0.00000000000E+00  0.18190351321E+04  0.18190351321E+04  0.00000000000E+00 0.  1.
         21   -1    0    0  501  502 -0.00000000000E+00 -0.00000000000E+00 -0.27626575267E+02  0.27626575267E+02  0.00000000000E+00 0.  1.
      99926    2    1    2    0    0 -0.22204460493E-15  0.00000000000E+00  0.17914085569E+04  0.18466617074E+04  0.44834678985E+03 0.  0.
      99925    2    3    3    0    0 -0.10277814476E+01 -0.10213708624E+03  0.12618407518E+04  0.12930168673E+04  0.26309218055E+03 0.  0.
         25    1    3    3    0    0  0.10277814476E+01  0.10213708624E+03  0.52956780507E+03  0.55364484012E+03  0.12509000000E+03 0.  0.
         25    1    4    4    0    0 -0.21056396582E+02 -0.88502522817E+02  0.67178614554E+03  0.68936217028E+03  0.12509000000E+03 0.  0.
         25    1    4    4    0    0  0.20028615134E+02 -0.13634563425E+02  0.59005460627E+03  0.60365469701E+03  0.12509000000E+03 0.  0.
<mgrwt>
<rscale>  2 0.44834679E+03</rscale>
<asrwt>0</asrwt>
<pdfrwt beam="1">  1       21 0.26750508E+00 0.44834679E+03</pdfrwt>
<pdfrwt beam="2">  1       21 0.40627329E-02 0.44834679E+03</pdfrwt>
<totfact> 0.17252923E+04</totfact>
</mgrwt>
</event>
<event>
 7    0  0.4779893E-002  0.4602603E+03  0.7546771E-02  0.1024706E+00
         21   -1    0    0  502  501  0.00000000000E+00  0.00000000000E+00  0.29290251054E+03  0.29290251054E+03  0.00000000000E+00 0.  1.
         21   -1    0    0  501  502 -0.00000000000E+00 -0.00000000000E+00 -0.18081060897E+03  0.18081060897E+03  0.00000000000E+00 0.  1.
      99926    2    1    2    0    0  0.00000000000E+00 -0.14210854715E-13  0.11209190157E+03  0.47371311952E+03  0.46026027985E+03 0.  0.
      99925    2    3    3    0    0 -0.62581197506E+02 -0.98268751587E+02  0.51822223811E+02  0.29245888929E+03  0.26319860414E+03 0.  0.
         25    1    4    4    0    0  0.36171414886E+01 -0.64243786552E+02  0.10065981151E+02  0.14102900375E+03  0.12509000000E+03 0.  0.
         25    1    3    3    0    0  0.62581197506E+02  0.98268751587E+02  0.60269677755E+02  0.18125423023E+03  0.12509000000E+03 0.  0.
         25    1    4    4    0    0 -0.66198338994E+02 -0.34024965035E+02  0.41756242660E+02  0.15142988553E+03  0.12509000000E+03 0.  0.
<mgrwt>
<rscale>  2 0.46026028E+03</rscale>
<asrwt>0</asrwt>
<pdfrwt beam="1">  1       21 0.43073899E-01 0.46026028E+03</pdfrwt>
<pdfrwt beam="2">  1       21 0.26589795E-01 0.46026028E+03</pdfrwt>
<totfact> 0.64429675E+04</totfact>
</mgrwt>
</event>
<event>
 7    0  0.4779893E-002  0.4500702E+03  0.7546771E-02  0.1027701E+00
         21   -1    0    0  502  501  0.00000000000E+00  0.00000000000E+00  0.37485652689E+02  0.37485652689E+02  0.00000000000E+00 0.  1.
         21   -1    0    0  501  502 -0.00000000000E+00 -0.00000000000E+00 -0.13509383639E+04  0.13509383639E+04  0.00000000000E+00 0.  1.
      99926    2    1    2    0    0 -0.35527136788E-14 -0.71054273576E-14 -0.13134527112E+04  0.13884240166E+04  0.45007024480E+03 0.  0.
      99925    2    3    3    0    0  0.27478978666E+02  0.42321947353E+02 -0.53354133086E+03  0.59693459102E+03  0.26290361869E+03 0.  0.
         25    1    4    4    0    0 -0.13507115814E+02  0.47643371144E+02 -0.23877967186E+03  0.27407220360E+03  0.12509000000E+03 0.  0.
         25    1    4    4    0    0  0.40986094480E+02 -0.53214237911E+01 -0.29476165900E+03  0.32286238742E+03  0.12509000000E+03 0.  0.
         25    1    3    3    0    0 -0.27478978666E+02 -0.42321947353E+02 -0.77991138034E+03  0.79148942556E+03  0.12509000000E+03 0.  0.
<mgrwt>
<rscale>  2 0.45007024E+03</rscale>
<asrwt>0</asrwt>
<pdfrwt beam="1">  1       21 0.55125961E-02 0.45007024E+03</pdfrwt>
<pdfrwt beam="2">  1       21 0.19866740E+00 0.45007024E+03</pdfrwt>
<totfact> 0.27687811E+04</totfact>
</mgrwt>
</event>
<event>
 7    0  0.4779893E-002  0.4512349E+03  0.7546771E-02  0.1027354E+00
         21   -1    0    0  502  501  0.00000000000E+00  0.00000000000E+00  0.12788797234E+04  0.12788797234E+04  0.00000000000E+00 0. -1.
         21   -1    0    0  501  502 -0.00000000000E+00 -0.00000000000E+00 -0.39802987569E+02  0.39802987569E+02  0.00000000000E+00 0. -1.
      99926    2    1    2    0    0  0.00000000000E+00  0.00000000000E+00  0.12390767358E+04  0.13186827110E+04  0.45123489995E+03 0.  0.
      99925    2    3    3    0    0 -0.32606498203E+02 -0.63251922045E+02  0.10262435595E+04  0.10617596517E+04  0.26285685280E+03 0.  0.
         25    1    3    3    0    0  0.32606498203E+02  0.63251922045E+02  0.21283317631E+03  0.25692305931E+03  0.12509000000E+03 0.  0.
         25    1    4    4    0    0  0.10336847128E+02 -0.50445409037E+02  0.61012410491E+03  0.62494041412E+03  0.12509000000E+03 0.  0.
         25    1    4    4    0    0 -0.42943345331E+02 -0.12806513007E+02  0.41611945461E+03  0.43681923755E+03  0.12509000000E+03 0.  0.
<mgrwt>
<rscale>  2 0.45123490E+03</rscale>
<asrwt>0</asrwt>
<pdfrwt beam="1">  1       21 0.18807052E+00 0.45123490E+03</pdfrwt>
<pdfrwt beam="2">  1       21 0.58533814E-02 0.45123490E+03</pdfrwt>
<totfact> 0.29429147E+04</totfact>
</mgrwt>
</event>
<event>
 7    0  0.4779893E-002  0.4431810E+03  0.7546771E-02  0.1029775E+00
         21   -1    0    0  502  501  0.00000000000E+00  0.00000000000E+00  0.16037102449E+03  0.16037102449E+03  0.00000000000E+00 0.  1.
         21   -1    0    0  501  502 -0.00000000000E+00 -0.00000000000E+00 -0.30617969391E+03  0.30617969391E+03  0.00000000000E+00 0.  1.
      99926    2    1    2    0    0 -0.14210854715E-13  0.00000000000E+00 -0.14580866942E+03  0.46655071840E+03  0.44318100677E+03 0.  0.
      99925    2    3    3    0    0  0.92252859479E+02 -0.37653508160E+02 -0.71484377130E+02  0.29019883924E+03  0.26301515805E+03 0.  0.
         25    1    4    4    0    0  0.51983397538E+02  0.19927305791E+02 -0.46272235764E+02  0.14452681079E+03  0.12509000000E+03 0.  0.
         25    1    3    3    0    0 -0.92252859479E+02  0.37653508160E+02 -0.74324292289E+02  0.17635187916E+03  0.12509000000E+03 0.  0.
         25    1    4    4    0    0  0.40269461941E+02 -0.57580813951E+02 -0.25212141367E+02  0.14567202845E+03  0.12509000000E+03 0.  0.
<mgrwt>
<rscale>  2 0.44318101E+03</rscale>
<asrwt>0</asrwt>
<pdfrwt beam="1">  1       21 0.23583975E-01 0.44318101E+03</pdfrwt>
<pdfrwt beam="2">  1       21 0.45026424E-01 0.44318101E+03</pdfrwt>
<totfact> 0.74432475E+04</totfact>
</mgrwt>
</event>
<event>
 7    0  0.4779893E-002  0.4346816E+03  0.7546771E-02  0.1032391E+00
         21   -1    0    0  502  501  0.00000000000E+00  0.00000000000E+00  0.42358991448E+03  0.42358991448E+03  0.00000000000E+00 0.  1.
         21   -1    0    0  501  502 -0.00000000000E+00 -0.00000000000E+00 -0.11151594455E+03  0.11151594455E+03  0.00000000000E+00 0.  1.
      99926    2    1    2    0    0  0.00000000000E+00 -0.71054273576E-14  0.31207396993E+03  0.53510585903E+03  0.43468162793E+03 0.  0.
      99925    2    3    3    0    0 -0.75123340092E+02 -0.49811334866E+02  0.17217998207E+03  0.32691719160E+03  0.26287681265E+03 0.  0.
         25    1    4    4    0    0 -0.18032958434E+02 -0.48958183889E+02  0.55049800959E+02  0.14628766197E+03  0.12509000000E+03 0.  0.
         25    1    3    3    0    0  0.75123340092E+02  0.49811334866E+02  0.13989398786E+03  0.20818866743E+03  0.12509000000E+03 0.  0.
         25    1    4    4    0    0 -0.57090381658E+02 -0.85315097665E+00  0.11713018112E+03  0.18062952963E+03  0.12509000000E+03 0.  0.
<mgrwt>
<rscale>  2 0.43468163E+03</rscale>
<asrwt>0</asrwt>
<pdfrwt beam="1">  1       21 0.62292634E-01 0.43468163E+03</pdfrwt>
<pdfrwt beam="2">  1       21 0.16399404E-01 0.43468163E+03</pdfrwt>
<totfact> 0.74074353E+04</totfact>
</mgrwt>
</event>
<event>
 7    0  0.4779893E-002  0.4585247E+03  0.7546771E-02  0.1025210E+00
         21   -1    0    0  502  501  0.00000000000E+00  0.00000000000E+00  0.17108332606E+03  0.17108332606E+03  0.00000000000E+00 0.  1.
         21   -1    0    0  501  502 -0.00000000000E+00 -0.00000000000E+00 -0.30722588925E+03  0.30722588925E+03  0.00000000000E+00 0.  1.
      99926    2    1    2    0    0  0.00000000000E+00  0.00000000000E+00 -0.13614256319E+03  0.47830921530E+03  0.45852470809E+03 0.  0.
      99925    2    3    3    0    0 -0.86712085974E+02 -0.77429686123E+02 -0.78393054784E+02  0.29804037172E+03  0.26299857412E+03 0.  0.
         25    1    4    4    0    0 -0.68695764376E+02 -0.44033905760E+02 -0.79802521177E+01  0.14956365007E+03  0.12509000000E+03 0.  0.
         25    1    4    4    0    0 -0.18016321598E+02 -0.33395780363E+02 -0.70412802666E+02  0.14847672164E+03  0.12509000000E+03 0.  0.
         25    1    3    3    0    0  0.86712085974E+02  0.77429686123E+02 -0.57749508408E+02  0.18026884359E+03  0.12509000000E+03 0.  0.
<mgrwt>
<rscale>  2 0.45852471E+03</rscale>
<asrwt>0</asrwt>
<pdfrwt beam="1">  1       21 0.25159313E-01 0.45852471E+03</pdfrwt>
<pdfrwt beam="2">  1       21 0.45180278E-01 0.45852471E+03</pdfrwt>
<totfact> 0.64986397E+04</totfact>
</mgrwt>
</event>
<event>
 6    0  0.4779893E-002  0.4576555E+03  0.7546771E-02  0.1025463E+00
         21   -1    0    0  502  501  0.00000000000E+00  0.00000000000E+00  0.23648278597E+03  0.23648278597E+03  0.00000000000E+00 0.  1.
         21   -1    0    0  501  502 -0.00000000000E+00 -0.00000000000E+00 -0.22142047544E+03  0.22142047544E+03  0.00000000000E+00 0.  1.
      99926    2    1    2    0    0 -0.14210854715E-13  0.00000000000E+00  0.15062310530E+02  0.45790326141E+03  0.45765546387E+03 0.  0.
         25    1    3    3    0    0 -0.25012010141E+02 -0.19209409674E+01  0.27484750721E+02  0.13050751046E+03  0.12509000000E+03 0.  0.
         25    1    3    3    0    0  0.11265484434E+03  0.31894609702E+02 -0.11842112225E+01  0.17133969341E+03  0.12509000000E+03 0.  0.
         25    1    3    3    0    0 -0.87642834197E+02 -0.29973668734E+02 -0.11238228969E+02  0.15605605754E+03  0.12509000000E+03 0.  0.
<mgrwt>
<rscale>  2 0.45765546E+03</rscale>
<asrwt>0</asrwt>
<pdfrwt beam="1">  1       21 0.34776880E-01 0.45765546E+03</pdfrwt>
<pdfrwt beam="2">  1       21 0.32561834E-01 0.45765546E+03</pdfrwt>
<totfact> 0.66904799E+04</totfact>
</mgrwt>
</event>
<event>
 7    0  0.4779893E-002  0.4540774E+03  0.7546771E-02  0.1026513E+00
         21   -1    0    0  502  501  0.00000000000E+00  0.00000000000E+00  0.43158353243E+03  0.43158353243E+03  0.00000000000E+00 0. -1.
         21   -1    0    0  501  502 -0.00000000000E+00 -0.00000000000E+00 -0.11943591894E+03  0.11943591894E+03  0.00000000000E+00 0. -1.
      99926    2    1    2    0    0  0.00000000000E+00  0.00000000000E+00  0.31214761349E+03  0.55101945137E+03  0.45407741981E+03 0.  0.
      99925    2    3    3    0    0 -0.68984835226E+02  0.73539481607E+02  0.25630877712E+03  0.38092404699E+03  0.26313870391E+03 0.  0.
         25    1    3    3    0    0  0.68984835226E+02 -0.73539481607E+02  0.55838836369E+02  0.17009540439E+03  0.12509000000E+03 0.  0.
         25    1    4    4    0    0 -0.65534251730E+02  0.29035013798E+02  0.98222037842E+02  0.17445012753E+03  0.12509000000E+03 0.  0.
         25    1    4    4    0    0 -0.34505834958E+01  0.44504467808E+02  0.15808673928E+03  0.20647391946E+03  0.12509000000E+03 0.  0.
<mgrwt>
<rscale>  2 0.45407742E+03</rscale>
<asrwt>0</asrwt>
<pdfrwt beam="1">  1       21 0.63468166E-01 0.45407742E+03</pdfrwt>
<pdfrwt beam="2">  1       21 0.17564106E-01 0.45407742E+03</pdfrwt>
<totfact> 0.62252343E+04</totfact>
</mgrwt>
</event>
<event>
 7    0  0.4779893E-002  0.4516278E+03  0.7546771E-02  0.1027238E+00
         21   -1    0    0  502  501  0.00000000000E+00  0.00000000000E+00  0.11959620789E+04  0.11959620789E+04  0.00000000000E+00 0.  1.
         21   -1    0    0  501  502 -0.00000000000E+00 -0.00000000000E+00 -0.42636733424E+02  0.42636733424E+02  0.00000000000E+00 0.  1.
      99926    2    1    2    0    0  0.55511151231E-16  0.00000000000E+00  0.11533253455E+04  0.12385988124E+04  0.45162779518E+03 0.  0.
      99925    2    3    3    0    0 -0.48664931948E+00  0.10790139925E+03  0.67069325599E+03  0.72847707128E+03  0.26307118991E+03 0.  0.
         25    1    3    3    0    0  0.48664931948E+00 -0.10790139925E+03  0.48263208952E+03  0.51012174108E+03  0.12509000000E+03 0.  0.
         25    1    4    4    0    0  0.69327758753E+00  0.85416850672E+02  0.43622794927E+03  0.46177792372E+03  0.12509000000E+03 0.  0.
         25    1    4    4    0    0 -0.11799269070E+01  0.22484548577E+02  0.23446530673E+03  0.26669914756E+03  0.12509000000E+03 0.  0.
<mgrwt>
<rscale>  2 0.45162780E+03</rscale>
<asrwt>0</asrwt>
<pdfrwt beam="1">  1       21 0.17587675E+00 0.45162780E+03</pdfrwt>
<pdfrwt beam="2">  1       21 0.62701086E-02 0.45162780E+03</pdfrwt>
<totfact> 0.31777451E+04</totfact>
</mgrwt>
</event>
<event>
 7    0  0.4779893E-002  0.4646096E+03  0.7546771E-02  0.1023453E+00
         21   -1    0    0  502  501  0.00000000000E+00  0.00000000000E+00  0.72231485999E+02  0.72231485999E+02  0.00000000000E+00 0.  1.
         21   -1    0    0  501  502 -0.00000000000E+00 -0.00000000000E+00 -0.74711919422E+03  0.74711919422E+03  0.00000000000E+00 0.  1.
      99926    2    1    2    0    0 -0.14210854715E-13  0.00000000000E+00 -0.67488770822E+03  0.81935068022E+03  0.46460964095E+03 0.  0.
      99925    2    3    3    0    0 -0.79079060425E+02 -0.36955653115E+02 -0.57149249963E+03  0.63507562669E+03  0.26286528181E+03 0.  0.
         25    1    4    4    0    0 -0.79973105822E+02 -0.10219776254E+02 -0.29411999596E+03  0.32962739814E+03  0.12509000000E+03 0.  0.
         25    1    3    3    0    0  0.79079060425E+02  0.36955653115E+02 -0.10339520859E+03  0.18427505353E+03  0.12509000000E+03 0.  0.
         25    1    4    4    0    0  0.89404539727E+00 -0.26735876862E+02 -0.27737250368E+03  0.30544822855E+03  0.12509000000E+03 0.  0.
<mgrwt>
<rscale>  2 0.46460964E+03</rscale>
<asrwt>0</asrwt>
<pdfrwt beam="1">  1       21 0.10622277E-01 0.46460964E+03</pdfrwt>
<pdfrwt beam="2">  1       21 0.10987047E+00 0.46460964E+03</pdfrwt>
<totfact> 0.43471254E+04</totfact>
</mgrwt>
</event>
<event>
 7    0  0.4779893E-002  0.4577959E+03  0.7546771E-02  0.1025422E+00
         21   -1    0    0  502  501  0.00000000000E+00  0.00000000000E+00  0.26360084744E+03  0.26360084744E+03  0.00000000000E+00 0. -1.
         21   -1    0    0  501  502 -0.00000000000E+00 -0.00000000000E+00 -0.19876370697E+03  0.19876370697E+03  0.00000000000E+00 0. -1.
      99926    2    1    2    0    0  0.35527136788E-14  0.14210854715E-13  0.64837140468E+02  0.46236455442E+03  0.45779594406E+03 0.  0.
      99925    2    3    3    0    0 -0.26156989002E+02  0.11263194470E+03  0.41711934660E+02  0.29045636298E+03  0.26316320081E+03 0.  0.
         25    1    3    3    0    0  0.26156989002E+02 -0.11263194470E+03  0.23125205808E+02  0.17190819144E+03  0.12509000000E+03 0.  0.
         25    1    4    4    0    0  0.23665264610E+02  0.74370969708E+02  0.23429203986E+02  0.14929005856E+03  0.12509000000E+03 0.  0.
         25    1    4    4    0    0 -0.49822253612E+02  0.38260974994E+02  0.18282730674E+02  0.14116630442E+03  0.12509000000E+03 0.  0.
<mgrwt>
<rscale>  2 0.45779594E+03</rscale>
<asrwt>0</asrwt>
<pdfrwt beam="1">  1       21 0.38764830E-01 0.45779594E+03</pdfrwt>
<pdfrwt beam="2">  1       21 0.29229957E-01 0.45779594E+03</pdfrwt>
<totfact> 0.66513138E+04</totfact>
</mgrwt>
</event>
<event>
 7    0  0.4779893E-002  0.4548017E+03  0.7546771E-02  0.1026300E+00
         21   -1    0    0  502  501  0.00000000000E+00  0.00000000000E+00  0.19335379290E+03  0.19335379290E+03  0.00000000000E+00 0. -1.
         21   -1    0    0  501  502 -0.00000000000E+00 -0.00000000000E+00 -0.26744312848E+03  0.26744312848E+03  0.00000000000E+00 0. -1.
      99926    2    1    2    0    0  0.00000000000E+00  0.00000000000E+00 -0.74089335581E+02  0.46079692138E+03  0.45480168547E+03 0.  0.
      99925    2    3    3    0    0  0.26982740359E+02  0.10317670980E+03 -0.84383338570E+02  0.29609423070E+03  0.26301662286E+03 0.  0.
         25    1    3    3    0    0 -0.26982740359E+02 -0.10317670980E+03  0.10294002989E+02  0.16470269069E+03  0.12509000000E+03 0.  0.
         25    1    4    4    0    0  0.51182165194E+02  0.52503145339E+02 -0.59545980947E+02  0.15674637556E+03  0.12509000000E+03 0.  0.
         25    1    4    4    0    0 -0.24199424836E+02  0.50673564459E+02 -0.24837357623E+02  0.13934785514E+03  0.12509000000E+03 0.  0.
<mgrwt>
<rscale>  2 0.45480169E+03</rscale>
<asrwt>0</asrwt>
<pdfrwt beam="1">  1       21 0.28434381E-01 0.45480169E+03</pdfrwt>
<pdfrwt beam="2">  1       21 0.39329872E-01 0.45480169E+03</pdfrwt>
<totfact> 0.68230314E+04</totfact>
</mgrwt>
</event>
<event>
 7    0  0.4779893E-002  0.4597592E+03  0.7546771E-02  0.1024851E+00
         21   -1    0    0  502  501  0.00000000000E+00  0.00000000000E+00  0.35411824775E+03  0.35411824775E+03  0.00000000000E+00 0. -1.
         21   -1    0    0  501  502 -0.00000000000E+00 -0.00000000000E+00 -0.14922879576E+03  0.14922879576E+03  0.00000000000E+00 0. -1.
      99926    2    1    2    0    0  0.00000000000E+00  0.14210854715E-13  0.20488945199E+03  0.50334704351E+03  0.45975923990E+03 0.  0.
      99925    2    3    3    0    0  0.17638569997E+02 -0.84190939600E+02  0.40639818251E+02  0.27968505803E+03  0.26300742080E+03 0.  0.
         25    1    4    4    0    0  0.30986898308E+02 -0.77910790341E+02  0.17269038865E+02  0.15157838540E+03  0.12509000000E+03 0.  0.
         25    1    4    4    0    0 -0.13348328311E+02 -0.62801492588E+01  0.23370779385E+02  0.12810667263E+03  0.12509000000E+03 0.  0.
         25    1    3    3    0    0 -0.17638569997E+02  0.84190939600E+02  0.16424963374E+03  0.22366198547E+03  0.12509000000E+03 0.  0.
<mgrwt>
<rscale>  2 0.45975924E+03</rscale>
<asrwt>0</asrwt>
<pdfrwt beam="1">  1       21 0.52076213E-01 0.45975924E+03</pdfrwt>
<pdfrwt beam="2">  1       21 0.21945411E-01 0.45975924E+03</pdfrwt>
<totfact> 0.62636188E+04</totfact>
</mgrwt>
</event>
<event>
 7    0  0.4779893E-002  0.4549612E+03  0.7546771E-02  0.1026253E+00
         21   -1    0    0  502  501  0.00000000000E+00  0.00000000000E+00  0.99325982143E+03  0.99325982143E+03  0.00000000000E+00 0. -1.
         21   -1    0    0  501  502 -0.00000000000E+00 -0.00000000000E+00 -0.52098568786E+02  0.52098568786E+02  0.00000000000E+00 0. -1.
      99926    2    1    2    0    0  0.14210854715E-13  0.00000000000E+00  0.94116125264E+03  0.10453583902E+04  0.45496116375E+03 0.  0.
      99925    2    3    3    0    0  0.80861179172E+02  0.77764556501E+02  0.55634054934E+03  0.62545323624E+03  0.26285183533E+03 0.  0.
         25    1    3    3    0    0 -0.80861179172E+02 -0.77764556501E+02  0.38482070330E+03  0.41990515397E+03  0.12509000000E+03 0.  0.
         25    1    4    4    0    0  0.13061819543E+02  0.41928381489E+02  0.19851889585E+03  0.23871711379E+03  0.12509000000E+03 0.  0.
         25    1    4    4    0    0  0.67799359629E+02  0.35836175012E+02  0.35782165349E+03  0.38673612245E+03  0.12509000000E+03 0.  0.
<mgrwt>
<rscale>  2 0.45496116E+03</rscale>
<asrwt>0</asrwt>
<pdfrwt beam="1">  1       21 0.14606761E+00 0.45496116E+03</pdfrwt>
<pdfrwt beam="2">  1       21 0.76615549E-02 0.45496116E+03</pdfrwt>
<totfact> 0.37459521E+04</totfact>
</mgrwt>
</event>
<event>
 7    0  0.4779893E-002  0.4539740E+03  0.7546771E-02  0.1026544E+00
         21   -1    0    0  502  501  0.00000000000E+00  0.00000000000E+00  0.71298292826E+02  0.71298292826E+02  0.00000000000E+00 0. -1.
         21   -1    0    0  501  502 -0.00000000000E+00 -0.00000000000E+00 -0.72264135181E+03  0.72264135181E+03  0.00000000000E+00 0. -1.
      99926    2    1    2    0    0  0.00000000000E+00  0.00000000000E+00 -0.65134305898E+03  0.79393964464E+03  0.45397398476E+03 0.  0.
      99925    2    3    3    0    0  0.96487059451E+02 -0.26541600906E+02 -0.49871399128E+03  0.57267656676E+03  0.26311327561E+03 0.  0.
         25    1    4    4    0    0  0.83763372658E+02 -0.11213529470E+02 -0.22342684655E+03  0.26964626773E+03  0.12509000000E+03 0.  0.
         25    1    3    3    0    0 -0.96487059451E+02  0.26541600906E+02 -0.15262906771E+03  0.22126307787E+03  0.12509000000E+03 0.  0.
         25    1    4    4    0    0  0.12723686793E+02 -0.15328071435E+02 -0.27528714473E+03  0.30303029904E+03  0.12509000000E+03 0.  0.
<mgrwt>
<rscale>  2 0.45397398E+03</rscale>
<asrwt>0</asrwt>
<pdfrwt beam="1">  1       21 0.10485043E-01 0.45397398E+03</pdfrwt>
<pdfrwt beam="2">  1       21 0.10627079E+00 0.45397398E+03</pdfrwt>
<totfact> 0.48448292E+04</totfact>
</mgrwt>
</event>
<event>
 7    0  0.4779893E-002  0.4520727E+03  0.7546771E-02  0.1027106E+00
         21   -1    0    0  502  501  0.00000000000E+00  0.00000000000E+00  0.11467928780E+04  0.11467928780E+04  0.00000000000E+00 0.  1.
         21   -1    0    0  501  502 -0.00000000000E+00 -0.00000000000E+00 -0.44552444388E+02  0.44552444388E+02  0.00000000000E+00 0.  1.
      99926    2    1    2    0    0  0.14210854715E-13  0.00000000000E+00  0.11022404337E+04  0.11913453224E+04  0.45207267523E+03 0.  0.
      99925    2    3    3    0    0  0.65407257469E+02 -0.34131468426E+02  0.47886686381E+03  0.55127877734E+03  0.26296720446E+03 0.  0.
         25    1    4    4    0    0  0.17336579556E+02 -0.55766639489E+01  0.15773077833E+03  0.20213402164E+03  0.12509000000E+03 0.  0.
         25    1    3    3    0    0 -0.65407257469E+02  0.34131468426E+02  0.62337356984E+03  0.64006654509E+03  0.12509000000E+03 0.  0.
         25    1    4    4    0    0  0.48070677913E+02 -0.28554804477E+02  0.32113608548E+03  0.34914475570E+03  0.12509000000E+03 0.  0.
<mgrwt>
<rscale>  2 0.45207268E+03</rscale>
<asrwt>0</asrwt>
<pdfrwt beam="1">  1       21 0.16864599E+00 0.45207268E+03</pdfrwt>
<pdfrwt beam="2">  1       21 0.65518308E-02 0.45207268E+03</pdfrwt>
<totfact> 0.33181752E+04</totfact>
</mgrwt>
</event>
<event>
 7    0  0.4779893E-002  0.4541892E+03  0.7546771E-02  0.1026480E+00
         21   -1    0    0  502  501  0.00000000000E+00  0.00000000000E+00  0.56864741328E+02  0.56864741328E+02  0.00000000000E+00 0.  1.
         21   -1    0    0  501  502 -0.00000000000E+00 -0.00000000000E+00 -0.90692334350E+03  0.90692334350E+03  0.00000000000E+00 0.  1.
      99926    2    1    2    0    0  0.00000000000E+00  0.00000000000E+00 -0.85005860217E+03  0.96378808483E+03  0.45418921754E+03 0.  0.
      99925    2    3    3    0    0  0.28829951349E+02  0.22729113868E+02 -0.76086283017E+03  0.80582868322E+03  0.26286848739E+03 0.  0.
         25    1    3    3    0    0 -0.28829951349E+02 -0.22729113868E+02 -0.89195772007E+02  0.15795940161E+03  0.12509000000E+03 0.  0.
         25    1    4    4    0    0  0.46138987966E+02 -0.10335516897E+02 -0.42249545262E+03  0.44315408686E+03  0.12509000000E+03 0.  0.
         25    1    4    4    0    0 -0.17309036617E+02  0.33064630765E+02 -0.33836737755E+03  0.36267459636E+03  0.12509000000E+03 0.  0.
<mgrwt>
<rscale>  2 0.45418922E+03</rscale>
<asrwt>0</asrwt>
<pdfrwt beam="1">  1       21 0.83624623E-02 0.45418922E+03</pdfrwt>
<pdfrwt beam="2">  1       21 0.13337107E+00 0.45418922E+03</pdfrwt>
<totfact> 0.40845817E+04</totfact>
</mgrwt>
</event>
<event>
 7    0  0.4779893E-002  0.4607284E+03  0.7546771E-02  0.1024570E+00
         21   -1    0    0  502  501  0.00000000000E+00  0.00000000000E+00  0.12167641715E+03  0.12167641715E+03  0.00000000000E+00 0.  1.
         21   -1    0    0  501  502 -0.00000000000E+00 -0.00000000000E+00 -0.43613757947E+03  0.43613757947E+03  0.00000000000E+00 0.  1.
      99926    2    1    2    0    0  0.00000000000E+00 -0.71054273576E-14 -0.31446116233E+03  0.55781399662E+03  0.46072837141E+03 0.  0.
      99925    2    3    3    0    0  0.81581662051E+02  0.35901589474E+02 -0.10256748212E+03  0.29610627507E+03  0.26308619507E+03 0.  0.
         25    1    4    4    0    0  0.72983445896E+02  0.45966319116E+02 -0.58683840206E+02  0.16288274024E+03  0.12509000000E+03 0.  0.
         25    1    4    4    0    0  0.85982161545E+01 -0.10064729642E+02 -0.43883641914E+02  0.13322353483E+03  0.12509000000E+03 0.  0.
         25    1    3    3    0    0 -0.81581662051E+02 -0.35901589474E+02 -0.21189368021E+03  0.26170772155E+03  0.12509000000E+03 0.  0.
<mgrwt>
<rscale>  2 0.46072837E+03</rscale>
<asrwt>0</asrwt>
<pdfrwt beam="1">  1       21 0.17893591E-01 0.46072837E+03</pdfrwt>
<pdfrwt beam="2">  1       21 0.64137879E-01 0.46072837E+03</pdfrwt>
<totfact> 0.58649906E+04</totfact>
</mgrwt>
</event>
<event>
 7    0  0.4779893E-002  0.4566078E+03  0.7546771E-02  0.1025770E+00
         21   -1    0    0  502  501  0.00000000000E+00  0.00000000000E+00  0.30566652596E+03  0.30566652596E+03  0.00000000000E+00 0.  1.
         21   -1    0    0  501  502 -0.00000000000E+00 -0.00000000000E+00 -0.17052133945E+03  0.17052133945E+03  0.00000000000E+00 0.  1.
      99926    2    1    2    0    0 -0.35527136788E-14  0.00000000000E+00  0.13514518651E+03  0.47618786541E+03  0.45660777669E+03 0.  0.
      99925    2    3    3    0    0  0.16461775844E+02  0.42306249124E+02 -0.25184508812E+02  0.26782777307E+03  0.26274825930E+03 0.  0.
         25    1    4    4    0    0  0.48363776132E+02  0.18864191162E+02 -0.13281149507E+02  0.13608383292E+03  0.12509000000E+03 0.  0.
         25    1    4    4    0    0 -0.31902000287E+02  0.23442057962E+02 -0.11903359305E+02  0.13174394015E+03  0.12509000000E+03 0.  0.
         25    1    3    3    0    0 -0.16461775844E+02 -0.42306249124E+02  0.16032969532E+03  0.20836009234E+03  0.12509000000E+03 0.  0.
<mgrwt>
<rscale>  2 0.45660778E+03</rscale>
<asrwt>0</asrwt>
<pdfrwt beam="1">  1       21 0.44950960E-01 0.45660778E+03</pdfrwt>
<pdfrwt beam="2">  1       21 0.25076667E-01 0.45660778E+03</pdfrwt>
<totfact> 0.66130851E+04</totfact>
</mgrwt>
</event>
<event>
 7    0  0.4779893E-002  0.4534182E+03  0.7546771E-02  0.1026708E+00
         21   -1    0    0  502  501  0.00000000000E+00  0.00000000000E+00  0.24575078752E+03  0.24575078752E+03  0.00000000000E+00 0.  1.
         21   -1    0    0  501  502 -0.00000000000E+00 -0.00000000000E+00 -0.20914287419E+03  0.20914287419E+03  0.00000000000E+00 0.  1.
      99926    2    1    2    0    0  0.00000000000E+00  0.00000000000E+00  0.36607913329E+02  0.45489366171E+03  0.45341824417E+03 0.  0.
      99925    2    3    3    0    0  0.98218953557E+02  0.49363163857E+02  0.41268879546E+02  0.28830159260E+03  0.26330781055E+03 0.  0.
         25    1    4    4    0    0  0.85331648101E+02  0.35774255886E+01  0.24292441640E+02  0.15340117002E+03  0.12509000000E+03 0.  0.
         25    1    4    4    0    0  0.12887305456E+02  0.45785738268E+02  0.16976437907E+02  0.13490042259E+03  0.12509000000E+03 0.  0.
         25    1    3    3    0    0 -0.98218953557E+02 -0.49363163857E+02 -0.46609662173E+01  0.16659206911E+03  0.12509000000E+03 0.  0.
<mgrwt>
<rscale>  2 0.45341824E+03</rscale>
<asrwt>0</asrwt>
<pdfrwt beam="1">  1       21 0.36139822E-01 0.45341824E+03</pdfrwt>
<pdfrwt beam="2">  1       21 0.30756305E-01 0.45341824E+03</pdfrwt>
<totfact> 0.69425663E+04</totfact>
</mgrwt>
</event>
<event>
 7    0  0.4779893E-002  0.4520208E+03  0.7546771E-02  0.1027121E+00
         21   -1    0    0  502  501  0.00000000000E+00  0.00000000000E+00  0.21028556613E+03  0.21028556613E+03  0.00000000000E+00 0.  1.
         21   -1    0    0  501  502 -0.00000000000E+00 -0.00000000000E+00 -0.24291106083E+03  0.24291106083E+03  0.00000000000E+00 0.  1.
      99926    2    1    2    0    0 -0.71054273576E-14 -0.71054273576E-14 -0.32625494705E+02  0.45319662696E+03  0.45202075150E+03 0.  0.
      99925    2    3    3    0    0 -0.61250918556E+02  0.58910543377E+02 -0.91461261310E+02  0.29092745960E+03  0.26277651585E+03 0.  0.
         25    1    4    4    0    0 -0.72963882655E+01  0.33592406051E+02 -0.98125082095E+01  0.13009796479E+03  0.12509000000E+03 0.  0.
         25    1    3    3    0    0  0.61250918556E+02 -0.58910543377E+02  0.58835766605E+02  0.16226916736E+03  0.12509000000E+03 0.  0.
         25    1    4    4    0    0 -0.53954530290E+02  0.25318137326E+02 -0.81648753100E+02  0.16082949481E+03  0.12509000000E+03 0.  0.
<mgrwt>
<rscale>  2 0.45202075E+03</rscale>
<asrwt>0</asrwt>
<pdfrwt beam="1">  1       21 0.30924348E-01 0.45202075E+03</pdfrwt>
<pdfrwt beam="2">  1       21 0.35722215E-01 0.45202075E+03</pdfrwt>
<totfact> 0.70335251E+04</totfact>
</mgrwt>
</event>
<event>
 7    0  0.4779893E-002  0.4605394E+03  0.7546771E-02  0.1024625E+00
         21   -1    0    0  502  501  0.00000000000E+00  0.00000000000E+00  0.51086399691E+02  0.51086399691E+02  0.00000000000E+00 0.  1.
         21   -1    0    0  501  502 -0.00000000000E+00 -0.00000000000E+00 -0.10379306847E+04  0.10379306847E+04  0.00000000000E+00 0.  1.
      99926    2    1    2    0    0  0.00000000000E+00  0.00000000000E+00 -0.98684428504E+03  0.10890170844E+04  0.46053943072E+03 0.  0.
      99925    2    3    3    0    0 -0.34097419103E+02  0.80769480160E+02 -0.43001756739E+03  0.51161787720E+03  0.26296653986E+03 0.  0.
         25    1    4    4    0    0 -0.29853912460E+02  0.18484945360E+01 -0.21700119323E+03  0.25225324376E+03  0.12509000000E+03 0.  0.
         25    1    3    3    0    0  0.34097419103E+02 -0.80769480160E+02 -0.55682671765E+03  0.57739920723E+03  0.12509000000E+03 0.  0.
         25    1    4    4    0    0 -0.42435066428E+01  0.78920985624E+02 -0.21301637416E+03  0.25936463344E+03  0.12509000000E+03 0.  0.
<mgrwt>
<rscale>  2 0.46053943E+03</rscale>
<asrwt>0</asrwt>
<pdfrwt beam="1">  1       21 0.75127056E-02 0.46053943E+03</pdfrwt>
<pdfrwt beam="2">  1       21 0.15263687E+00 0.46053943E+03</pdfrwt>
<totfact> 0.34367882E+04</totfact>
</mgrwt>
</event>
<event>
 7    0  0.4779893E-002  0.4560803E+03  0.7546771E-02  0.1025924E+00
         21   -1    0    0  502  501  0.00000000000E+00  0.00000000000E+00  0.28034434835E+03  0.28034434835E+03  0.00000000000E+00 0.  1.
         21   -1    0    0  501  502 -0.00000000000E+00 -0.00000000000E+00 -0.18549445056E+03  0.18549445056E+03  0.00000000000E+00 0.  1.
      99926    2    1    2    0    0  0.00000000000E+00  0.71054273576E-14  0.94849897790E+02  0.46583879892E+03  0.45608034760E+03 0.  0.
      99925    2    3    3    0    0  0.97434154177E+02  0.59179319141E+02  0.65810782616E+02  0.29412279930E+03  0.26302386916E+03 0.  0.
         25    1    4    4    0    0  0.11933821238E+02  0.92986097927E+01  0.16025105178E+02  0.12701650416E+03  0.12509000000E+03 0.  0.
         25    1    3    3    0    0 -0.97434154177E+02 -0.59179319141E+02  0.29039115174E+02  0.17171599962E+03  0.12509000000E+03 0.  0.
         25    1    4    4    0    0  0.85500332938E+02  0.49880709349E+02  0.49785677438E+02  0.16710629514E+03  0.12509000000E+03 0.  0.
<mgrwt>
<rscale>  2 0.45608035E+03</rscale>
<asrwt>0</asrwt>
<pdfrwt beam="1">  1       21 0.41227110E-01 0.45608035E+03</pdfrwt>
<pdfrwt beam="2">  1       21 0.27278596E-01 0.45608035E+03</pdfrwt>
<totfact> 0.67169377E+04</totfact>
</mgrwt>
</event>
<event>
 7    0  0.4779893E-002  0.4549931E+03  0.7546771E-02  0.1026243E+00
         21   -1    0    0  502  501  0.00000000000E+00  0.00000000000E+00  0.41560234886E+03  0.41560234886E+03  0.00000000000E+00 0. -1.
         21   -1    0    0  501  502 -0.00000000000E+00 -0.00000000000E+00 -0.12452934882E+03  0.12452934882E+03  0.00000000000E+00 0. -1.
      99926    2    1    2    0    0  0.14210854715E-13  0.00000000000E+00  0.29107300004E+03  0.54013169768E+03  0.45499314223E+03 0.  0.
      99925    2    3    3    0    0  0.69664548095E+02  0.32653026133E+02  0.84675166953E+02  0.28681974971E+03  0.26301390752E+03 0.  0.
         25    1    4    4    0    0  0.71667626022E+02  0.54484642785E+01  0.60926094853E+02  0.15660597535E+03  0.12509000000E+03 0.  0.
         25    1    3    3    0    0 -0.69664548095E+02 -0.32653026133E+02  0.20639783309E+03  0.25331194796E+03  0.12509000000E+03 0.  0.
         25    1    4    4    0    0 -0.20030779272E+01  0.27204561854E+02  0.23749072100E+02  0.13021377436E+03  0.12509000000E+03 0.  0.
<mgrwt>
<rscale>  2 0.45499314E+03</rscale>
<asrwt>0</asrwt>
<pdfrwt beam="1">  1       21 0.61117992E-01 0.45499314E+03</pdfrwt>
<pdfrwt beam="2">  1       21 0.18313140E-01 0.45499314E+03</pdfrwt>
<totfact> 0.62526759E+04</totfact>
</mgrwt>
</event>
<event>
 7    0  0.4779893E-002  0.4075535E+03  0.7546771E-02  0.1041195E+00
         21   -1    0    0  502  501  0.00000000000E+00  0.00000000000E+00  0.34439296687E+02  0.34439296687E+02  0.00000000000E+00 0.  1.
         21   -1    0    0  501  502 -0.00000000000E+00 -0.00000000000E+00 -0.12057434743E+04  0.12057434743E+04  0.00000000000E+00 0.  1.
      99926    2    1    2    0    0  0.00000000000E+00  0.00000000000E+00 -0.11713041776E+04  0.12401827710E+04  0.40755346761E+03 0.  0.
      99925    2    3    3    0    0 -0.58531203382E+02  0.66388819605E+01 -0.79770348333E+03  0.84181740679E+03  0.26240373956E+03 0.  0.
         25    1    3    3    0    0  0.58531203382E+02 -0.66388819605E+01 -0.37360069426E+03  0.39836536418E+03  0.12509000000E+03 0.  0.
         25    1    4    4    0    0  0.27081943475E+01  0.20424820776E+02 -0.32577044215E+03  0.34956887261E+03  0.12509000000E+03 0.  0.
         25    1    4    4    0    0 -0.61239397729E+02 -0.13785938816E+02 -0.47193304118E+03  0.49224853418E+03  0.12509000000E+03 0.  0.
<mgrwt>
<rscale>  2 0.40755347E+03</rscale>
<asrwt>0</asrwt>
<pdfrwt beam="1">  1       21 0.50646021E-02 0.40755347E+03</pdfrwt>
<pdfrwt beam="2">  1       21 0.17731523E+00 0.40755347E+03</pdfrwt>
<totfact> 0.45534121E+04</totfact>
</mgrwt>
</event>
<event>
 7    0  0.4779893E-002  0.4434084E+03  0.7546771E-02  0.1029706E+00
         21   -1    0    0  502  501  0.00000000000E+00  0.00000000000E+00  0.18587677806E+03  0.18587677806E+03  0.00000000000E+00 0.  1.
         21   -1    0    0  501  502 -0.00000000000E+00 -0.00000000000E+00 -0.26443727475E+03  0.26443727475E+03  0.00000000000E+00 0.  1.
      99926    2    1    2    0    0  0.00000000000E+00  0.00000000000E+00 -0.78560496682E+02  0.45031405281E+03  0.44340838346E+03 0.  0.
      99925    2    3    3    0    0 -0.46587766037E+02  0.71116341594E+02 -0.10696287530E+03  0.29642397127E+03  0.26305543154E+03 0.  0.
         25    1    3    3    0    0  0.46587766037E+02 -0.71116341594E+02  0.28402378621E+02  0.15389008154E+03  0.12509000000E+03 0.  0.
         25    1    4    4    0    0 -0.36952735942E+02  0.74081218525E+02 -0.70458378243E+02  0.16572695253E+03  0.12509000000E+03 0.  0.
         25    1    4    4    0    0 -0.96350300953E+01 -0.29648769303E+01 -0.36504497060E+02  0.13069701873E+03  0.12509000000E+03 0.  0.
<mgrwt>
<rscale>  2 0.44340838E+03</rscale>
<asrwt>0</asrwt>
<pdfrwt beam="1">  1       21 0.27334820E-01 0.44340838E+03</pdfrwt>
<pdfrwt beam="2">  1       21 0.38887834E-01 0.44340838E+03</pdfrwt>
<totfact> 0.75646363E+04</totfact>
</mgrwt>
</event>
<event>
 7    0  0.4779893E-002  0.4512414E+03  0.7546771E-02  0.1027352E+00
         21   -1    0    0  502  501  0.00000000000E+00  0.00000000000E+00  0.79941317430E+02  0.79941317430E+02  0.00000000000E+00 0. -1.
         21   -1    0    0  501  502 -0.00000000000E+00 -0.00000000000E+00 -0.63677579304E+03  0.63677579304E+03  0.00000000000E+00 0. -1.
      99926    2    1    2    0    0 -0.17763568394E-14  0.00000000000E+00 -0.55683447561E+03  0.71671711047E+03  0.45124138021E+03 0.  0.
      99925    2    3    3    0    0 -0.11062537579E+02  0.53925587986E+02 -0.50197875489E+03  0.56945201965E+03  0.26317785535E+03 0.  0.
         25    1    4    4    0    0  0.57852350707E+01  0.14125482467E+02 -0.32411923014E+03  0.34775534740E+03  0.12509000000E+03 0.  0.
         25    1    3    3    0    0  0.11062537579E+02 -0.53925587986E+02 -0.54855720716E+02  0.14726509081E+03  0.12509000000E+03 0.  0.
         25    1    4    4    0    0 -0.16847772650E+02  0.39800105518E+02 -0.17785952475E+03  0.22169667225E+03  0.12509000000E+03 0.  0.
<mgrwt>
<rscale>  2 0.45124138E+03</rscale>
<asrwt>0</asrwt>
<pdfrwt beam="1">  1       21 0.11756076E-01 0.45124138E+03</pdfrwt>
<pdfrwt beam="2">  1       21 0.93643501E-01 0.45124138E+03</pdfrwt>
<totfact> 0.53571145E+04</totfact>
</mgrwt>
</event>
<event>
 7    0  0.4779893E-002  0.4558063E+03  0.7546771E-02  0.1026005E+00
         21   -1    0    0  502  501  0.00000000000E+00  0.00000000000E+00  0.37134396916E+02  0.37134396916E+02  0.00000000000E+00 0. -1.
         21   -1    0    0  501  502 -0.00000000000E+00 -0.00000000000E+00 -0.13986993072E+04  0.13986993072E+04  0.00000000000E+00 0. -1.
      99926    2    1    2    0    0  0.00000000000E+00 -0.17763568394E-14 -0.13615649103E+04  0.14358337042E+04  0.45580634152E+03 0.  0.
      99925    2    3    3    0    0 -0.10016660962E+03  0.11431561405E+02 -0.68889987011E+03  0.74424871682E+03  0.26298116125E+03 0.  0.
         25    1    4    4    0    0 -0.76607306125E+02 -0.25575626206E+02 -0.37795017001E+03  0.40622239121E+03  0.12509000000E+03 0.  0.
         25    1    3    3    0    0  0.10016660962E+03 -0.11431561405E+02 -0.67266504022E+03  0.69158498734E+03  0.12509000000E+03 0.  0.
         25    1    4    4    0    0 -0.23559303499E+02  0.37007187612E+02 -0.31094970009E+03  0.33802632561E+03  0.12509000000E+03 0.  0.
<mgrwt>
<rscale>  2 0.45580634E+03</rscale>
<asrwt>0</asrwt>
<pdfrwt beam="1">  1       21 0.54609410E-02 0.45580634E+03</pdfrwt>
<pdfrwt beam="2">  1       21 0.20569106E+00 0.45580634E+03</pdfrwt>
<totfact> 0.25234101E+04</totfact>
</mgrwt>
</event>
<event>
 7    0  0.4779893E-002  0.4548968E+03  0.7546771E-02  0.1026272E+00
         21   -1    0    0  502  501  0.00000000000E+00  0.00000000000E+00  0.14023806067E+03  0.14023806067E+03  0.00000000000E+00 0. -1.
         21   -1    0    0  501  502 -0.00000000000E+00 -0.00000000000E+00 -0.36889251968E+03  0.36889251968E+03  0.00000000000E+00 0. -1.
      99926    2    1    2    0    0 -0.14210854715E-13  0.35527136788E-14 -0.22865445900E+03  0.50913058035E+03  0.45489678635E+03 0.  0.
      99925    2    3    3    0    0  0.10433424904E+03 -0.14483840877E+02 -0.19010419371E+03  0.34111555654E+03  0.26291595859E+03 0.  0.
         25    1    4    4    0    0  0.57329423831E+02  0.31576380364E+02 -0.10705118007E+03  0.17717560184E+03  0.12509000000E+03 0.  0.
         25    1    3    3    0    0 -0.10433424904E+03  0.14483840877E+02 -0.38550265297E+02  0.16801502381E+03  0.12509000000E+03 0.  0.
         25    1    4    4    0    0  0.47004825214E+02 -0.46060221241E+02 -0.83053013638E+02  0.16393995470E+03  0.12509000000E+03 0.  0.
<mgrwt>
<rscale>  2 0.45489679E+03</rscale>
<asrwt>0</asrwt>
<pdfrwt beam="1">  1       21 0.20623244E-01 0.45489679E+03</pdfrwt>
<pdfrwt beam="2">  1       21 0.54248900E-01 0.45489679E+03</pdfrwt>
<totfact> 0.64686825E+04</totfact>
</mgrwt>
</event>
<event>
 7    0  0.4779893E-002  0.4576895E+03  0.7546771E-02  0.1025453E+00
         21   -1    0    0  502  501  0.00000000000E+00  0.00000000000E+00  0.25892615022E+03  0.25892615022E+03  0.00000000000E+00 0. -1.
         21   -1    0    0  501  502 -0.00000000000E+00 -0.00000000000E+00 -0.20225809868E+03  0.20225809868E+03  0.00000000000E+00 0. -1.
      99926    2    1    2    0    0  0.00000000000E+00  0.00000000000E+00  0.56668051543E+02  0.46118424889E+03  0.45768946171E+03 0.  0.
      99925    2    3    3    0    0  0.91579176775E+02  0.69777698794E+02  0.47310089657E+02  0.29091753923E+03  0.26294314439E+03 0.  0.
         25    1    3    3    0    0 -0.91579176775E+02 -0.69777698794E+02  0.93579618860E+01  0.17026670966E+03  0.12509000000E+03 0.  0.
         25    1    4    4    0    0  0.46926085940E+02  0.72494898198E+02  0.43125927630E+02  0.15800291624E+03  0.12509000000E+03 0.  0.
         25    1    4    4    0    0  0.44653090834E+02 -0.27171994041E+01  0.41841620270E+01  0.13291462299E+03  0.12509000000E+03 0.  0.
<mgrwt>
<rscale>  2 0.45768946E+03</rscale>
<asrwt>0</asrwt>
<pdfrwt beam="1">  1       21 0.38077376E-01 0.45768946E+03</pdfrwt>
<pdfrwt beam="2">  1       21 0.29743838E-01 0.45768946E+03</pdfrwt>
<totfact> 0.66653208E+04</totfact>
</mgrwt>
</event>
<event>
 7    0  0.4779893E-002  0.4594508E+03  0.7546771E-02  0.1024941E+00
         21   -1    0    0  502  501  0.00000000000E+00  0.00000000000E+00  0.68813124824E+03  0.68813124824E+03  0.00000000000E+00 0. -1.
         21   -1    0    0  501  502 -0.00000000000E+00 -0.00000000000E+00 -0.76691426647E+02  0.76691426647E+02  0.00000000000E+00 0. -1.
      99926    2    1    2    0    0  0.00000000000E+00  0.00000000000E+00  0.61143982159E+03  0.76482267488E+03  0.45945083370E+03 0.  0.
      99925    2    3    3    0    0 -0.81570715214E+02 -0.45193576863E+02  0.26510135764E+03  0.38496206798E+03  0.26309850434E+03 0.  0.
         25    1    4    4    0    0 -0.25020457446E+02 -0.41709725007E+02  0.17572082048E+03  0.22111318211E+03  0.12509000000E+03 0.  0.
         25    1    3    3    0    0  0.81570715214E+02  0.45193576863E+02  0.34633846395E+03  0.37986060691E+03  0.12509000000E+03 0.  0.
         25    1    4    4    0    0 -0.56550257768E+02 -0.34838518556E+01  0.89380537161E+02  0.16384888587E+03  0.12509000000E+03 0.  0.
<mgrwt>
<rscale>  2 0.45945083E+03</rscale>
<asrwt>0</asrwt>
<pdfrwt beam="1">  1       21 0.10119577E+00 0.45945083E+03</pdfrwt>
<pdfrwt beam="2">  1       21 0.11278151E-01 0.45945083E+03</pdfrwt>
<totfact> 0.47820194E+04</totfact>
</mgrwt>
</event>
<event>
 7    0  0.4779893E-002  0.4567986E+03  0.7546771E-02  0.1025714E+00
         21   -1    0    0  502  501  0.00000000000E+00  0.00000000000E+00  0.15102438852E+03  0.15102438852E+03  0.00000000000E+00 0. -1.
         21   -1    0    0  501  502 -0.00000000000E+00 -0.00000000000E+00 -0.34541601244E+03  0.34541601244E+03  0.00000000000E+00 0. -1.
      99926    2    1    2    0    0 -0.14210854715E-13 -0.35527136788E-14 -0.19439162392E+03  0.49644040096E+03  0.45679860798E+03 0.  0.
      99925    2    3    3    0    0 -0.99997340529E+02 -0.10597244277E+02 -0.18103285010E+03  0.33538843842E+03  0.26381952564E+03 0.  0.
         25    1    4    4    0    0 -0.67948163457E+02 -0.43804514409E+02 -0.92021511749E+02  0.17507499857E+03  0.12509000000E+03 0.  0.
         25    1    3    3    0    0  0.99997340529E+02  0.10597244277E+02 -0.13358773822E+02  0.16105196254E+03  0.12509000000E+03 0.  0.
         25    1    4    4    0    0 -0.32049177071E+02  0.33207270132E+02 -0.89011338352E+02  0.16031343985E+03  0.12509000000E+03 0.  0.
<mgrwt>
<rscale>  2 0.45679861E+03</rscale>
<asrwt>0</asrwt>
<pdfrwt beam="1">  1       21 0.22209469E-01 0.45679861E+03</pdfrwt>
<pdfrwt beam="2">  1       21 0.50796472E-01 0.45679861E+03</pdfrwt>
<totfact> 0.64594229E+04</totfact>
</mgrwt>
</event>
<event>
 7    0  0.4779893E-002  0.4312809E+03  0.7546771E-02  0.1033456E+00
         21   -1    0    0  502  501  0.00000000000E+00  0.00000000000E+00  0.87083887888E+03  0.87083887888E+03  0.00000000000E+00 0.  1.
         21   -1    0    0  501  502 -0.00000000000E+00 -0.00000000000E+00 -0.53397713460E+02  0.53397713460E+02  0.00000000000E+00 0.  1.
      99926    2    1    2    0    0  0.00000000000E+00 -0.71054273576E-14  0.81744116542E+03  0.92423659234E+03  0.43128090579E+03 0.  0.
      99925    2    3    3    0    0 -0.35243799315E+02  0.53333431965E+02  0.65949949705E+03  0.71286095736E+03  0.26295356542E+03 0.  0.
         25    1    3    3    0    0  0.35243799315E+02 -0.53333431965E+02  0.15794166837E+03  0.21137563498E+03  0.12509000000E+03 0.  0.
         25    1    4    4    0    0 -0.34077954008E+02  0.64862551174E+02  0.34920318276E+03  0.37809896647E+03  0.12509000000E+03 0.  0.
         25    1    4    4    0    0 -0.11658453061E+01 -0.11529119209E+02  0.31029631429E+03  0.33476199089E+03  0.12509000000E+03 0.  0.
<mgrwt>
<rscale>  2 0.43128091E+03</rscale>
<asrwt>0</asrwt>
<pdfrwt beam="1">  1       21 0.12806453E+00 0.43128091E+03</pdfrwt>
<pdfrwt beam="2">  1       21 0.78526055E-02 0.43128091E+03</pdfrwt>
<totfact> 0.51032361E+04</totfact>
</mgrwt>
</event>
<event>
 7    0  0.4779893E-002  0.4530344E+03  0.7546771E-02  0.1026821E+00
         21   -1    0    0  502  501  0.00000000000E+00  0.00000000000E+00  0.16007137645E+03  0.16007137645E+03  0.00000000000E+00 0. -1.
         21   -1    0    0  501  502 -0.00000000000E+00 -0.00000000000E+00 -0.32054475394E+03  0.32054475394E+03  0.00000000000E+00 0. -1.
      99926    2    1    2    0    0 -0.14210854715E-13  0.00000000000E+00 -0.16047337748E+03  0.48061613039E+03  0.45303439153E+03 0.  0.
      99925    2    3    3    0    0 -0.75316657499E+02 -0.81795759039E+02 -0.10616592297E+03  0.30466172490E+03  0.26302931078E+03 0.  0.
         25    1    3    3    0    0  0.75316657499E+02  0.81795759039E+02 -0.54307454519E+02  0.17595440549E+03  0.12509000000E+03 0.  0.
         25    1    4    4    0    0 -0.58230080012E+02 -0.72437112076E+02 -0.36085955514E+02  0.15996118813E+03  0.12509000000E+03 0.  0.
         25    1    4    4    0    0 -0.17086577487E+02 -0.93586469632E+01 -0.70079967451E+02  0.14470053677E+03  0.12509000000E+03 0.  0.
<mgrwt>
<rscale>  2 0.45303439E+03</rscale>
<asrwt>0</asrwt>
<pdfrwt beam="1">  1       21 0.23539909E-01 0.45303439E+03</pdfrwt>
<pdfrwt beam="2">  1       21 0.47138933E-01 0.45303439E+03</pdfrwt>
<totfact> 0.67705515E+04</totfact>
</mgrwt>
</event>
<event>
 7    0  0.4779893E-002  0.4614775E+03  0.7546771E-02  0.1024354E+00
         21   -1    0    0  502  501  0.00000000000E+00  0.00000000000E+00  0.61198567537E+02  0.61198567537E+02  0.00000000000E+00 0. -1.
         21   -1    0    0  501  502 -0.00000000000E+00 -0.00000000000E+00 -0.86996115392E+03  0.86996115392E+03  0.00000000000E+00 0. -1.
      99926    2    1    2    0    0  0.00000000000E+00  0.00000000000E+00 -0.80876258639E+03  0.93115972146E+03  0.46147752462E+03 0.  0.
      99925    2    3    3    0    0 -0.38897767733E+02 -0.86097006714E+02 -0.35921738043E+03  0.45506715567E+03  0.26291302529E+03 0.  0.
         25    1    3    3    0    0  0.38897767733E+02  0.86097006714E+02 -0.44954520596E+03  0.47609256579E+03  0.12509000000E+03 0.  0.
         25    1    4    4    0    0  0.14447660751E+02 -0.30391824519E+02 -0.20103943533E+03  0.23915844237E+03  0.12509000000E+03 0.  0.
         25    1    4    4    0    0 -0.53345428484E+02 -0.55705182195E+02 -0.15817794509E+03  0.21590871330E+03  0.12509000000E+03 0.  0.
<mgrwt>
<rscale>  2 0.46147752E+03</rscale>
<asrwt>0</asrwt>
<pdfrwt beam="1">  1       21 0.89997900E-02 0.46147752E+03</pdfrwt>
<pdfrwt beam="2">  1       21 0.12793545E+00 0.46147752E+03</pdfrwt>
<totfact> 0.39854941E+04</totfact>
</mgrwt>
</event>
<event>
 7    0  0.4779893E-002  0.4412479E+03  0.7546771E-02  0.1030365E+00
         21   -1    0    0  502  501  0.00000000000E+00  0.00000000000E+00  0.52263688009E+02  0.52263688009E+02  0.00000000000E+00 0.  1.
         21   -1    0    0  501  502 -0.00000000000E+00 -0.00000000000E+00 -0.93133373493E+03  0.93133373493E+03  0.00000000000E+00 0.  1.
      99926    2    1    2    0    0  0.00000000000E+00  0.71054273576E-14 -0.87907004692E+03  0.98359742293E+03  0.44124793826E+03 0.  0.
      99925    2    3    3    0    0 -0.71938459959E+02 -0.63484598625E+02 -0.62081265094E+03  0.68102540347E+03  0.26302436451E+03 0.  0.
         25    1    4    4    0    0 -0.26978578807E+02 -0.71818899833E+02 -0.31903927818E+03  0.35116857378E+03  0.12509000000E+03 0.  0.
         25    1    4    4    0    0 -0.44959881152E+02  0.83343012085E+01 -0.30177337276E+03  0.32985682969E+03  0.12509000000E+03 0.  0.
         25    1    3    3    0    0  0.71938459959E+02  0.63484598625E+02 -0.25825739598E+03  0.30257201946E+03  0.12509000000E+03 0.  0.
<mgrwt>
<rscale>  2 0.44124794E+03</rscale>
<asrwt>0</asrwt>
<pdfrwt beam="1">  1       21 0.76858371E-02 0.44124794E+03</pdfrwt>
<pdfrwt beam="2">  1       21 0.13696083E+00 0.44124794E+03</pdfrwt>
<totfact> 0.44391075E+04</totfact>
</mgrwt>
</event>
<event>
 7    0  0.4779893E-002  0.4534742E+03  0.7546771E-02  0.1026691E+00
         21   -1    0    0  502  501  0.00000000000E+00  0.00000000000E+00  0.69655020573E+03  0.69655020573E+03  0.00000000000E+00 0. -1.
         21   -1    0    0  501  502 -0.00000000000E+00 -0.00000000000E+00 -0.73806170235E+02  0.73806170235E+02  0.00000000000E+00 0. -1.
      99926    2    1    2    0    0  0.00000000000E+00  0.00000000000E+00  0.62274403550E+03  0.77035637597E+03  0.45347415830E+03 0.  0.
      99925    2    3    3    0    0  0.73497067464E+02  0.43833289910E+02  0.27043675530E+03  0.38683179526E+03  0.26302019499E+03 0.  0.
         25    1    4    4    0    0 -0.15371008871E+00  0.96805694449E+01  0.10059091984E+03  0.16080975812E+03  0.12509000000E+03 0.  0.
         25    1    4    4    0    0  0.73650777553E+02  0.34152720466E+02  0.16984583546E+03  0.22602203714E+03  0.12509000000E+03 0.  0.
         25    1    3    3    0    0 -0.73497067464E+02 -0.43833289910E+02  0.35230728020E+03  0.38352458071E+03  0.12509000000E+03 0.  0.
<mgrwt>
<rscale>  2 0.45347416E+03</rscale>
<asrwt>0</asrwt>
<pdfrwt beam="1">  1       21 0.10243385E+00 0.45347416E+03</pdfrwt>
<pdfrwt beam="2">  1       21 0.10853849E-01 0.45347416E+03</pdfrwt>
<totfact> 0.49826156E+04</totfact>
</mgrwt>
</event>
<event>
 7    0  0.4779893E-002  0.4533838E+03  0.7546771E-02  0.1026718E+00
         21   -1    0    0  502  501  0.00000000000E+00  0.00000000000E+00  0.15787832598E+03  0.15787832598E+03  0.00000000000E+00 0. -1.
         21   -1    0    0  501  502 -0.00000000000E+00 -0.00000000000E+00 -0.32549887030E+03  0.32549887030E+03  0.00000000000E+00 0. -1.
      99926    2    1    2    0    0  0.00000000000E+00  0.00000000000E+00 -0.16762054432E+03  0.48337719628E+03  0.45338379658E+03 0.  0.
      99925    2    3    3    0    0 -0.98865782010E+02  0.19427855143E+02 -0.15489048051E+03  0.32225163334E+03  0.26401357887E+03 0.  0.
         25    1    3    3    0    0  0.98865782010E+02 -0.19427855143E+02 -0.12730063812E+02  0.16112556294E+03  0.12509000000E+03 0.  0.
         25    1    4    4    0    0 -0.88742185261E+02 -0.54694591345E+01 -0.99017004847E+02  0.18263889448E+03  0.12509000000E+03 0.  0.
         25    1    4    4    0    0 -0.10123596749E+02  0.24897314277E+02 -0.55873475661E+02  0.13961273886E+03  0.12509000000E+03 0.  0.
<mgrwt>
<rscale>  2 0.45338380E+03</rscale>
<asrwt>0</asrwt>
<pdfrwt beam="1">  1       21 0.23217401E-01 0.45338380E+03</pdfrwt>
<pdfrwt beam="2">  1       21 0.47867480E-01 0.45338380E+03</pdfrwt>
<totfact> 0.67314579E+04</totfact>
</mgrwt>
</event>
<event>
 7    0  0.4779893E-002  0.4563514E+03  0.7546771E-02  0.1025845E+00
         21   -1    0    0  502  501  0.00000000000E+00  0.00000000000E+00  0.49667892629E+02  0.49667892629E+02  0.00000000000E+00 0. -1.
         21   -1    0    0  501  502 -0.00000000000E+00 -0.00000000000E+00 -0.10482456128E+04  0.10482456128E+04  0.00000000000E+00 0. -1.
      99926    2    1    2    0    0  0.00000000000E+00  0.00000000000E+00 -0.99857772013E+03  0.10979135054E+04  0.45635140207E+03 0.  0.
      99925    2    3    3    0    0 -0.11294175925E+03 -0.12477146713E+02 -0.59763070246E+03  0.66280715143E+03  0.26313369852E+03 0.  0.
         25    1    4    4    0    0 -0.99503357729E+02 -0.56384619993E+01 -0.35687217297E+03  0.39107284027E+03  0.12509000000E+03 0.  0.
         25    1    3    3    0    0  0.11294175925E+03  0.12477146713E+02 -0.40094701767E+03  0.43510635395E+03  0.12509000000E+03 0.  0.
         25    1    4    4    0    0 -0.13438401523E+02 -0.68386847134E+01 -0.24075852949E+03  0.27173431117E+03  0.12509000000E+03 0.  0.
<mgrwt>
<rscale>  2 0.45635140E+03</rscale>
<asrwt>0</asrwt>
<pdfrwt beam="1">  1       21 0.73041025E-02 0.45635140E+03</pdfrwt>
<pdfrwt beam="2">  1       21 0.15415375E+00 0.45635140E+03</pdfrwt>
<totfact> 0.35194184E+04</totfact>
</mgrwt>
</event>
<event>
 7    0  0.4779893E-002  0.4512223E+03  0.7546771E-02  0.1027358E+00
         21   -1    0    0  502  501  0.00000000000E+00  0.00000000000E+00  0.10307273523E+03  0.10307273523E+03  0.00000000000E+00 0.  1.
         21   -1    0    0  501  502 -0.00000000000E+00 -0.00000000000E+00 -0.49382973214E+03  0.49382973214E+03  0.00000000000E+00 0.  1.
      99926    2    1    2    0    0  0.14210854715E-13 -0.71054273576E-14 -0.39075699692E+03  0.59690246737E+03  0.45122225667E+03 0.  0.
      99925    2    3    3    0    0 -0.10003684847E+03  0.21759692621E+02 -0.29839966393E+03  0.41073522984E+03  0.26302131913E+03 0.  0.
         25    1    4    4    0    0 -0.17482829067E+02 -0.15758674902E+02 -0.14647277676E+03  0.19405094068E+03  0.12509000000E+03 0.  0.
         25    1    4    4    0    0 -0.82554019404E+02  0.37518367523E+02 -0.15192688718E+03  0.21668428916E+03  0.12509000000E+03 0.  0.
         25    1    3    3    0    0  0.10003684847E+03 -0.21759692621E+02 -0.92357332986E+02  0.18616723753E+03  0.12509000000E+03 0.  0.
<mgrwt>
<rscale>  2 0.45122226E+03</rscale>
<asrwt>0</asrwt>
<pdfrwt beam="1">  1       21 0.15157755E-01 0.45122226E+03</pdfrwt>
<pdfrwt beam="2">  1       21 0.72622020E-01 0.45122226E+03</pdfrwt>
<totfact> 0.60659919E+04</totfact>
</mgrwt>
</event>
<event>
 7    0  0.4779893E-002  0.4530772E+03  0.7546771E-02  0.1026808E+00
         21   -1    0    0  502  501  0.00000000000E+00  0.00000000000E+00  0.37089467263E+03  0.37089467263E+03  0.00000000000E+00 0.  1.
         21   -1    0    0  501  502 -0.00000000000E+00 -0.00000000000E+00 -0.13836743889E+03  0.13836743889E+03  0.00000000000E+00 0.  1.
      99926    2    1    2    0    0  0.00000000000E+00  0.00000000000E+00  0.23252723374E+03  0.50926211151E+03  0.45307723822E+03 0.  0.
      99925    2    3    3    0    0  0.69811678748E+01 -0.64374247227E+02  0.44804088341E+02  0.27457025433E+03  0.26303733161E+03 0.  0.
         25    1    4    4    0    0  0.20499271711E+02 -0.65412748351E+02  0.42077589898E+02  0.14871812082E+03  0.12509000000E+03 0.  0.
         25    1    3    3    0    0 -0.69811678748E+01  0.64374247227E+02  0.18772314540E+03  0.23469185719E+03  0.12509000000E+03 0.  0.
         25    1    4    4    0    0 -0.13518103836E+02  0.10385011236E+01  0.27264984431E+01  0.12585213351E+03  0.12509000000E+03 0.  0.
<mgrwt>
<rscale>  2 0.45307724E+03</rscale>
<asrwt>0</asrwt>
<pdfrwt beam="1">  1       21 0.54543334E-01 0.45307724E+03</pdfrwt>
<pdfrwt beam="2">  1       21 0.20348153E-01 0.45307724E+03</pdfrwt>
<totfact> 0.65620372E+04</totfact>
</mgrwt>
</event>
<event>
 7    0  0.4779893E-002  0.4560251E+03  0.7546771E-02  0.1025940E+00
         21   -1    0    0  502  501  0.00000000000E+00  0.00000000000E+00  0.34268004424E+03  0.34268004424E+03  0.00000000000E+00 0.  1.
         21   -1    0    0  501  502 -0.00000000000E+00 -0.00000000000E+00 -0.15171507663E+03  0.15171507663E+03  0.00000000000E+00 0.  1.
      99926    2    1    2    0    0  0.00000000000E+00  0.00000000000E+00  0.19096496761E+03  0.49439512086E+03  0.45602512724E+03 0.  0.
      99925    2    3    3    0    0  0.10298496254E+03 -0.37028163529E+02  0.15519405535E+03  0.32438319873E+03  0.26298721908E+03 0.  0.
         25    1    4    4    0    0  0.39435746623E+02 -0.94572321302E+01  0.11788937846E+03  0.17660699591E+03  0.12509000000E+03 0.  0.
         25    1    4    4    0    0  0.63549215915E+02 -0.27570931399E+02  0.37304676893E+02  0.14777620282E+03  0.12509000000E+03 0.  0.
         25    1    3    3    0    0 -0.10298496254E+03  0.37028163529E+02  0.35770912259E+02  0.17001192213E+03  0.12509000000E+03 0.  0.
<mgrwt>
<rscale>  2 0.45602513E+03</rscale>
<asrwt>0</asrwt>
<pdfrwt beam="1">  1       21 0.50394124E-01 0.45602513E+03</pdfrwt>
<pdfrwt beam="2">  1       21 0.22311041E-01 0.45602513E+03</pdfrwt>
<totfact> 0.65134550E+04</totfact>
</mgrwt>
</event>
<event>
 7    0  0.4779893E-002  0.4638317E+03  0.7546771E-02  0.1023676E+00
         21   -1    0    0  502  501  0.00000000000E+00  0.00000000000E+00  0.40232140902E+03  0.40232140902E+03  0.00000000000E+00 0.  1.
         21   -1    0    0  501  502 -0.00000000000E+00 -0.00000000000E+00 -0.13368653096E+03  0.13368653096E+03  0.00000000000E+00 0.  1.
      99926    2    1    2    0    0  0.14210854715E-13 -0.71054273576E-14  0.26863487806E+03  0.53600793998E+03  0.46383166560E+03 0.  0.
      99925    2    3    3    0    0  0.99946409568E+02 -0.55761842144E+02  0.21411299369E+03  0.35791018087E+03  0.26297653066E+03 0.  0.
         25    1    4    4    0    0  0.30034143361E+02 -0.57185507937E+02  0.81576171024E+02  0.16270959365E+03  0.12509000000E+03 0.  0.
         25    1    3    3    0    0 -0.99946409568E+02  0.55761842144E+02  0.54521884372E+02  0.17809775911E+03  0.12509000000E+03 0.  0.
         25    1    4    4    0    0  0.69912266206E+02  0.14236657933E+01  0.13253682267E+03  0.19520058723E+03  0.12509000000E+03 0.  0.
<mgrwt>
<rscale>  2 0.46383167E+03</rscale>
<asrwt>0</asrwt>
<pdfrwt beam="1">  1       21 0.59164913E-01 0.46383167E+03</pdfrwt>
<pdfrwt beam="2">  1       21 0.19659784E-01 0.46383167E+03</pdfrwt>
<totfact> 0.58591634E+04</totfact>
</mgrwt>
</event>
<event>
 7    0  0.4779893E-002  0.4231155E+03  0.7546771E-02  0.1036057E+00
         21   -1    0    0  502  501  0.00000000000E+00  0.00000000000E+00  0.11836535798E+03  0.11836535798E+03  0.00000000000E+00 0. -1.
         21   -1    0    0  501  502 -0.00000000000E+00 -0.00000000000E+00 -0.37812322599E+03  0.37812322599E+03  0.00000000000E+00 0. -1.
      99926    2    1    2    0    0  0.00000000000E+00  0.00000000000E+00 -0.25975786800E+03  0.49648858397E+03  0.42311554453E+03 0.  0.
      99925    2    3    3    0    0 -0.27813986838E+02 -0.41570724815E+02 -0.24142527081E+03  0.36052779828E+03  0.26304446188E+03 0.  0.
         25    1    4    4    0    0 -0.20123264990E+02 -0.14050123004E+02 -0.17364817831E+03  0.21541483162E+03  0.12509000000E+03 0.  0.
         25    1    3    3    0    0  0.27813986838E+02  0.41570724815E+02 -0.18332597193E+02  0.13596078569E+03  0.12509000000E+03 0.  0.
         25    1    4    4    0    0 -0.76907218478E+01 -0.27520601811E+02 -0.67777092500E+02  0.14511296666E+03  0.12509000000E+03 0.  0.
<mgrwt>
<rscale>  2 0.42311554E+03</rscale>
<asrwt>0</asrwt>
<pdfrwt beam="1">  1       21 0.17406670E-01 0.42311554E+03</pdfrwt>
<pdfrwt beam="2">  1       21 0.55606356E-01 0.42311554E+03</pdfrwt>
<totfact> 0.85084483E+04</totfact>
</mgrwt>
</event>
<event>
 7    0  0.4779893E-002  0.4520521E+03  0.7546771E-02  0.1027112E+00
         21   -1    0    0  502  501  0.00000000000E+00  0.00000000000E+00  0.72781716343E+02  0.72781716343E+02  0.00000000000E+00 0. -1.
         21   -1    0    0  501  502 -0.00000000000E+00 -0.00000000000E+00 -0.70193133636E+03  0.70193133636E+03  0.00000000000E+00 0. -1.
      99926    2    1    2    0    0  0.00000000000E+00  0.00000000000E+00 -0.62914962002E+03  0.77471305270E+03  0.45205206521E+03 0.  0.
      99925    2    3    3    0    0  0.44416417767E+02  0.95338838823E+02 -0.33935669177E+03  0.44201234378E+03  0.26296318269E+03 0.  0.
         25    1    3    3    0    0 -0.44416417767E+02 -0.95338838823E+02 -0.28979292825E+03  0.33270070892E+03  0.12509000000E+03 0.  0.
         25    1    4    4    0    0 -0.17905145184E+02  0.36280401845E+02 -0.15457692958E+03  0.20292460925E+03  0.12509000000E+03 0.  0.
         25    1    4    4    0    0  0.62321562951E+02  0.59058436978E+02 -0.18477976219E+03  0.23908773453E+03  0.12509000000E+03 0.  0.
<mgrwt>
<rscale>  2 0.45205207E+03</rscale>
<asrwt>0</asrwt>
<pdfrwt beam="1">  1       21 0.10703193E-01 0.45205207E+03</pdfrwt>
<pdfrwt beam="2">  1       21 0.10322520E+00 0.45205207E+03</pdfrwt>
<totfact> 0.50163001E+04</totfact>
</mgrwt>
</event>
<event>
 7    0  0.4779893E-002  0.4496314E+03  0.7546771E-02  0.1027832E+00
         21   -1    0    0  502  501  0.00000000000E+00  0.00000000000E+00  0.38792604319E+02  0.38792604319E+02  0.00000000000E+00 0. -1.
         21   -1    0    0  501  502 -0.00000000000E+00 -0.00000000000E+00 -0.13028797573E+04  0.13028797573E+04  0.00000000000E+00 0. -1.
      99926    2    1    2    0    0  0.00000000000E+00  0.00000000000E+00 -0.12640871530E+04  0.13416723616E+04  0.44963139971E+03 0.  0.
      99925    2    3    3    0    0  0.11171184967E+02 -0.10163833425E+03 -0.90326286839E+03  0.94632843690E+03  0.26305618166E+03 0.  0.
         25    1    3    3    0    0 -0.11171184967E+02  0.10163833425E+03 -0.36082428459E+03  0.39534392472E+03  0.12509000000E+03 0.  0.
         25    1    4    4    0    0  0.24077998974E+02 -0.34913636117E+02 -0.54594296999E+03  0.56169381927E+03  0.12509000000E+03 0.  0.
         25    1    4    4    0    0 -0.12906814007E+02 -0.66724698131E+02 -0.35731989840E+03  0.38463461763E+03  0.12509000000E+03 0.  0.
<mgrwt>
<rscale>  2 0.44963140E+03</rscale>
<asrwt>0</asrwt>
<pdfrwt beam="1">  1       21 0.57047949E-02 0.44963140E+03</pdfrwt>
<pdfrwt beam="2">  1       21 0.19159996E+00 0.44963140E+03</pdfrwt>
<totfact> 0.29124949E+04</totfact>
</mgrwt>
</event>
<event>
 7    0  0.4779893E-002  0.4298039E+03  0.7546771E-02  0.1033922E+00
         21   -1    0    0  502  501  0.00000000000E+00  0.00000000000E+00  0.37557587970E+03  0.37557587970E+03  0.00000000000E+00 0.  1.
         21   -1    0    0  501  502 -0.00000000000E+00 -0.00000000000E+00 -0.12296542997E+03  0.12296542997E+03  0.00000000000E+00 0.  1.
      99926    2    1    2    0    0  0.00000000000E+00 -0.17763568394E-14  0.25261044973E+03  0.49854130967E+03  0.42980390660E+03 0.  0.
      99925    2    3    3    0    0 -0.74669229941E+02 -0.14234761002E+02  0.21318422470E+03  0.34694956305E+03  0.26296076385E+03 0.  0.
         25    1    3    3    0    0  0.74669229941E+02  0.14234761002E+02  0.39426225037E+02  0.15159174661E+03  0.12509000000E+03 0.  0.
         25    1    4    4    0    0 -0.27144230707E+02  0.21576484656E+02  0.69003720376E+02  0.14700807963E+03  0.12509000000E+03 0.  0.
         25    1    4    4    0    0 -0.47524999234E+02 -0.35811245658E+02  0.14418050432E+03  0.19994148342E+03  0.12509000000E+03 0.  0.
<mgrwt>
<rscale>  2 0.42980391E+03</rscale>
<asrwt>0</asrwt>
<pdfrwt beam="1">  1       21 0.55231747E-01 0.42980391E+03</pdfrwt>
<pdfrwt beam="2">  1       21 0.18083151E-01 0.42980391E+03</pdfrwt>
<totfact> 0.80255250E+04</totfact>
</mgrwt>
</event>
<event>
 7    0  0.4779893E-002  0.4581205E+03  0.7546771E-02  0.1025328E+00
         21   -1    0    0  502  501  0.00000000000E+00  0.00000000000E+00  0.27388504254E+02  0.27388504254E+02  0.00000000000E+00 0. -1.
         21   -1    0    0  501  502 -0.00000000000E+00 -0.00000000000E+00 -0.19157158513E+04  0.19157158513E+04  0.00000000000E+00 0. -1.
      99926    2    1    2    0    0  0.00000000000E+00  0.00000000000E+00 -0.18883273471E+04  0.19431043556E+04  0.45812047212E+03 0.  0.
      99925    2    3    3    0    0 -0.18475622709E+02 -0.10571901144E+03 -0.13717895005E+04  0.14009081613E+04  0.26309577115E+03 0.  0.
         25    1    4    4    0    0  0.19886264774E+02 -0.44772090843E+02 -0.52561458800E+03  0.54251102004E+03  0.12509000000E+03 0.  0.
         25    1    3    3    0    0  0.18475622709E+02  0.10571901144E+03 -0.51653784662E+03  0.54219619429E+03  0.12509000000E+03 0.  0.
         25    1    4    4    0    0 -0.38361887483E+02 -0.60946920595E+02 -0.84617491246E+03  0.85839714126E+03  0.12509000000E+03 0.  0.
<mgrwt>
<rscale>  2 0.45812047E+03</rscale>
<asrwt>0</asrwt>
<pdfrwt beam="1">  1       21 0.40277209E-02 0.45812047E+03</pdfrwt>
<pdfrwt beam="2">  1       21 0.28172294E+00 0.45812047E+03</pdfrwt>
<totfact> 0.14311411E+04</totfact>
</mgrwt>
</event>
<event>
 7    0  0.4779893E-002  0.4465625E+03  0.7546771E-02  0.1028752E+00
         21   -1    0    0  502  501  0.00000000000E+00  0.00000000000E+00  0.98593087541E+02  0.98593087541E+02  0.00000000000E+00 0. -1.
         21   -1    0    0  501  502 -0.00000000000E+00 -0.00000000000E+00 -0.50565929685E+03  0.50565929685E+03  0.00000000000E+00 0. -1.
      99926    2    1    2    0    0 -0.14210854715E-13 -0.88817841970E-15 -0.40706620931E+03  0.60425238440E+03  0.44656247635E+03 0.  0.
      99925    2    3    3    0    0  0.80284401816E+02  0.46788122429E+01 -0.16659762580E+03  0.32151553816E+03  0.26296386805E+03 0.  0.
         25    1    3    3    0    0 -0.80284401816E+02 -0.46788122429E+01 -0.24046858352E+03  0.28273684623E+03  0.12509000000E+03 0.  0.
         25    1    4    4    0    0  0.78558056572E+02  0.19563263299E+02 -0.90359583339E+02  0.17425972548E+03  0.12509000000E+03 0.  0.
         25    1    4    4    0    0  0.17263452440E+01 -0.14884451056E+02 -0.76238042459E+02  0.14725581268E+03  0.12509000000E+03 0.  0.
<mgrwt>
<rscale>  2 0.44656248E+03</rscale>
<asrwt>0</asrwt>
<pdfrwt beam="1">  1       21 0.14498983E-01 0.44656248E+03</pdfrwt>
<pdfrwt beam="2">  1       21 0.74361662E-01 0.44656248E+03</pdfrwt>
<totfact> 0.62478877E+04</totfact>
</mgrwt>
</event>
<event>
 7    0  0.4779893E-002  0.4567182E+03  0.7546771E-02  0.1025737E+00
         21   -1    0    0  502  501  0.00000000000E+00  0.00000000000E+00  0.28820835507E+03  0.28820835507E+03  0.00000000000E+00 0.  1.
         21   -1    0    0  501  502 -0.00000000000E+00 -0.00000000000E+00 -0.18093814725E+03  0.18093814725E+03  0.00000000000E+00 0.  1.
      99926    2    1    2    0    0 -0.71054273576E-14  0.00000000000E+00  0.10727020781E+03  0.46914650232E+03  0.45671823169E+03 0.  0.
      99925    2    3    3    0    0  0.34891597657E+02  0.79701049733E+02  0.14428406536E+03  0.31234339436E+03  0.26300346684E+03 0.  0.
         25    1    3    3    0    0 -0.34891597657E+02 -0.79701049733E+02 -0.37013857543E+02  0.15680310796E+03  0.12509000000E+03 0.  0.
         25    1    4    4    0    0  0.34734707678E+02  0.98431920078E+01  0.93675046887E+02  0.16039298880E+03  0.12509000000E+03 0.  0.
         25    1    4    4    0    0  0.15688997889E+00  0.69857857726E+02  0.50609018470E+02  0.15195040556E+03  0.12509000000E+03 0.  0.
<mgrwt>
<rscale>  2 0.45671823E+03</rscale>
<asrwt>0</asrwt>
<pdfrwt beam="1">  1       21 0.42383582E-01 0.45671823E+03</pdfrwt>
<pdfrwt beam="2">  1       21 0.26608551E-01 0.45671823E+03</pdfrwt>
<totfact> 0.66587206E+04</totfact>
</mgrwt>
</event>
<event>
 7    0  0.4779893E-002  0.4601778E+03  0.7546771E-02  0.1024730E+00
         21   -1    0    0  502  501  0.00000000000E+00  0.00000000000E+00  0.29487011342E+03  0.29487011342E+03  0.00000000000E+00 0. -1.
         21   -1    0    0  501  502 -0.00000000000E+00 -0.00000000000E+00 -0.17953976580E+03  0.17953976580E+03  0.00000000000E+00 0. -1.
      99926    2    1    2    0    0  0.00000000000E+00  0.00000000000E+00  0.11533034763E+03  0.47440987922E+03  0.46017783999E+03 0.  0.
      99925    2    3    3    0    0 -0.73971427642E+02  0.75691361127E+02  0.18613020921E+02  0.28413979843E+03  0.26303616909E+03 0.  0.
         25    1    3    3    0    0  0.73971427642E+02 -0.75691361127E+02  0.96717326708E+02  0.19027008079E+03  0.12509000000E+03 0.  0.
         25    1    4    4    0    0 -0.29782152927E+02 -0.12576915458E+01  0.23371538261E+02  0.13069925525E+03  0.12509000000E+03 0.  0.
         25    1    4    4    0    0 -0.44189274715E+02  0.76949052673E+02 -0.47585173397E+01  0.15344054319E+03  0.12509000000E+03 0.  0.
<mgrwt>
<rscale>  2 0.46017784E+03</rscale>
<asrwt>0</asrwt>
<pdfrwt beam="1">  1       21 0.43363252E-01 0.46017784E+03</pdfrwt>
<pdfrwt beam="2">  1       21 0.26402907E-01 0.46017784E+03</pdfrwt>
<totfact> 0.64421934E+04</totfact>
</mgrwt>
</event>
<event>
 7    0  0.4779893E-002  0.4573300E+03  0.7546771E-02  0.1025558E+00
         21   -1    0    0  502  501  0.00000000000E+00  0.00000000000E+00  0.23064192675E+03  0.23064192675E+03  0.00000000000E+00 0.  1.
         21   -1    0    0  501  502 -0.00000000000E+00 -0.00000000000E+00 -0.22670502262E+03  0.22670502262E+03  0.00000000000E+00 0.  1.
      99926    2    1    2    0    0 -0.71054273576E-14 -0.71054273576E-14  0.39369041327E+01  0.45734694936E+03  0.45733000435E+03 0.  0.
      99925    2    3    3    0    0  0.55969174167E+02  0.44927714737E+02  0.92635773775E+02  0.28803644885E+03  0.26312081118E+03 0.  0.
         25    1    3    3    0    0 -0.55969174167E+02 -0.44927714737E+02 -0.88698869642E+02  0.16931050051E+03  0.12509000000E+03 0.  0.
         25    1    4    4    0    0  0.30731190679E+02 -0.15042510556E+02  0.62016054728E+02  0.14375041686E+03  0.12509000000E+03 0.  0.
         25    1    4    4    0    0  0.25237983488E+02  0.59970225293E+02  0.30619719046E+02  0.14428603199E+03  0.12509000000E+03 0.  0.
<mgrwt>
<rscale>  2 0.45733000E+03</rscale>
<asrwt>0</asrwt>
<pdfrwt beam="1">  1       21 0.33917931E-01 0.45733000E+03</pdfrwt>
<pdfrwt beam="2">  1       21 0.33338974E-01 0.45733000E+03</pdfrwt>
<totfact> 0.67117704E+04</totfact>
</mgrwt>
</event>
<event>
 7    0  0.4779893E-002  0.4527828E+03  0.7546771E-02  0.1026895E+00
         21   -1    0    0  502  501  0.00000000000E+00  0.00000000000E+00  0.36276674569E+03  0.36276674569E+03  0.00000000000E+00 0.  1.
         21   -1    0    0  501  502 -0.00000000000E+00 -0.00000000000E+00 -0.14128379822E+03  0.14128379822E+03  0.00000000000E+00 0.  1.
      99926    2    1    2    0    0  0.00000000000E+00  0.00000000000E+00  0.22148294747E+03  0.50405054390E+03  0.45278278986E+03 0.  0.
      99925    2    3    3    0    0  0.45293563014E+02 -0.40175920578E+02  0.24333836367E+03  0.36337084117E+03  0.26298136347E+03 0.  0.
         25    1    4    4    0    0  0.19429762819E+02 -0.58258560208E+02  0.10719762747E+03  0.17581358013E+03  0.12509000000E+03 0.  0.
         25    1    3    3    0    0 -0.45293563014E+02  0.40175920578E+02 -0.21855416201E+02  0.14067970274E+03  0.12509000000E+03 0.  0.
         25    1    4    4    0    0  0.25863800195E+02  0.18082639630E+02  0.13614073620E+03  0.18755726104E+03  0.12509000000E+03 0.  0.
<mgrwt>
<rscale>  2 0.45278279E+03</rscale>
<asrwt>0</asrwt>
<pdfrwt beam="1">  1       21 0.53348051E-01 0.45278279E+03</pdfrwt>
<pdfrwt beam="2">  1       21 0.20777029E-01 0.45278279E+03</pdfrwt>
<totfact> 0.66143409E+04</totfact>
</mgrwt>
</event>
<event>
 6    0  0.4779893E-002  0.4531901E+03  0.7546771E-02  0.1026775E+00
         21   -1    0    0  502  501  0.00000000000E+00  0.00000000000E+00  0.19236093630E+03  0.19236093630E+03  0.00000000000E+00 0. -1.
         21   -1    0    0  501  502 -0.00000000000E+00 -0.00000000000E+00 -0.26692175302E+03  0.26692175302E+03  0.00000000000E+00 0. -1.
      99926    2    1    2    0    0  0.00000000000E+00  0.00000000000E+00 -0.74560816721E+02  0.45928268932E+03  0.45319010727E+03 0.  0.
         25    1    3    3    0    0  0.29903036300E+02 -0.47029946816E+02 -0.64165897058E+02  0.15123087622E+03  0.12509000000E+03 0.  0.
         25    1    3    3    0    0  0.69042489880E+01 -0.59764608852E+02  0.42611578772E+01  0.13887095698E+03  0.12509000000E+03 0.  0.
         25    1    3    3    0    0 -0.36807285288E+02  0.10679455567E+03 -0.14656077541E+02  0.16918085613E+03  0.12509000000E+03 0.  0.
<mgrwt>
<rscale>  2 0.45319011E+03</rscale>
<asrwt>0</asrwt>
<pdfrwt beam="1">  1       21 0.28288373E-01 0.45319011E+03</pdfrwt>
<pdfrwt beam="2">  1       21 0.39253199E-01 0.45319011E+03</pdfrwt>
<totfact> 0.69226572E+04</totfact>
</mgrwt>
</event>
<event>
 7    0  0.4779893E-002  0.4566538E+03  0.7546771E-02  0.1025756E+00
         21   -1    0    0  502  501  0.00000000000E+00  0.00000000000E+00  0.12724611309E+03  0.12724611309E+03  0.00000000000E+00 0.  1.
         21   -1    0    0  501  502 -0.00000000000E+00 -0.00000000000E+00 -0.40970342118E+03  0.40970342118E+03  0.00000000000E+00 0.  1.
      99926    2    1    2    0    0  0.00000000000E+00  0.35527136788E-14 -0.28245730810E+03  0.53694953427E+03  0.45665377635E+03 0.  0.
      99925    2    3    3    0    0 -0.44448528018E+02 -0.25035301024E+02 -0.56625760735E+02  0.27379590267E+03  0.26297391810E+03 0.  0.
         25    1    4    4    0    0 -0.49948138035E+02  0.94251019931E+01 -0.49235287173E+02  0.14371941638E+03  0.12509000000E+03 0.  0.
         25    1    4    4    0    0  0.54996100174E+01 -0.34460403017E+02 -0.73904735624E+01  0.13007648629E+03  0.12509000000E+03 0.  0.
         25    1    3    3    0    0  0.44448528018E+02  0.25035301024E+02 -0.22583154736E+03  0.26315363160E+03  0.12509000000E+03 0.  0.
<mgrwt>
<rscale>  2 0.45665378E+03</rscale>
<asrwt>0</asrwt>
<pdfrwt beam="1">  1       21 0.18712664E-01 0.45665378E+03</pdfrwt>
<pdfrwt beam="2">  1       21 0.60250504E-01 0.45665378E+03</pdfrwt>
<totfact> 0.61922729E+04</totfact>
</mgrwt>
</event>
<event>
 7    0  0.4779893E-002  0.4535809E+03  0.7546771E-02  0.1026660E+00
         21   -1    0    0  502  501  0.00000000000E+00  0.00000000000E+00  0.62436261072E+02  0.62436261072E+02  0.00000000000E+00 0.  1.
         21   -1    0    0  501  502 -0.00000000000E+00 -0.00000000000E+00 -0.82378264738E+03  0.82378264738E+03  0.00000000000E+00 0.  1.
      99926    2    1    2    0    0  0.00000000000E+00  0.14210854715E-13 -0.76134638631E+03  0.88621890845E+03  0.45358090100E+03 0.  0.
      99925    2    3    3    0    0  0.22411907900E+02 -0.83994000956E+02 -0.61739742785E+03  0.67663337328E+03  0.26286089878E+03 0.  0.
         25    1    4    4    0    0 -0.93907033931E+01 -0.65139842924E+01 -0.30513759219E+03  0.32998041694E+03  0.12509000000E+03 0.  0.
         25    1    4    4    0    0  0.31802611294E+02 -0.77480016664E+02 -0.31225983566E+03  0.34665295633E+03  0.12509000000E+03 0.  0.
         25    1    3    3    0    0 -0.22411907900E+02  0.83994000956E+02 -0.14394895846E+03  0.20958553517E+03  0.12509000000E+03 0.  0.
<mgrwt>
<rscale>  2 0.45358090E+03</rscale>
<asrwt>0</asrwt>
<pdfrwt beam="1">  1       21 0.91818038E-02 0.45358090E+03</pdfrwt>
<pdfrwt beam="2">  1       21 0.12114450E+00 0.45358090E+03</pdfrwt>
<totfact> 0.44325457E+04</totfact>
</mgrwt>
</event>
<event>
 7    0  0.4779893E-002  0.3979053E+03  0.7546771E-02  0.1044507E+00
         21   -1    0    0  502  501  0.00000000000E+00  0.00000000000E+00  0.28140836720E+02  0.28140836720E+02  0.00000000000E+00 0. -1.
         21   -1    0    0  501  502 -0.00000000000E+00 -0.00000000000E+00 -0.14065737736E+04  0.14065737736E+04  0.00000000000E+00 0. -1.
      99926    2    1    2    0    0  0.00000000000E+00  0.44408920985E-14 -0.13784329369E+04  0.14347146103E+04  0.39790532994E+03 0.  0.
      99925    2    3    3    0    0  0.27123004464E+02  0.27176486677E+01 -0.81112570983E+03  0.85314084807E+03  0.26302347138E+03 0.  0.
         25    1    3    3    0    0 -0.27123004464E+02 -0.27176486677E+01 -0.56730722705E+03  0.58157376226E+03  0.12509000000E+03 0.  0.
         25    1    4    4    0    0  0.23800481973E+02 -0.36068161938E+02 -0.44613902699E+03  0.46535461183E+03  0.12509000000E+03 0.  0.
         25    1    4    4    0    0  0.33225224901E+01  0.38785810605E+02 -0.36498668285E+03  0.38778623624E+03  0.12509000000E+03 0.  0.
<mgrwt>
<rscale>  2 0.39790533E+03</rscale>
<asrwt>0</asrwt>
<pdfrwt beam="1">  1       21 0.41383565E-02 0.39790533E+03</pdfrwt>
<pdfrwt beam="2">  1       21 0.20684918E+00 0.39790533E+03</pdfrwt>
<totfact> 0.40707464E+04</totfact>
</mgrwt>
</event>
<event>
 7    0  0.4779893E-002  0.4656255E+03  0.7546771E-02  0.1023162E+00
         21   -1    0    0  502  501  0.00000000000E+00  0.00000000000E+00  0.12768475398E+03  0.12768475398E+03  0.00000000000E+00 0.  1.
         21   -1    0    0  501  502 -0.00000000000E+00 -0.00000000000E+00 -0.42449677595E+03  0.42449677595E+03  0.00000000000E+00 0.  1.
      99926    2    1    2    0    0 -0.14210854715E-13 -0.35527136788E-14 -0.29681202197E+03  0.55218152994E+03  0.46562545637E+03 0.  0.
      99925    2    3    3    0    0 -0.10595512195E+03  0.16163812875E+02 -0.25691051386E+03  0.38268995149E+03  0.26260394156E+03 0.  0.
         25    1    4    4    0    0 -0.21631687661E+02  0.27113231656E+02 -0.93201613519E+02  0.15980333571E+03  0.12509000000E+03 0.  0.
         25    1    4    4    0    0 -0.84323434293E+02 -0.10949418780E+02 -0.16370890034E+03  0.22288661578E+03  0.12509000000E+03 0.  0.
         25    1    3    3    0    0  0.10595512195E+03 -0.16163812875E+02 -0.39901508108E+02  0.16949157845E+03  0.12509000000E+03 0.  0.
<mgrwt>
<rscale>  2 0.46562546E+03</rscale>
<asrwt>0</asrwt>
<pdfrwt beam="1">  1       21 0.18777169E-01 0.46562546E+03</pdfrwt>
<pdfrwt beam="2">  1       21 0.62425997E-01 0.46562546E+03</pdfrwt>
<totfact> 0.56795149E+04</totfact>
</mgrwt>
</event>
<event>
 7    0  0.4779893E-002  0.4557139E+03  0.7546771E-02  0.1026032E+00
         21   -1    0    0  502  501  0.00000000000E+00  0.00000000000E+00  0.15146513108E+03  0.15146513108E+03  0.00000000000E+00 0.  1.
         21   -1    0    0  501  502 -0.00000000000E+00 -0.00000000000E+00 -0.34277714004E+03  0.34277714004E+03  0.00000000000E+00 0.  1.
      99926    2    1    2    0    0  0.00000000000E+00  0.00000000000E+00 -0.19131200896E+03  0.49424227112E+03  0.45571387711E+03 0.  0.
      99925    2    3    3    0    0 -0.13962766667E+02 -0.12763295498E+02 -0.24192884269E+03  0.35797990463E+03  0.26317710126E+03 0.  0.
         25    1    3    3    0    0  0.13962766667E+02  0.12763295498E+02  0.50616833727E+02  0.13626236649E+03  0.12509000000E+03 0.  0.
         25    1    4    4    0    0 -0.37424953306E+02 -0.16381031560E+02 -0.15735833051E+03  0.20512951423E+03  0.12509000000E+03 0.  0.
         25    1    4    4    0    0  0.23462186639E+02  0.36177360615E+01 -0.84570512176E+02  0.15285039040E+03  0.12509000000E+03 0.  0.
<mgrwt>
<rscale>  2 0.45571388E+03</rscale>
<asrwt>0</asrwt>
<pdfrwt beam="1">  1       21 0.22274284E-01 0.45571388E+03</pdfrwt>
<pdfrwt beam="2">  1       21 0.50408403E-01 0.45571388E+03</pdfrwt>
<totfact> 0.65306188E+04</totfact>
</mgrwt>
</event>
<event>
 7    0  0.4779893E-002  0.4544617E+03  0.7546771E-02  0.1026400E+00
         21   -1    0    0  502  501  0.00000000000E+00  0.00000000000E+00  0.16110648094E+03  0.16110648094E+03  0.00000000000E+00 0. -1.
         21   -1    0    0  501  502 -0.00000000000E+00 -0.00000000000E+00 -0.32049516690E+03  0.32049516690E+03  0.00000000000E+00 0. -1.
      99926    2    1    2    0    0  0.35527136788E-14 -0.26645352591E-14 -0.15938868596E+03  0.48160164785E+03  0.45446165295E+03 0.  0.
      99925    2    3    3    0    0  0.19958194644E+02  0.14880541919E+01 -0.21778928413E+03  0.34210726873E+03  0.26306779962E+03 0.  0.
         25    1    3    3    0    0 -0.19958194644E+02 -0.14880541919E+01  0.58400598174E+02  0.13949437912E+03  0.12509000000E+03 0.  0.
         25    1    4    4    0    0 -0.23776599059E+02 -0.17464847089E+02 -0.12456184032E+03  0.17897907059E+03  0.12509000000E+03 0.  0.
         25    1    4    4    0    0  0.43734793704E+02  0.18952901281E+02 -0.93227443816E+02  0.16312819814E+03  0.12509000000E+03 0.  0.
<mgrwt>
<rscale>  2 0.45446165E+03</rscale>
<asrwt>0</asrwt>
<pdfrwt beam="1">  1       21 0.23692130E-01 0.45446165E+03</pdfrwt>
<pdfrwt beam="2">  1       21 0.47131642E-01 0.45446165E+03</pdfrwt>
<totfact> 0.66868993E+04</totfact>
</mgrwt>
</event>
<event>
 7    0  0.4779893E-002  0.4537101E+03  0.7546771E-02  0.1026621E+00
         21   -1    0    0  502  501  0.00000000000E+00  0.00000000000E+00  0.41990344952E+03  0.41990344952E+03  0.00000000000E+00 0.  1.
         21   -1    0    0  501  502 -0.00000000000E+00 -0.00000000000E+00 -0.12255963226E+03  0.12255963226E+03  0.00000000000E+00 0.  1.
      99926    2    1    2    0    0  0.00000000000E+00  0.00000000000E+00  0.29734381726E+03  0.54246308178E+03  0.45371009404E+03 0.  0.
      99925    2    3    3    0    0 -0.20280024523E+02 -0.82870626705E+02  0.10070892827E+03  0.29428651594E+03  0.26302746067E+03 0.  0.
         25    1    3    3    0    0  0.20280024523E+02  0.82870626705E+02  0.19663488899E+03  0.24817656584E+03  0.12509000000E+03 0.  0.
         25    1    4    4    0    0 -0.30343962841E+02 -0.71546241394E+02  0.31759014523E+02  0.15065113289E+03  0.12509000000E+03 0.  0.
         25    1    4    4    0    0  0.10063938319E+02 -0.11324385311E+02  0.68949913751E+02  0.14363538305E+03  0.12509000000E+03 0.  0.
<mgrwt>
<rscale>  2 0.45371009E+03</rscale>
<asrwt>0</asrwt>
<pdfrwt beam="1">  1       21 0.61750507E-01 0.45371009E+03</pdfrwt>
<pdfrwt beam="2">  1       21 0.18023475E-01 0.45371009E+03</pdfrwt>
<totfact> 0.63008021E+04</totfact>
</mgrwt>
</event>
<event>
 7    0  0.4779893E-002  0.4527534E+03  0.7546771E-02  0.1026904E+00
         21   -1    0    0  502  501  0.00000000000E+00  0.00000000000E+00  0.10338777465E+03  0.10338777465E+03  0.00000000000E+00 0.  1.
         21   -1    0    0  501  502 -0.00000000000E+00 -0.00000000000E+00 -0.49567193474E+03  0.49567193474E+03  0.00000000000E+00 0.  1.
      99926    2    1    2    0    0  0.00000000000E+00  0.88817841970E-15 -0.39228416009E+03  0.59905970939E+03  0.45275343528E+03 0.  0.
      99925    2    3    3    0    0  0.95040384393E+02  0.47277164793E+01 -0.32280750964E+03  0.42721809910E+03  0.26316456818E+03 0.  0.
         25    1    4    4    0    0  0.37898844079E+02  0.38880870490E+02 -0.18235637788E+03  0.22770463571E+03  0.12509000000E+03 0.  0.
         25    1    3    3    0    0 -0.95040384393E+02 -0.47277164793E+01 -0.69476650445E+02  0.17184161029E+03  0.12509000000E+03 0.  0.
         25    1    4    4    0    0  0.57141540314E+02 -0.34153154011E+02 -0.14045113177E+03  0.19951346339E+03  0.12509000000E+03 0.  0.
<mgrwt>
<rscale>  2 0.45275344E+03</rscale>
<asrwt>0</asrwt>
<pdfrwt beam="1">  1       21 0.15204084E-01 0.45275344E+03</pdfrwt>
<pdfrwt beam="2">  1       21 0.72892932E-01 0.45275344E+03</pdfrwt>
<totfact> 0.59790474E+04</totfact>
</mgrwt>
</event>
<event>
 7    0  0.4779893E-002  0.4568454E+03  0.7546771E-02  0.1025700E+00
         21   -1    0    0  502  501  0.00000000000E+00  0.00000000000E+00  0.22131145099E+03  0.22131145099E+03  0.00000000000E+00 0.  1.
         21   -1    0    0  501  502 -0.00000000000E+00 -0.00000000000E+00 -0.23576241904E+03  0.23576241904E+03  0.00000000000E+00 0.  1.
      99926    2    1    2    0    0  0.14210854715E-13 -0.35527136788E-14 -0.14450968051E+02  0.45707387004E+03  0.45684537011E+03 0.  0.
      99925    2    3    3    0    0 -0.10474897433E+03  0.28027221440E+02 -0.46981577431E+02  0.28836221836E+03  0.26303541129E+03 0.  0.
         25    1    4    4    0    0 -0.40208487554E+02  0.26130271130E+02 -0.60399542142E+02  0.14695280308E+03  0.12509000000E+03 0.  0.
         25    1    4    4    0    0 -0.64540486776E+02  0.18969503102E+01  0.13417964711E+02  0.14140941528E+03  0.12509000000E+03 0.  0.
         25    1    3    3    0    0  0.10474897433E+03 -0.28027221440E+02  0.32530609380E+02  0.16871165168E+03  0.12509000000E+03 0.  0.
<mgrwt>
<rscale>  2 0.45684537E+03</rscale>
<asrwt>0</asrwt>
<pdfrwt beam="1">  1       21 0.32545802E-01 0.45684537E+03</pdfrwt>
<pdfrwt beam="2">  1       21 0.34670944E-01 0.45684537E+03</pdfrwt>
<totfact> 0.67396313E+04</totfact>
</mgrwt>
</event>
<event>
 7    0  0.4779893E-002  0.4509948E+03  0.7546771E-02  0.1027426E+00
         21   -1    0    0  502  501  0.00000000000E+00  0.00000000000E+00  0.13289091186E+03  0.13289091186E+03  0.00000000000E+00 0. -1.
         21   -1    0    0  501  502 -0.00000000000E+00 -0.00000000000E+00 -0.38263775828E+03  0.38263775828E+03  0.00000000000E+00 0. -1.
      99926    2    1    2    0    0 -0.88817841970E-15  0.00000000000E+00 -0.24974684642E+03  0.51552867015E+03  0.45099481421E+03 0.  0.
      99925    2    3    3    0    0  0.62138773607E+01  0.36669886782E+02 -0.40167528229E+02  0.26863944077E+03  0.26300271091E+03 0.  0.
         25    1    3    3    0    0 -0.62138773607E+01 -0.36669886782E+02 -0.20957931819E+03  0.24688922938E+03  0.12509000000E+03 0.  0.
         25    1    4    4    0    0 -0.28251777042E+02  0.23935468537E+02 -0.45482272476E+02  0.13815648653E+03  0.12509000000E+03 0.  0.
         25    1    4    4    0    0  0.34465654403E+02  0.12734418245E+02  0.53147442474E+01  0.13048295424E+03  0.12509000000E+03 0.  0.
<mgrwt>
<rscale>  2 0.45099481E+03</rscale>
<asrwt>0</asrwt>
<pdfrwt beam="1">  1       21 0.19542781E-01 0.45099481E+03</pdfrwt>
<pdfrwt beam="2">  1       21 0.56270258E-01 0.45099481E+03</pdfrwt>
<totfact> 0.66274109E+04</totfact>
</mgrwt>
</event>
<event>
 7    0  0.4779893E-002  0.4469319E+03  0.7546771E-02  0.1028641E+00
         21   -1    0    0  502  501  0.00000000000E+00  0.00000000000E+00  0.16409616786E+03  0.16409616786E+03  0.00000000000E+00 0. -1.
         21   -1    0    0  501  502 -0.00000000000E+00 -0.00000000000E+00 -0.30431568327E+03  0.30431568327E+03  0.00000000000E+00 0. -1.
      99926    2    1    2    0    0  0.00000000000E+00  0.00000000000E+00 -0.14021951541E+03  0.46841185112E+03  0.44693192968E+03 0.  0.
      99925    2    3    3    0    0 -0.57644422052E+02 -0.41221414357E+02 -0.68554011294E+01  0.27231090907E+03  0.26283863924E+03 0.  0.
         25    1    4    4    0    0 -0.43681631636E+02 -0.32876228974E+02 -0.39304688981E+02  0.14206089557E+03  0.12509000000E+03 0.  0.
         25    1    4    4    0    0 -0.13962790417E+02 -0.83451853820E+01  0.32449287852E+02  0.13025001350E+03  0.12509000000E+03 0.  0.
         25    1    3    3    0    0  0.57644422052E+02  0.41221414357E+02 -0.13336411428E+03  0.19610094205E+03  0.12509000000E+03 0.  0.
<mgrwt>
<rscale>  2 0.44693193E+03</rscale>
<asrwt>0</asrwt>
<pdfrwt beam="1">  1       21 0.24131789E-01 0.44693193E+03</pdfrwt>
<pdfrwt beam="2">  1       21 0.44752307E-01 0.44693193E+03</pdfrwt>
<totfact> 0.72057668E+04</totfact>
</mgrwt>
</event>
<event>
 7    0  0.4779893E-002  0.4601341E+03  0.7546771E-02  0.1024742E+00
         21   -1    0    0  502  501  0.00000000000E+00  0.00000000000E+00  0.38052056601E+03  0.38052056601E+03  0.00000000000E+00 0. -1.
         21   -1    0    0  501  502 -0.00000000000E+00 -0.00000000000E+00 -0.13910116359E+03  0.13910116359E+03  0.00000000000E+00 0. -1.
      99926    2    1    2    0    0  0.14210854715E-13  0.14210854715E-13  0.24141940242E+03  0.51962172959E+03  0.46013412610E+03 0.  0.
      99925    2    3    3    0    0 -0.95126902639E+02 -0.70011662619E+02  0.13969702835E+03  0.31975750069E+03  0.26225720011E+03 0.  0.
         25    1    4    4    0    0 -0.79595880342E+02 -0.29468425343E+02  0.10101918925E+03  0.18181385249E+03  0.12509000000E+03 0.  0.
         25    1    3    3    0    0  0.95126902639E+02  0.70011662619E+02  0.10172237407E+03  0.19986422890E+03  0.12509000000E+03 0.  0.
         25    1    4    4    0    0 -0.15531022297E+02 -0.40543237275E+02  0.38677839101E+02  0.13794364820E+03  0.12509000000E+03 0.  0.
<mgrwt>
<rscale>  2 0.46013413E+03</rscale>
<asrwt>0</asrwt>
<pdfrwt beam="1">  1       21 0.55958907E-01 0.46013413E+03</pdfrwt>
<pdfrwt beam="2">  1       21 0.20456054E-01 0.46013413E+03</pdfrwt>
<totfact> 0.61374434E+04</totfact>
</mgrwt>
</event>
<event>
 7    0  0.4779893E-002  0.4528656E+03  0.7546771E-02  0.1026871E+00
         21   -1    0    0  502  501  0.00000000000E+00  0.00000000000E+00  0.11249077571E+04  0.11249077571E+04  0.00000000000E+00 0.  1.
         21   -1    0    0  501  502 -0.00000000000E+00 -0.00000000000E+00 -0.45578687802E+02  0.45578687802E+02  0.00000000000E+00 0.  1.
      99926    2    1    2    0    0  0.14210854715E-13  0.14210854715E-13  0.10793290693E+04  0.11704864449E+04  0.45286562894E+03 0.  0.
      99925    2    3    3    0    0  0.70716609590E+02  0.85183642216E+02  0.70471815542E+03  0.76031826395E+03  0.26305720317E+03 0.  0.
         25    1    3    3    0    0 -0.70716609590E+02 -0.85183642216E+02  0.37461091391E+03  0.41016818099E+03  0.12509000000E+03 0.  0.
         25    1    4    4    0    0  0.39091476195E+02  0.15855865379E+02  0.25182945040E+03  0.28433278420E+03  0.12509000000E+03 0.  0.
         25    1    4    4    0    0  0.31625133395E+02  0.69327776838E+02  0.45288870501E+03  0.47598547975E+03  0.12509000000E+03 0.  0.
<mgrwt>
<rscale>  2 0.45286563E+03</rscale>
<asrwt>0</asrwt>
<pdfrwt beam="1">  1       21 0.16542759E+00 0.45286563E+03</pdfrwt>
<pdfrwt beam="2">  1       21 0.67027489E-02 0.45286563E+03</pdfrwt>
<totfact> 0.33662055E+04</totfact>
</mgrwt>
</event>
<event>
 7    0  0.4779893E-002  0.4577738E+03  0.7546771E-02  0.1025429E+00
         21   -1    0    0  502  501  0.00000000000E+00  0.00000000000E+00  0.34535995070E+03  0.34535995070E+03  0.00000000000E+00 0.  1.
         21   -1    0    0  501  502 -0.00000000000E+00 -0.00000000000E+00 -0.15169453608E+03  0.15169453608E+03  0.00000000000E+00 0.  1.
      99926    2    1    2    0    0  0.14210854715E-13  0.00000000000E+00  0.19366541462E+03  0.49705448678E+03  0.45777381970E+03 0.  0.
      99925    2    3    3    0    0 -0.78066909485E+02  0.85474564041E+02  0.11893496870E+03  0.31095641827E+03  0.26296011832E+03 0.  0.
         25    1    3    3    0    0  0.78066909485E+02 -0.85474564041E+02  0.74730445924E+02  0.18609806851E+03  0.12509000000E+03 0.  0.
         25    1    4    4    0    0 -0.72570253267E+02  0.33016331109E+02  0.38855662341E+02  0.15334206981E+03  0.12509000000E+03 0.  0.
         25    1    4    4    0    0 -0.54966562186E+01  0.52458232932E+02  0.80079306356E+02  0.15761434845E+03  0.12509000000E+03 0.  0.
<mgrwt>
<rscale>  2 0.45777382E+03</rscale>
<asrwt>0</asrwt>
<pdfrwt beam="1">  1       21 0.50788228E-01 0.45777382E+03</pdfrwt>
<pdfrwt beam="2">  1       21 0.22308020E-01 0.45777382E+03</pdfrwt>
<totfact> 0.64055917E+04</totfact>
</mgrwt>
</event>
<event>
 7    0  0.4779893E-002  0.4735055E+03  0.7546771E-02  0.1020935E+00
         21   -1    0    0  502  501  0.00000000000E+00  0.00000000000E+00  0.44734012982E+03  0.44734012982E+03  0.00000000000E+00 0. -1.
         21   -1    0    0  501  502 -0.00000000000E+00 -0.00000000000E+00 -0.12530035020E+03  0.12530035020E+03  0.00000000000E+00 0. -1.
      99926    2    1    2    0    0 -0.14210854715E-13  0.00000000000E+00  0.32203977962E+03  0.57264048003E+03  0.47350554348E+03 0.  0.
      99925    2    3    3    0    0 -0.85923357165E+02 -0.83687432876E+01  0.31659672155E+03  0.42055499698E+03  0.26302122010E+03 0.  0.
         25    1    3    3    0    0  0.85923357165E+02  0.83687432876E+01  0.54430580728E+01  0.15208548304E+03  0.12509000000E+03 0.  0.
         25    1    4    4    0    0 -0.85860542969E+01 -0.14967292798E+02  0.11400704491E+03  0.17012599617E+03  0.12509000000E+03 0.  0.
         25    1    4    4    0    0 -0.77337302868E+02  0.65985495100E+01  0.20258967664E+03  0.25042900082E+03  0.12509000000E+03 0.  0.
<mgrwt>
<rscale>  2 0.47350554E+03</rscale>
<asrwt>0</asrwt>
<pdfrwt beam="1">  1       21 0.65785313E-01 0.47350554E+03</pdfrwt>
<pdfrwt beam="2">  1       21 0.18426522E-01 0.47350554E+03</pdfrwt>
<totfact> 0.52309210E+04</totfact>
</mgrwt>
</event>
<event>
 7    0  0.4779893E-002  0.4580356E+03  0.7546771E-02  0.1025352E+00
         21   -1    0    0  502  501  0.00000000000E+00  0.00000000000E+00  0.21196149743E+03  0.21196149743E+03  0.00000000000E+00 0.  1.
         21   -1    0    0  501  502 -0.00000000000E+00 -0.00000000000E+00 -0.24744664045E+03  0.24744664045E+03  0.00000000000E+00 0.  1.
      99926    2    1    2    0    0  0.00000000000E+00  0.00000000000E+00 -0.35485143022E+02  0.45940813788E+03  0.45803563374E+03 0.  0.
      99925    2    3    3    0    0 -0.64560327138E+02  0.87397093912E+02  0.18556921791E+02  0.28512577867E+03  0.26295638887E+03 0.  0.
         25    1    4    4    0    0 -0.26373010772E+02  0.36671145349E+02  0.48719349031E+02  0.14163824225E+03  0.12509000000E+03 0.  0.
         25    1    3    3    0    0  0.64560327138E+02 -0.87397093912E+02 -0.54042064813E+02  0.17428235922E+03  0.12509000000E+03 0.  0.
         25    1    4    4    0    0 -0.38187316366E+02  0.50725948563E+02 -0.30162427240E+02  0.14348753641E+03  0.12509000000E+03 0.  0.
<mgrwt>
<rscale>  2 0.45803563E+03</rscale>
<asrwt>0</asrwt>
<pdfrwt beam="1">  1       21 0.31170809E-01 0.45803563E+03</pdfrwt>
<pdfrwt beam="2">  1       21 0.36389212E-01 0.45803563E+03</pdfrwt>
<totfact> 0.66596417E+04</totfact>
</mgrwt>
</event>
<event>
 7    0  0.4779893E-002  0.4057837E+03  0.7546771E-02  0.1041795E+00
         21   -1    0    0  502  501  0.00000000000E+00  0.00000000000E+00  0.34261223896E+02  0.34261223896E+02  0.00000000000E+00 0. -1.
         21   -1    0    0  501  502 -0.00000000000E+00 -0.00000000000E+00 -0.12015070558E+04  0.12015070558E+04  0.00000000000E+00 0. -1.
      99926    2    1    2    0    0  0.00000000000E+00  0.00000000000E+00 -0.11672458319E+04  0.12357682797E+04  0.40578369731E+03 0.  0.
      99925    2    3    3    0    0  0.47936523257E+02 -0.28166046398E+02 -0.77815839408E+03  0.82330279168E+03  0.26306988440E+03 0.  0.
         25    1    3    3    0    0 -0.47936523257E+02  0.28166046398E+02 -0.38908743780E+03  0.41246548800E+03  0.12509000000E+03 0.  0.
         25    1    4    4    0    0  0.54551306393E+02 -0.13431083401E+02 -0.32096404541E+03  0.34902960559E+03  0.12509000000E+03 0.  0.
         25    1    4    4    0    0 -0.66147831361E+01 -0.14734962997E+02 -0.45719434867E+03  0.47427318609E+03  0.12509000000E+03 0.  0.
<mgrwt>
<rscale>  2 0.40578370E+03</rscale>
<asrwt>0</asrwt>
<pdfrwt beam="1">  1       21 0.50384166E-02 0.40578370E+03</pdfrwt>
<pdfrwt beam="2">  1       21 0.17669217E+00 0.40578370E+03</pdfrwt>
<totfact> 0.46437951E+04</totfact>
</mgrwt>
</event>
<event>
 7    0  0.4779893E-002  0.4597975E+03  0.7546771E-02  0.1024840E+00
         21   -1    0    0  502  501  0.00000000000E+00  0.00000000000E+00  0.20156294268E+03  0.20156294268E+03  0.00000000000E+00 0.  1.
         21   -1    0    0  501  502 -0.00000000000E+00 -0.00000000000E+00 -0.26221799648E+03  0.26221799648E+03  0.00000000000E+00 0.  1.
      99926    2    1    2    0    0  0.00000000000E+00 -0.71054273576E-14 -0.60655053795E+02  0.46378093916E+03  0.45979748148E+03 0.  0.
      99925    2    3    3    0    0 -0.69399382448E+02 -0.61547495830E+02  0.35004715455E+02  0.28101697094E+03  0.26294645714E+03 0.  0.
         25    1    4    4    0    0 -0.52703942496E+02 -0.67381071349E+02  0.75330084729E+01  0.15173057914E+03  0.12509000000E+03 0.  0.
         25    1    3    3    0    0  0.69399382448E+02  0.61547495830E+02 -0.95659769249E+02  0.18276396822E+03  0.12509000000E+03 0.  0.
         25    1    4    4    0    0 -0.16695439953E+02  0.58335755192E+01  0.27471706982E+02  0.12928639179E+03  0.12509000000E+03 0.  0.
<mgrwt>
<rscale>  2 0.45979748E+03</rscale>
<asrwt>0</asrwt>
<pdfrwt beam="1">  1       21 0.29641609E-01 0.45979748E+03</pdfrwt>
<pdfrwt beam="2">  1       21 0.38561470E-01 0.45979748E+03</pdfrwt>
<totfact> 0.65368903E+04</totfact>
</mgrwt>
</event>
<event>
 7    0  0.4779893E-002  0.4508041E+03  0.7546771E-02  0.1027483E+00
         21   -1    0    0  502  501  0.00000000000E+00  0.00000000000E+00  0.24544066723E+03  0.24544066723E+03  0.00000000000E+00 0. -1.
         21   -1    0    0  501  502 -0.00000000000E+00 -0.00000000000E+00 -0.20699942779E+03  0.20699942779E+03  0.00000000000E+00 0. -1.
      99926    2    1    2    0    0  0.00000000000E+00 -0.13322676296E-14  0.38441239441E+02  0.45244009502E+03  0.45080407129E+03 0.  0.
      99925    2    3    3    0    0 -0.66233254852E+02  0.23160788642E+01 -0.63063920840E+02  0.27824763268E+03  0.26277838327E+03 0.  0.
         25    1    3    3    0    0  0.66233254852E+02 -0.23160788642E+01  0.10150516028E+03  0.17419246233E+03  0.12509000000E+03 0.  0.
         25    1    4    4    0    0 -0.48878448309E+02 -0.34070177943E+02 -0.20263954428E+02  0.14002862451E+03  0.12509000000E+03 0.  0.
         25    1    4    4    0    0 -0.17354806543E+02  0.36386256807E+02 -0.42799966412E+02  0.13821900817E+03  0.12509000000E+03 0.  0.
<mgrwt>
<rscale>  2 0.45080407E+03</rscale>
<asrwt>0</asrwt>
<pdfrwt beam="1">  1       21 0.36094216E-01 0.45080407E+03</pdfrwt>
<pdfrwt beam="2">  1       21 0.30441092E-01 0.45080407E+03</pdfrwt>
<totfact> 0.71083861E+04</totfact>
</mgrwt>
</event>
<event>
 7    0  0.4779893E-002  0.4577087E+03  0.7546771E-02  0.1025448E+00
         21   -1    0    0  502  501  0.00000000000E+00  0.00000000000E+00  0.68999358907E+02  0.68999358907E+02  0.00000000000E+00 0. -1.
         21   -1    0    0  501  502 -0.00000000000E+00 -0.00000000000E+00 -0.75905510206E+03  0.75905510206E+03  0.00000000000E+00 0. -1.
      99926    2    1    2    0    0 -0.35527136788E-14  0.00000000000E+00 -0.69005574315E+03  0.82805446097E+03  0.45770870832E+03 0.  0.
      99925    2    3    3    0    0  0.17247666220E+02  0.43463773603E+02 -0.24181739620E+03  0.36034546449E+03  0.26303349420E+03 0.  0.
         25    1    4    4    0    0  0.29714553840E+02  0.52249633223E+01 -0.16092321016E+03  0.20604378811E+03  0.12509000000E+03 0.  0.
         25    1    3    3    0    0 -0.17247666220E+02 -0.43463773603E+02 -0.44823834695E+03  0.46770899647E+03  0.12509000000E+03 0.  0.
         25    1    4    4    0    0 -0.12466887620E+02  0.38238810280E+02 -0.80894186047E+02  0.15430167638E+03  0.12509000000E+03 0.  0.
<mgrwt>
<rscale>  2 0.45770871E+03</rscale>
<asrwt>0</asrwt>
<pdfrwt beam="1">  1       21 0.10146965E-01 0.45770871E+03</pdfrwt>
<pdfrwt beam="2">  1       21 0.11162575E+00 0.45770871E+03</pdfrwt>
<totfact> 0.45463628E+04</totfact>
</mgrwt>
</event>
<event>
 7    0  0.4779893E-002  0.4527095E+03  0.7546771E-02  0.1026917E+00
         21   -1    0    0  502  501  0.00000000000E+00  0.00000000000E+00  0.33613368890E+03  0.33613368890E+03  0.00000000000E+00 0. -1.
         21   -1    0    0  501  502 -0.00000000000E+00 -0.00000000000E+00 -0.15242888155E+03  0.15242888155E+03  0.00000000000E+00 0. -1.
      99926    2    1    2    0    0  0.00000000000E+00 -0.17763568394E-14  0.18370480735E+03  0.48856257045E+03  0.45270954154E+03 0.  0.
      99925    2    3    3    0    0  0.98128181016E+02  0.12441287197E+02  0.16808306476E+03  0.32832689253E+03  0.26412630722E+03 0.  0.
         25    1    4    4    0    0  0.59305015753E+02 -0.20542469319E+02  0.12186120346E+03  0.18557138505E+03  0.12509000000E+03 0.  0.
         25    1    4    4    0    0  0.38823165263E+02  0.32983756517E+02  0.46221861296E+02  0.14275550748E+03  0.12509000000E+03 0.  0.
         25    1    3    3    0    0 -0.98128181016E+02 -0.12441287197E+02  0.15621742588E+02  0.16023567792E+03  0.12509000000E+03 0.  0.
<mgrwt>
<rscale>  2 0.45270954E+03</rscale>
<asrwt>0</asrwt>
<pdfrwt beam="1">  1       21 0.49431425E-01 0.45270954E+03</pdfrwt>
<pdfrwt beam="2">  1       21 0.22416012E-01 0.45270954E+03</pdfrwt>
<totfact> 0.67297273E+04</totfact>
</mgrwt>
</event>
<event>
 7    0  0.4779893E-002  0.4341878E+03  0.7546771E-02  0.1032545E+00
         21   -1    0    0  502  501  0.00000000000E+00  0.00000000000E+00  0.36657300927E+03  0.36657300927E+03  0.00000000000E+00 0.  1.
         21   -1    0    0  501  502 -0.00000000000E+00 -0.00000000000E+00 -0.12856852751E+03  0.12856852751E+03  0.00000000000E+00 0.  1.
      99926    2    1    2    0    0  0.00000000000E+00  0.00000000000E+00  0.23800448176E+03  0.49514153679E+03  0.43418775675E+03 0.  0.
      99925    2    3    3    0    0  0.48302354368E+02 -0.65298117418E+02  0.20286926561E+03  0.34191310245E+03  0.26296704950E+03 0.  0.
         25    1    4    4    0    0  0.17130995122E+02 -0.10157856390E+02  0.54861856515E+02  0.13803617077E+03  0.12509000000E+03 0.  0.
         25    1    3    3    0    0 -0.48302354368E+02  0.65298117418E+02  0.35135216148E+02  0.15322843434E+03  0.12509000000E+03 0.  0.
         25    1    4    4    0    0  0.31171359245E+02 -0.55140261028E+02  0.14800740910E+03  0.20387693168E+03  0.12509000000E+03 0.  0.
<mgrwt>
<rscale>  2 0.43418776E+03</rscale>
<asrwt>0</asrwt>
<pdfrwt beam="1">  1       21 0.53907795E-01 0.43418776E+03</pdfrwt>
<pdfrwt beam="2">  1       21 0.18907136E-01 0.43418776E+03</pdfrwt>
<totfact> 0.77671958E+04</totfact>
</mgrwt>
</event>
<event>
 7    0  0.4779893E-002  0.4525077E+03  0.7546771E-02  0.1026977E+00
         21   -1    0    0  502  501  0.00000000000E+00  0.00000000000E+00  0.38199011681E+03  0.38199011681E+03  0.00000000000E+00 0. -1.
         21   -1    0    0  501  502 -0.00000000000E+00 -0.00000000000E+00 -0.13401080353E+03  0.13401080353E+03  0.00000000000E+00 0. -1.
      99926    2    1    2    0    0  0.00000000000E+00  0.00000000000E+00  0.24797931327E+03  0.51600092034E+03  0.45250769052E+03 0.  0.
      99925    2    3    3    0    0  0.42558169478E+02 -0.54878593404E+02  0.25529579390E+03  0.37273928279E+03  0.26255622779E+03 0.  0.
         25    1    3    3    0    0 -0.42558169478E+02  0.54878593404E+02 -0.73164806293E+01  0.14326163755E+03  0.12509000000E+03 0.  0.
         25    1    4    4    0    0  0.24463565410E+02 -0.65778109668E+02  0.11727320347E+03  0.18527206507E+03  0.12509000000E+03 0.  0.
         25    1    4    4    0    0  0.18094604069E+02  0.10899516264E+02  0.13802259043E+03  0.18746721772E+03  0.12509000000E+03 0.  0.
<mgrwt>
<rscale>  2 0.45250769E+03</rscale>
<asrwt>0</asrwt>
<pdfrwt beam="1">  1       21 0.56175017E-01 0.45250769E+03</pdfrwt>
<pdfrwt beam="2">  1       21 0.19707471E-01 0.45250769E+03</pdfrwt>
<totfact> 0.65445191E+04</totfact>
</mgrwt>
</event>
<event>
 7    0  0.4779893E-002  0.4544089E+03  0.7546771E-02  0.1026415E+00
         21   -1    0    0  502  501  0.00000000000E+00  0.00000000000E+00  0.62437401668E+02  0.62437401668E+02  0.00000000000E+00 0. -1.
         21   -1    0    0  501  502 -0.00000000000E+00 -0.00000000000E+00 -0.82677769747E+03  0.82677769747E+03  0.00000000000E+00 0. -1.
      99926    2    1    2    0    0  0.00000000000E+00  0.00000000000E+00 -0.76434029580E+03  0.88921509913E+03  0.45440885197E+03 0.  0.
      99925    2    3    3    0    0  0.82977729984E+02 -0.22592207881E+02 -0.33889301231E+03  0.43749769781E+03  0.26298298475E+03 0.  0.
         25    1    4    4    0    0  0.46661978296E+02  0.28937579770E+02 -0.16731137838E+03  0.21599844717E+03  0.12509000000E+03 0.  0.
         25    1    4    4    0    0  0.36315751688E+02 -0.51529787651E+02 -0.17158163393E+03  0.22149925065E+03  0.12509000000E+03 0.  0.
         25    1    3    3    0    0 -0.82977729984E+02  0.22592207881E+02 -0.42544728348E+03  0.45171740132E+03  0.12509000000E+03 0.  0.
<mgrwt>
<rscale>  2 0.45440885E+03</rscale>
<asrwt>0</asrwt>
<pdfrwt beam="1">  1       21 0.91819707E-02 0.45440885E+03</pdfrwt>
<pdfrwt beam="2">  1       21 0.12158496E+00 0.45440885E+03</pdfrwt>
<totfact> 0.43906173E+04</totfact>
</mgrwt>
</event>
<event>
 7    0  0.4779893E-002  0.4556008E+03  0.7546771E-02  0.1026065E+00
         21   -1    0    0  502  501  0.00000000000E+00  0.00000000000E+00  0.20241918056E+04  0.20241918056E+04  0.00000000000E+00 0.  1.
         21   -1    0    0  501  502 -0.00000000000E+00 -0.00000000000E+00 -0.25636416465E+02  0.25636416465E+02  0.00000000000E+00 0.  1.
      99926    2    1    2    0    0  0.00000000000E+00 -0.14210854715E-13  0.19985553891E+04  0.20498282221E+04  0.45560080831E+03 0.  0.
      99925    2    3    3    0    0  0.47434178855E+02  0.79859384297E+02  0.15522753902E+04  0.15771328994E+04  0.26298625925E+03 0.  0.
         25    1    3    3    0    0 -0.47434178855E+02 -0.79859384297E+02  0.44627999891E+03  0.47269532271E+03  0.12509000000E+03 0.  0.
         25    1    4    4    0    0  0.37573731330E+02  0.85298292357E+00  0.71909142332E+03  0.73085737053E+03  0.12509000000E+03 0.  0.
         25    1    4    4    0    0  0.98604475250E+01  0.79006401373E+02  0.83318396691E+03  0.84627552883E+03  0.12509000000E+03 0.  0.
<mgrwt>
<rscale>  2 0.45560081E+03</rscale>
<asrwt>0</asrwt>
<pdfrwt beam="1">  1       21 0.29767516E+00 0.45560081E+03</pdfrwt>
<pdfrwt beam="2">  1       21 0.37700626E-02 0.45560081E+03</pdfrwt>
<totfact> 0.12853173E+04</totfact>
</mgrwt>
</event>
<event>
 7    0  0.4779893E-002  0.4532538E+03  0.7546771E-02  0.1026756E+00
         21   -1    0    0  502  501  0.00000000000E+00  0.00000000000E+00  0.75468130192E+02  0.75468130192E+02  0.00000000000E+00 0. -1.
         21   -1    0    0  501  502 -0.00000000000E+00 -0.00000000000E+00 -0.68054892155E+03  0.68054892155E+03  0.00000000000E+00 0. -1.
      99926    2    1    2    0    0 -0.14210854715E-13 -0.17763568394E-14 -0.60508079136E+03  0.75601705175E+03  0.45325381240E+03 0.  0.
      99925    2    3    3    0    0  0.73100149638E+02  0.10685687951E+02 -0.24199255665E+03  0.36494366977E+03  0.26299366689E+03 0.  0.
         25    1    4    4    0    0  0.30559824372E+02  0.17031823917E+01 -0.17285155793E+03  0.21555039521E+03  0.12509000000E+03 0.  0.
         25    1    3    3    0    0 -0.73100149638E+02 -0.10685687951E+02 -0.36308823472E+03  0.39107338198E+03  0.12509000000E+03 0.  0.
         25    1    4    4    0    0  0.42540325266E+02  0.89825055593E+01 -0.69140998719E+02  0.14939327456E+03  0.12509000000E+03 0.  0.
<mgrwt>
<rscale>  2 0.45325381E+03</rscale>
<asrwt>0</asrwt>
<pdfrwt beam="1">  1       21 0.11098255E-01 0.45325381E+03</pdfrwt>
<pdfrwt beam="2">  1       21 0.10008072E+00 0.45325381E+03</pdfrwt>
<totfact> 0.50656000E+04</totfact>
</mgrwt>
</event>
<event>
 7    0  0.4779893E-002  0.4536292E+03  0.7546771E-02  0.1026645E+00
         21   -1    0    0  502  501  0.00000000000E+00  0.00000000000E+00  0.27383809154E+03  0.27383809154E+03  0.00000000000E+00 0.  1.
         21   -1    0    0  501  502 -0.00000000000E+00 -0.00000000000E+00 -0.18786596203E+03  0.18786596203E+03  0.00000000000E+00 0.  1.
      99926    2    1    2    0    0  0.71054273576E-14  0.00000000000E+00  0.85972129508E+02  0.46170405356E+03  0.45362917237E+03 0.  0.
      99925    2    3    3    0    0 -0.55585076657E+02 -0.85398064265E+02  0.10073377494E+03  0.29969187994E+03  0.26322119854E+03 0.  0.
         25    1    3    3    0    0  0.55585076657E+02  0.85398064265E+02 -0.14761645432E+02  0.16201217363E+03  0.12509000000E+03 0.  0.
         25    1    4    4    0    0 -0.61969597714E+02 -0.66210257412E+02  0.68077706942E+02  0.16883752992E+03  0.12509000000E+03 0.  0.
         25    1    4    4    0    0  0.63845210567E+01 -0.19187806853E+02  0.32656067997E+02  0.13085435002E+03  0.12509000000E+03 0.  0.
<mgrwt>
<rscale>  2 0.45362917E+03</rscale>
<asrwt>0</asrwt>
<pdfrwt beam="1">  1       21 0.40270308E-01 0.45362917E+03</pdfrwt>
<pdfrwt beam="2">  1       21 0.27627347E-01 0.45362917E+03</pdfrwt>
<totfact> 0.68802228E+04</totfact>
</mgrwt>
</event>
<event>
 7    0  0.4779893E-002  0.4572068E+03  0.7546771E-02  0.1025594E+00
         21   -1    0    0  502  501  0.00000000000E+00  0.00000000000E+00  0.51778055007E+03  0.51778055007E+03  0.00000000000E+00 0. -1.
         21   -1    0    0  501  502 -0.00000000000E+00 -0.00000000000E+00 -0.10092986739E+03  0.10092986739E+03  0.00000000000E+00 0. -1.
      99926    2    1    2    0    0  0.00000000000E+00  0.00000000000E+00  0.41685068268E+03  0.61871041746E+03  0.45720683396E+03 0.  0.
      99925    2    3    3    0    0  0.10288228678E+02  0.10009308670E+03  0.33723712317E+03  0.43951694489E+03  0.26329032255E+03 0.  0.
         25    1    4    4    0    0 -0.24157858347E+01  0.92615929174E+02  0.17729736658E+03  0.23593518316E+03  0.12509000000E+03 0.  0.
         25    1    3    3    0    0 -0.10288228678E+02 -0.10009308670E+03  0.79613559516E+02  0.17919347257E+03  0.12509000000E+03 0.  0.
         25    1    4    4    0    0  0.12704014513E+02  0.74771575233E+01  0.15993975659E+03  0.20358176173E+03  0.12509000000E+03 0.  0.
<mgrwt>
<rscale>  2 0.45720683E+03</rscale>
<asrwt>0</asrwt>
<pdfrwt beam="1">  1       21 0.76144198E-01 0.45720683E+03</pdfrwt>
<pdfrwt beam="2">  1       21 0.14842628E-01 0.45720683E+03</pdfrwt>
<totfact> 0.56549167E+04</totfact>
</mgrwt>
</event>
<event>
 7    0  0.4779893E-002  0.4541259E+03  0.7546771E-02  0.1026499E+00
         21   -1    0    0  502  501  0.00000000000E+00  0.00000000000E+00  0.65591164809E+03  0.65591164809E+03  0.00000000000E+00 0. -1.
         21   -1    0    0  501  502 -0.00000000000E+00 -0.00000000000E+00 -0.78604449101E+02  0.78604449101E+02  0.00000000000E+00 0. -1.
      99926    2    1    2    0    0  0.00000000000E+00  0.00000000000E+00  0.57730719899E+03  0.73451609719E+03  0.45412585814E+03 0.  0.
      99925    2    3    3    0    0 -0.33413675650E+02  0.38473157637E+02  0.20129527006E+03  0.33497994566E+03  0.26285950748E+03 0.  0.
         25    1    3    3    0    0  0.33413675650E+02 -0.38473157637E+02  0.37601192893E+03  0.39953615153E+03  0.12509000000E+03 0.  0.
         25    1    4    4    0    0 -0.34597331911E+02  0.48968042770E+02  0.13250291056E+03  0.19183162929E+03  0.12509000000E+03 0.  0.
         25    1    4    4    0    0  0.11836562611E+01 -0.10494885132E+02  0.68792359496E+02  0.14314831638E+03  0.12509000000E+03 0.  0.
<mgrwt>
<rscale>  2 0.45412586E+03</rscale>
<asrwt>0</asrwt>
<pdfrwt beam="1">  1       21 0.96457592E-01 0.45412586E+03</pdfrwt>
<pdfrwt beam="2">  1       21 0.11559478E-01 0.45412586E+03</pdfrwt>
<totfact> 0.51421230E+04</totfact>
</mgrwt>
</event>
<event>
 7    0  0.4779893E-002  0.4533690E+03  0.7546771E-02  0.1026722E+00
         21   -1    0    0  502  501  0.00000000000E+00  0.00000000000E+00  0.12189112212E+03  0.12189112212E+03  0.00000000000E+00 0.  1.
         21   -1    0    0  501  502 -0.00000000000E+00 -0.00000000000E+00 -0.42157186710E+03  0.42157186710E+03  0.00000000000E+00 0.  1.
      99926    2    1    2    0    0  0.00000000000E+00  0.00000000000E+00 -0.29968074498E+03  0.54346298923E+03  0.45336902381E+03 0.  0.
      99925    2    3    3    0    0  0.44749751142E+02 -0.98814120598E+02 -0.21873453518E+03  0.35916277860E+03  0.26341285844E+03 0.  0.
         25    1    4    4    0    0  0.44255471332E+01 -0.76673622617E+02 -0.81647821431E+02  0.16796518900E+03  0.12509000000E+03 0.  0.
         25    1    3    3    0    0 -0.44749751142E+02  0.98814120598E+02 -0.80946209794E+02  0.18430021063E+03  0.12509000000E+03 0.  0.
         25    1    4    4    0    0  0.40324204009E+02 -0.22140497981E+02 -0.13708671375E+03  0.19119758960E+03  0.12509000000E+03 0.  0.
<mgrwt>
<rscale>  2 0.45336902E+03</rscale>
<asrwt>0</asrwt>
<pdfrwt beam="1">  1       21 0.17925165E-01 0.45336902E+03</pdfrwt>
<pdfrwt beam="2">  1       21 0.61995863E-01 0.45336902E+03</pdfrwt>
<totfact> 0.63111152E+04</totfact>
</mgrwt>
</event>
<event>
 7    0  0.4779893E-002  0.4530135E+03  0.7546771E-02  0.1026827E+00
         21   -1    0    0  502  501  0.00000000000E+00  0.00000000000E+00  0.18804971481E+04  0.18804971481E+04  0.00000000000E+00 0.  1.
         21   -1    0    0  501  502 -0.00000000000E+00 -0.00000000000E+00 -0.27282846193E+02  0.27282846193E+02  0.00000000000E+00 0.  1.
      99926    2    1    2    0    0  0.00000000000E+00  0.00000000000E+00  0.18532143019E+04  0.19077799943E+04  0.45301352942E+03 0.  0.
      99925    2    3    3    0    0  0.75505049920E+02 -0.58920116715E+02  0.92826486128E+03  0.96950947439E+03  0.26286950282E+03 0.  0.
         25    1    3    3    0    0 -0.75505049920E+02  0.58920116715E+02  0.92494944065E+03  0.93827051993E+03  0.12509000000E+03 0.  0.
         25    1    4    4    0    0  0.20277597895E+01 -0.35053906382E+02  0.36747095577E+03  0.38976313268E+03  0.12509000000E+03 0.  0.
         25    1    4    4    0    0  0.73477290131E+02 -0.23866210333E+02  0.56079390551E+03  0.57974634171E+03  0.12509000000E+03 0.  0.
<mgrwt>
<rscale>  2 0.45301353E+03</rscale>
<asrwt>0</asrwt>
<pdfrwt beam="1">  1       21 0.27654361E+00 0.45301353E+03</pdfrwt>
<pdfrwt beam="2">  1       21 0.40121845E-02 0.45301353E+03</pdfrwt>
<totfact> 0.15512130E+04</totfact>
</mgrwt>
</event>
<event>
 7    0  0.4779893E-002  0.4699515E+03  0.7546771E-02  0.1021934E+00
         21   -1    0    0  502  501  0.00000000000E+00  0.00000000000E+00  0.33487472744E+03  0.33487472744E+03  0.00000000000E+00 0. -1.
         21   -1    0    0  501  502 -0.00000000000E+00 -0.00000000000E+00 -0.16487834886E+03  0.16487834886E+03  0.00000000000E+00 0. -1.
      99926    2    1    2    0    0  0.00000000000E+00  0.00000000000E+00  0.16999637858E+03  0.49975307630E+03  0.46995145339E+03 0.  0.
      99925    2    3    3    0    0 -0.37831175964E+02  0.77492763361E+02  0.20447351438E+03  0.34395671164E+03  0.26279359801E+03 0.  0.
         25    1    4    4    0    0  0.32442136937E+01  0.27999714579E+01  0.95618340264E+02  0.15750790411E+03  0.12509000000E+03 0.  0.
         25    1    3    3    0    0  0.37831175964E+02 -0.77492763361E+02 -0.34477135802E+02  0.15579636466E+03  0.12509000000E+03 0.  0.
         25    1    4    4    0    0 -0.41075389658E+02  0.74692791903E+02  0.10885517411E+03  0.18644880753E+03  0.12509000000E+03 0.  0.
<mgrwt>
<rscale>  2 0.46995145E+03</rscale>
<asrwt>0</asrwt>
<pdfrwt beam="1">  1       21 0.49246283E-01 0.46995145E+03</pdfrwt>
<pdfrwt beam="2">  1       21 0.24246816E-01 0.46995145E+03</pdfrwt>
<totfact> 0.58081893E+04</totfact>
</mgrwt>
</event>
<event>
 7    0  0.4779893E-002  0.4537133E+03  0.7546771E-02  0.1026620E+00
         21   -1    0    0  502  501  0.00000000000E+00  0.00000000000E+00  0.27345535513E+03  0.27345535513E+03  0.00000000000E+00 0.  1.
         21   -1    0    0  501  502 -0.00000000000E+00 -0.00000000000E+00 -0.18819866536E+03  0.18819866536E+03  0.00000000000E+00 0.  1.
      99926    2    1    2    0    0  0.00000000000E+00  0.00000000000E+00  0.85256689768E+02  0.46165402049E+03  0.45371327012E+03 0.  0.
      99925    2    3    3    0    0 -0.52717029853E+02  0.97577799509E+02  0.68245273128E+02  0.29361411871E+03  0.26315645766E+03 0.  0.
         25    1    4    4    0    0 -0.29584903993E+02  0.90734323493E+02  0.26505392690E+02  0.15955572050E+03  0.12509000000E+03 0.  0.
         25    1    3    3    0    0  0.52717029853E+02 -0.97577799509E+02  0.17011416640E+02  0.16803990178E+03  0.12509000000E+03 0.  0.
         25    1    4    4    0    0 -0.23132125860E+02  0.68434760152E+01  0.41739880438E+02  0.13405839821E+03  0.12509000000E+03 0.  0.
<mgrwt>
<rscale>  2 0.45371327E+03</rscale>
<asrwt>0</asrwt>
<pdfrwt beam="1">  1       21 0.40214023E-01 0.45371327E+03</pdfrwt>
<pdfrwt beam="2">  1       21 0.27676274E-01 0.45371327E+03</pdfrwt>
<totfact> 0.68759891E+04</totfact>
</mgrwt>
</event>
<event>
 7    0  0.4779893E-002  0.4391042E+03  0.7546771E-02  0.1031022E+00
         21   -1    0    0  502  501  0.00000000000E+00  0.00000000000E+00  0.67424698834E+02  0.67424698834E+02  0.00000000000E+00 0.  1.
         21   -1    0    0  501  502 -0.00000000000E+00 -0.00000000000E+00 -0.71491800529E+03  0.71491800529E+03  0.00000000000E+00 0.  1.
      99926    2    1    2    0    0  0.00000000000E+00  0.00000000000E+00 -0.64749330646E+03  0.78234270413E+03  0.43910422999E+03 0.  0.
      99925    2    3    3    0    0 -0.56345725266E+02 -0.79454052881E+02 -0.41905335552E+03  0.50427777185E+03  0.26306381191E+03 0.  0.
         25    1    4    4    0    0 -0.68368821449E+01 -0.59495033973E+01 -0.16047230115E+03  0.20366886627E+03  0.12509000000E+03 0.  0.
         25    1    4    4    0    0 -0.49508843121E+02 -0.73504549484E+02 -0.25858105437E+03  0.30060890559E+03  0.12509000000E+03 0.  0.
         25    1    3    3    0    0  0.56345725266E+02  0.79454052881E+02 -0.22843995094E+03  0.27806493227E+03  0.12509000000E+03 0.  0.
<mgrwt>
<rscale>  2 0.43910423E+03</rscale>
<asrwt>0</asrwt>
<pdfrwt beam="1">  1       21 0.99153964E-02 0.43910423E+03</pdfrwt>
<pdfrwt beam="2">  1       21 0.10513501E+00 0.43910423E+03</pdfrwt>
<totfact> 0.55202833E+04</totfact>
</mgrwt>
</event>
<event>
 7    0  0.4779893E-002  0.4519802E+03  0.7546771E-02  0.1027133E+00
         21   -1    0    0  502  501  0.00000000000E+00  0.00000000000E+00  0.37137862329E+02  0.37137862329E+02  0.00000000000E+00 0. -1.
         21   -1    0    0  501  502 -0.00000000000E+00 -0.00000000000E+00 -0.13751872750E+04  0.13751872750E+04  0.00000000000E+00 0. -1.
      99926    2    1    2    0    0  0.00000000000E+00  0.11102230246E-15 -0.13380494127E+04  0.14123251373E+04  0.45198015751E+03 0.  0.
      99925    2    3    3    0    0 -0.73173313193E+02  0.84587545164E+00 -0.11021493741E+04  0.11354652710E+04  0.26304579379E+03 0.  0.
         25    1    3    3    0    0  0.73173313193E+02 -0.84587545164E+00 -0.23590003862E+03  0.27685986634E+03  0.12509000000E+03 0.  0.
         25    1    4    4    0    0 -0.28470833181E+02  0.12493672356E+02 -0.38442881315E+03  0.40546232954E+03  0.12509000000E+03 0.  0.
         25    1    4    4    0    0 -0.44702480012E+02 -0.11647796904E+02 -0.71772056092E+03  0.73000294147E+03  0.12509000000E+03 0.  0.
<mgrwt>
<rscale>  2 0.45198016E+03</rscale>
<asrwt>0</asrwt>
<pdfrwt beam="1">  1       21 0.54614492E-02 0.45198016E+03</pdfrwt>
<pdfrwt beam="2">  1       21 0.20223347E+00 0.45198016E+03</pdfrwt>
<totfact> 0.26624732E+04</totfact>
</mgrwt>
</event>
<event>
 7    0  0.4779893E-002  0.4577182E+03  0.7546771E-02  0.1025445E+00
         21   -1    0    0  502  501  0.00000000000E+00  0.00000000000E+00  0.12494087193E+04  0.12494087193E+04  0.00000000000E+00 0. -1.
         21   -1    0    0  501  502 -0.00000000000E+00 -0.00000000000E+00 -0.41921026775E+02  0.41921026775E+02  0.00000000000E+00 0. -1.
      99926    2    1    2    0    0  0.00000000000E+00  0.00000000000E+00  0.12074876925E+04  0.12913297461E+04  0.45771823811E+03 0.  0.
      99925    2    3    3    0    0  0.85506873318E+02  0.39234414346E+02  0.56814827068E+03  0.63311004941E+03  0.26303063041E+03 0.  0.
         25    1    4    4    0    0  0.55287267897E+02  0.47426214778E+02  0.36304704078E+03  0.39084087524E+03  0.12509000000E+03 0.  0.
         25    1    4    4    0    0  0.30219605421E+02 -0.81918004317E+01  0.20510122990E+03  0.24226917417E+03  0.12509000000E+03 0.  0.
         25    1    3    3    0    0 -0.85506873318E+02 -0.39234414346E+02  0.63933942187E+03  0.65821969669E+03  0.12509000000E+03 0.  0.
<mgrwt>
<rscale>  2 0.45771824E+03</rscale>
<asrwt>0</asrwt>
<pdfrwt beam="1">  1       21 0.18373655E+00 0.45771824E+03</pdfrwt>
<pdfrwt beam="2">  1       21 0.61648577E-02 0.45771824E+03</pdfrwt>
<totfact> 0.28754715E+04</totfact>
</mgrwt>
</event>
<event>
 7    0  0.4779893E-002  0.4616221E+03  0.7546771E-02  0.1024312E+00
         21   -1    0    0  502  501  0.00000000000E+00  0.00000000000E+00  0.32907217605E+03  0.32907217605E+03  0.00000000000E+00 0.  1.
         21   -1    0    0  501  502 -0.00000000000E+00 -0.00000000000E+00 -0.16189077814E+03  0.16189077814E+03  0.00000000000E+00 0.  1.
      99926    2    1    2    0    0  0.00000000000E+00  0.00000000000E+00  0.16718139791E+03  0.49096295420E+03  0.46162214265E+03 0.  0.
      99925    2    3    3    0    0  0.80648826024E+02  0.70070001682E+02  0.16087079460E+03  0.32633801657E+03  0.26306472631E+03 0.  0.
         25    1    4    4    0    0  0.38574606551E+02  0.70496610995E+02  0.10978456289E+03  0.18481864295E+03  0.12509000000E+03 0.  0.
         25    1    3    3    0    0 -0.80648826024E+02 -0.70070001682E+02  0.63106033121E+01  0.16462493763E+03  0.12509000000E+03 0.  0.
         25    1    4    4    0    0  0.42074219473E+02 -0.42660931267E+00  0.51086231712E+02  0.14151937362E+03  0.12509000000E+03 0.  0.
<mgrwt>
<rscale>  2 0.46162214E+03</rscale>
<asrwt>0</asrwt>
<pdfrwt beam="1">  1       21 0.48392967E-01 0.46162214E+03</pdfrwt>
<pdfrwt beam="2">  1       21 0.23807467E-01 0.46162214E+03</pdfrwt>
<totfact> 0.62556478E+04</totfact>
</mgrwt>
</event>
<event>
 7    0  0.4779893E-002  0.4602412E+03  0.7546771E-02  0.1024711E+00
         21   -1    0    0  502  501  0.00000000000E+00  0.00000000000E+00  0.66097020295E+02  0.66097020295E+02  0.00000000000E+00 0.  1.
         21   -1    0    0  501  502 -0.00000000000E+00 -0.00000000000E+00 -0.80117829664E+03  0.80117829664E+03  0.00000000000E+00 0.  1.
      99926    2    1    2    0    0  0.00000000000E+00  0.00000000000E+00 -0.73508127635E+03  0.86727531694E+03  0.46024123298E+03 0.  0.
      99925    2    3    3    0    0 -0.24905353167E+02 -0.10320159235E+02 -0.67686615619E+03  0.72669334577E+03  0.26307535629E+03 0.  0.
         25    1    3    3    0    0  0.24905353167E+02  0.10320159235E+02 -0.58215120159E+02  0.14058197117E+03  0.12509000000E+03 0.  0.
         25    1    4    4    0    0 -0.43254830656E+02 -0.30809897179E+02 -0.32657586042E+03  0.35372239235E+03  0.12509000000E+03 0.  0.
         25    1    4    4    0    0  0.18349477489E+02  0.20489737943E+02 -0.35029029577E+03  0.37297095342E+03  0.12509000000E+03 0.  0.
<mgrwt>
<rscale>  2 0.46024123E+03</rscale>
<asrwt>0</asrwt>
<pdfrwt beam="1">  1       21 0.97201501E-02 0.46024123E+03</pdfrwt>
<pdfrwt beam="2">  1       21 0.11782034E+00 0.46024123E+03</pdfrwt>
<totfact> 0.42885845E+04</totfact>
</mgrwt>
</event>
<event>
 7    0  0.4779893E-002  0.4506199E+03  0.7546771E-02  0.1027537E+00
         21   -1    0    0  502  501  0.00000000000E+00  0.00000000000E+00  0.49691927492E+03  0.49691927492E+03  0.00000000000E+00 0. -1.
         21   -1    0    0  501  502 -0.00000000000E+00 -0.00000000000E+00 -0.10215858331E+03  0.10215858331E+03  0.00000000000E+00 0. -1.
      99926    2    1    2    0    0  0.00000000000E+00  0.00000000000E+00  0.39476069161E+03  0.59907785823E+03  0.45061988037E+03 0.  0.
      99925    2    3    3    0    0 -0.74968215463E+02 -0.78875061475E+02  0.25797910787E+03  0.38414015004E+03  0.26299985955E+03 0.  0.
         25    1    4    4    0    0 -0.18512607797E+02 -0.80811914089E+01  0.14642654820E+03  0.19363952184E+03  0.12509000000E+03 0.  0.
         25    1    3    3    0    0  0.74968215463E+02  0.78875061475E+02  0.13678158374E+03  0.21493770819E+03  0.12509000000E+03 0.  0.
         25    1    4    4    0    0 -0.56455607666E+02 -0.70793870066E+02  0.11155255967E+03  0.19050062820E+03  0.12509000000E+03 0.  0.
<mgrwt>
<rscale>  2 0.45061988E+03</rscale>
<asrwt>0</asrwt>
<pdfrwt beam="1">  1       21 0.73076363E-01 0.45061988E+03</pdfrwt>
<pdfrwt beam="2">  1       21 0.15023321E-01 0.45061988E+03</pdfrwt>
<totfact> 0.60812535E+04</totfact>
</mgrwt>
</event>
<event>
 7    0  0.4779893E-002  0.4519731E+03  0.7546771E-02  0.1027135E+00
         21   -1    0    0  502  501  0.00000000000E+00  0.00000000000E+00  0.11142344902E+04  0.11142344902E+04  0.00000000000E+00 0.  1.
         21   -1    0    0  501  502 -0.00000000000E+00 -0.00000000000E+00 -0.45834093797E+02  0.45834093797E+02  0.00000000000E+00 0.  1.
      99926    2    1    2    0    0  0.00000000000E+00 -0.71054273576E-14  0.10684003964E+04  0.11600685840E+04  0.45197313255E+03 0.  0.
      99925    2    3    3    0    0 -0.66883913944E+02  0.56229204612E+02  0.84688366627E+03  0.89108466027E+03  0.26302993401E+03 0.  0.
         25    1    4    4    0    0 -0.13188151648E+02  0.62762263135E+02  0.40900448965E+03  0.43248723643E+03  0.12509000000E+03 0.  0.
         25    1    3    3    0    0  0.66883913944E+02 -0.56229204612E+02  0.22151673016E+03  0.26898392375E+03  0.12509000000E+03 0.  0.
         25    1    4    4    0    0 -0.53695762296E+02 -0.65330585229E+01  0.43787917662E+03  0.45859742384E+03  0.12509000000E+03 0.  0.
<mgrwt>
<rscale>  2 0.45197313E+03</rscale>
<asrwt>0</asrwt>
<pdfrwt beam="1">  1       21 0.16385800E+00 0.45197313E+03</pdfrwt>
<pdfrwt beam="2">  1       21 0.67403086E-02 0.45197313E+03</pdfrwt>
<totfact> 0.34248730E+04</totfact>
</mgrwt>
</event>
<event>
 7    0  0.4779893E-002  0.4550423E+03  0.7546771E-02  0.1026229E+00
         21   -1    0    0  502  501  0.00000000000E+00  0.00000000000E+00  0.10955900631E+03  0.10955900631E+03  0.00000000000E+00 0. -1.
         21   -1    0    0  501  502 -0.00000000000E+00 -0.00000000000E+00 -0.47249303671E+03  0.47249303671E+03  0.00000000000E+00 0. -1.
      99926    2    1    2    0    0  0.00000000000E+00  0.00000000000E+00 -0.36293403041E+03  0.58205204302E+03  0.45504227316E+03 0.  0.
      99925    2    3    3    0    0  0.42380207465E+02  0.98146125923E+02 -0.27596268020E+03  0.39593308140E+03  0.26301874470E+03 0.  0.
         25    1    4    4    0    0  0.20069686315E+02  0.89672125520E+02 -0.17068144852E+03  0.23070229165E+03  0.12509000000E+03 0.  0.
         25    1    4    4    0    0  0.22310521150E+02  0.84740004029E+01 -0.10528123169E+03  0.16523078975E+03  0.12509000000E+03 0.  0.
         25    1    3    3    0    0 -0.42380207465E+02 -0.98146125923E+02 -0.86971350202E+02  0.18611896162E+03  0.12509000000E+03 0.  0.
<mgrwt>
<rscale>  2 0.45504227E+03</rscale>
<asrwt>0</asrwt>
<pdfrwt beam="1">  1       21 0.16111619E-01 0.45504227E+03</pdfrwt>
<pdfrwt beam="2">  1       21 0.69484269E-01 0.45504227E+03</pdfrwt>
<totfact> 0.59776858E+04</totfact>
</mgrwt>
</event>
<event>
 7    0  0.4779893E-002  0.4536457E+03  0.7546771E-02  0.1026640E+00
         21   -1    0    0  502  501  0.00000000000E+00  0.00000000000E+00  0.54982173831E+03  0.54982173831E+03  0.00000000000E+00 0. -1.
         21   -1    0    0  501  502 -0.00000000000E+00 -0.00000000000E+00 -0.93573235867E+02  0.93573235867E+02  0.00000000000E+00 0. -1.
      99926    2    1    2    0    0  0.00000000000E+00  0.71054273576E-14  0.45624850244E+03  0.64339497417E+03  0.45364567320E+03 0.  0.
      99925    2    3    3    0    0  0.54553621973E+02  0.40145337854E+02  0.16134964576E+03  0.31597996292E+03  0.26310051874E+03 0.  0.
         25    1    4    4    0    0  0.53084088035E+02 -0.25295345208E+01  0.10736904132E+03  0.17320490201E+03  0.12509000000E+03 0.  0.
         25    1    4    4    0    0  0.14695339379E+01  0.42674872375E+02  0.53980604444E+02  0.14277506091E+03  0.12509000000E+03 0.  0.
         25    1    3    3    0    0 -0.54553621973E+02 -0.40145337854E+02  0.29489885668E+03  0.32741501125E+03  0.12509000000E+03 0.  0.
<mgrwt>
<rscale>  2 0.45364567E+03</rscale>
<asrwt>0</asrwt>
<pdfrwt beam="1">  1       21 0.80856137E-01 0.45364567E+03</pdfrwt>
<pdfrwt beam="2">  1       21 0.13760770E-01 0.45364567E+03</pdfrwt>
<totfact> 0.56686972E+04</totfact>
</mgrwt>
</event>
<event>
 7    0  0.4779893E-002  0.4537680E+03  0.7546771E-02  0.1026604E+00
         21   -1    0    0  502  501  0.00000000000E+00  0.00000000000E+00  0.10367606528E+03  0.10367606528E+03  0.00000000000E+00 0.  1.
         21   -1    0    0  501  502 -0.00000000000E+00 -0.00000000000E+00 -0.49651139907E+03  0.49651139907E+03  0.00000000000E+00 0.  1.
      99926    2    1    2    0    0  0.14210854715E-13  0.00000000000E+00 -0.39283533380E+03  0.60018746435E+03  0.45376799456E+03 0.  0.
      99925    2    3    3    0    0 -0.74944872001E+02  0.82347262528E+02 -0.23135713021E+03  0.36754928215E+03  0.26299913997E+03 0.  0.
         25    1    4    4    0    0 -0.44544960461E+01  0.31416888927E+02 -0.13766670669E+03  0.18869683006E+03  0.12509000000E+03 0.  0.
         25    1    4    4    0    0 -0.70490375955E+02  0.50930373601E+02 -0.93690423525E+02  0.17885245209E+03  0.12509000000E+03 0.  0.
         25    1    3    3    0    0  0.74944872001E+02 -0.82347262528E+02 -0.16147820359E+03  0.23263818220E+03  0.12509000000E+03 0.  0.
<mgrwt>
<rscale>  2 0.45376799E+03</rscale>
<asrwt>0</asrwt>
<pdfrwt beam="1">  1       21 0.15246480E-01 0.45376799E+03</pdfrwt>
<pdfrwt beam="2">  1       21 0.73016383E-01 0.45376799E+03</pdfrwt>
<totfact> 0.59241298E+04</totfact>
</mgrwt>
</event>
<event>
 7    0  0.4779893E-002  0.4614071E+03  0.7546771E-02  0.1024374E+00
         21   -1    0    0  502  501  0.00000000000E+00  0.00000000000E+00  0.12660882597E+03  0.12660882597E+03  0.00000000000E+00 0. -1.
         21   -1    0    0  501  502 -0.00000000000E+00 -0.00000000000E+00 -0.42038237123E+03  0.42038237123E+03  0.00000000000E+00 0. -1.
      99926    2    1    2    0    0  0.00000000000E+00  0.00000000000E+00 -0.29377354527E+03  0.54699119720E+03  0.46140705881E+03 0.  0.
      99925    2    3    3    0    0  0.80694706815E+02  0.81449574351E+02 -0.14605502990E+03  0.32201578354E+03  0.26309014466E+03 0.  0.
         25    1    3    3    0    0 -0.80694706815E+02 -0.81449574351E+02 -0.14771851537E+03  0.22497541366E+03  0.12509000000E+03 0.  0.
         25    1    4    4    0    0  0.70954197659E+02  0.72847771015E+02 -0.80448939964E+02  0.18016890950E+03  0.12509000000E+03 0.  0.
         25    1    4    4    0    0  0.97405091563E+01  0.86018033355E+01 -0.65606089931E+02  0.14184687404E+03  0.12509000000E+03 0.  0.
<mgrwt>
<rscale>  2 0.46140706E+03</rscale>
<asrwt>0</asrwt>
<pdfrwt beam="1">  1       21 0.18618945E-01 0.46140706E+03</pdfrwt>
<pdfrwt beam="2">  1       21 0.61820937E-01 0.46140706E+03</pdfrwt>
<totfact> 0.59016436E+04</totfact>
</mgrwt>
</event>
<event>
 7    0  0.4779893E-002  0.4480465E+03  0.7546771E-02  0.1028306E+00
         21   -1    0    0  502  501  0.00000000000E+00  0.00000000000E+00  0.48699021656E+03  0.48699021656E+03  0.00000000000E+00 0. -1.
         21   -1    0    0  501  502 -0.00000000000E+00 -0.00000000000E+00 -0.10305424750E+03  0.10305424750E+03  0.00000000000E+00 0. -1.
      99926    2    1    2    0    0  0.14210854715E-13 -0.66613381478E-15  0.38393596906E+03  0.59004446406E+03  0.44804647218E+03 0.  0.
      99925    2    3    3    0    0  0.80057151399E+02 -0.85742345010E+00  0.15080068465E+03  0.31362186803E+03  0.26307403321E+03 0.  0.
         25    1    3    3    0    0 -0.80057151399E+02  0.85742345010E+00  0.23313528440E+03  0.27642259604E+03  0.12509000000E+03 0.  0.
         25    1    4    4    0    0  0.56134289693E+02 -0.69607562824E+01  0.35698326458E+02  0.14184988269E+03  0.12509000000E+03 0.  0.
         25    1    4    4    0    0  0.23922861706E+02  0.61033328323E+01  0.11510235820E+03  0.17177198534E+03  0.12509000000E+03 0.  0.
<mgrwt>
<rscale>  2 0.44804647E+03</rscale>
<asrwt>0</asrwt>
<pdfrwt beam="1">  1       21 0.71616207E-01 0.44804647E+03</pdfrwt>
<pdfrwt beam="2">  1       21 0.15155037E-01 0.44804647E+03</pdfrwt>
<totfact> 0.62668937E+04</totfact>
</mgrwt>
</event>
<event>
 7    0  0.4779893E-002  0.4523230E+03  0.7546771E-02  0.1027032E+00
         21   -1    0    0  502  501  0.00000000000E+00  0.00000000000E+00  0.81669465995E+03  0.81669465995E+03  0.00000000000E+00 0. -1.
         21   -1    0    0  501  502 -0.00000000000E+00 -0.00000000000E+00 -0.62629299960E+02  0.62629299960E+02  0.00000000000E+00 0. -1.
      99926    2    1    2    0    0  0.00000000000E+00  0.71054273576E-14  0.75406535999E+03  0.87932395991E+03  0.45232295911E+03 0.  0.
      99925    2    3    3    0    0 -0.71220425944E+02 -0.59841806076E+02  0.59199964364E+03  0.65445467490E+03  0.26304743413E+03 0.  0.
         25    1    4    4    0    0 -0.14997249592E+02  0.25019361964E+01  0.22785539430E+03  0.26037812119E+03  0.12509000000E+03 0.  0.
         25    1    3    3    0    0  0.71220425944E+02  0.59841806076E+02  0.16206571635E+03  0.22486928502E+03  0.12509000000E+03 0.  0.
         25    1    4    4    0    0 -0.56223176352E+02 -0.62343742272E+02  0.36414424934E+03  0.39407655371E+03  0.12509000000E+03 0.  0.
<mgrwt>
<rscale>  2 0.45232296E+03</rscale>
<asrwt>0</asrwt>
<pdfrwt beam="1">  1       21 0.12010215E+00 0.45232296E+03</pdfrwt>
<pdfrwt beam="2">  1       21 0.92101916E-02 0.45232296E+03</pdfrwt>
<totfact> 0.45077466E+04</totfact>
</mgrwt>
</event>
<event>
 7    0  0.4779893E-002  0.4478224E+03  0.7546771E-02  0.1028373E+00
         21   -1    0    0  502  501  0.00000000000E+00  0.00000000000E+00  0.12182849582E+03  0.12182849582E+03  0.00000000000E+00 0. -1.
         21   -1    0    0  501  502 -0.00000000000E+00 -0.00000000000E+00 -0.41153119360E+03  0.41153119360E+03  0.00000000000E+00 0. -1.
      99926    2    1    2    0    0  0.00000000000E+00  0.00000000000E+00 -0.28970269779E+03  0.53335968942E+03  0.44782240363E+03 0.  0.
      99925    2    3    3    0    0 -0.38784015900E+02 -0.35140858565E+02 -0.73060471975E+02  0.27778104803E+03  0.26284101325E+03 0.  0.
         25    1    4    4    0    0 -0.15191421914E+02 -0.12725464974E+02  0.50640637401E+01  0.12675121143E+03  0.12509000000E+03 0.  0.
         25    1    3    3    0    0  0.38784015900E+02  0.35140858565E+02 -0.21664222581E+03  0.25557864139E+03  0.12509000000E+03 0.  0.
         25    1    4    4    0    0 -0.23592593986E+02 -0.22415393592E+02 -0.78124535715E+02  0.15102983659E+03  0.12509000000E+03 0.  0.
<mgrwt>
<rscale>  2 0.44782240E+03</rscale>
<asrwt>0</asrwt>
<pdfrwt beam="1">  1       21 0.17915955E-01 0.44782240E+03</pdfrwt>
<pdfrwt beam="2">  1       21 0.60519293E-01 0.44782240E+03</pdfrwt>
<totfact> 0.66688393E+04</totfact>
</mgrwt>
</event>
<event>
 7    0  0.4779893E-002  0.4501201E+03  0.7546771E-02  0.1027686E+00
         21   -1    0    0  502  501  0.00000000000E+00  0.00000000000E+00  0.61399944817E+03  0.61399944817E+03  0.00000000000E+00 0. -1.
         21   -1    0    0  501  502 -0.00000000000E+00 -0.00000000000E+00 -0.82495239992E+02  0.82495239992E+02  0.00000000000E+00 0. -1.
      99926    2    1    2    0    0  0.00000000000E+00  0.00000000000E+00  0.53150420818E+03  0.69649468816E+03  0.45012012544E+03 0.  0.
      99925    2    3    3    0    0  0.55602999742E+02 -0.71711465391E+02  0.42786637140E+03  0.51042336538E+03  0.26311243282E+03 0.  0.
         25    1    3    3    0    0 -0.55602999742E+02  0.71711465391E+02  0.10363783678E+03  0.18607132278E+03  0.12509000000E+03 0.  0.
         25    1    4    4    0    0  0.35518632490E+02 -0.77589522115E+02  0.23846520153E+03  0.28247985351E+03  0.12509000000E+03 0.  0.
         25    1    4    4    0    0  0.20084367251E+02  0.58780567242E+01  0.18940116987E+03  0.22794351187E+03  0.12509000000E+03 0.  0.
<mgrwt>
<rscale>  2 0.45012013E+03</rscale>
<asrwt>0</asrwt>
<pdfrwt beam="1">  1       21 0.90294034E-01 0.45012013E+03</pdfrwt>
<pdfrwt beam="2">  1       21 0.12131653E-01 0.45012013E+03</pdfrwt>
<totfact> 0.55182753E+04</totfact>
</mgrwt>
</event>
<event>
 7    0  0.4779893E-002  0.4484062E+03  0.7546771E-02  0.1028198E+00
         21   -1    0    0  502  501  0.00000000000E+00  0.00000000000E+00  0.31743823378E+02  0.31743823378E+02  0.00000000000E+00 0. -1.
         21   -1    0    0  501  502 -0.00000000000E+00 -0.00000000000E+00 -0.15835212680E+04  0.15835212680E+04  0.00000000000E+00 0. -1.
      99926    2    1    2    0    0  0.00000000000E+00  0.00000000000E+00 -0.15517774446E+04  0.16152650914E+04  0.44840615271E+03 0.  0.
      99925    2    3    3    0    0  0.19503923548E+02 -0.66614417386E+02 -0.68776697466E+03  0.73949144257E+03  0.26269049958E+03 0.  0.
         25    1    4    4    0    0  0.12114046362E+02 -0.17912554256E+02 -0.43566176490E+03  0.45378000310E+03  0.12509000000E+03 0.  0.
         25    1    3    3    0    0 -0.19503923548E+02  0.66614417386E+02 -0.86401046998E+03  0.87577364882E+03  0.12509000000E+03 0.  0.
         25    1    4    4    0    0  0.73898771866E+01 -0.48701863131E+02 -0.25210520976E+03  0.28571143947E+03  0.12509000000E+03 0.  0.
<mgrwt>
<rscale>  2 0.44840615E+03</rscale>
<asrwt>0</asrwt>
<pdfrwt beam="1">  1       21 0.46682101E-02 0.44840615E+03</pdfrwt>
<pdfrwt beam="2">  1       21 0.23287073E+00 0.44840615E+03</pdfrwt>
<totfact> 0.22202211E+04</totfact>
</mgrwt>
</event>
<event>
 7    0  0.4779893E-002  0.4730324E+03  0.7546771E-02  0.1021068E+00
         21   -1    0    0  502  501  0.00000000000E+00  0.00000000000E+00  0.10688684967E+03  0.10688684967E+03  0.00000000000E+00 0.  1.
         21   -1    0    0  501  502 -0.00000000000E+00 -0.00000000000E+00 -0.52335633991E+03  0.52335633991E+03  0.00000000000E+00 0.  1.
      99926    2    1    2    0    0  0.28421709430E-13  0.00000000000E+00 -0.41646949024E+03  0.63024318958E+03  0.47303238971E+03 0.  0.
      99925    2    3    3    0    0 -0.12805769158E+03 -0.10271922236E+02 -0.23767800940E+03  0.37702749797E+03  0.26297264746E+03 0.  0.
         25    1    3    3    0    0  0.12805769158E+03  0.10271922236E+02 -0.17879148085E+03  0.25321569162E+03  0.12509000000E+03 0.  0.
         25    1    4    4    0    0 -0.89085770671E+02  0.19654291358E+02 -0.98212732772E+02  0.18334616081E+03  0.12509000000E+03 0.  0.
         25    1    4    4    0    0 -0.38971920906E+02 -0.29926213594E+02 -0.13946527662E+03  0.19368133716E+03  0.12509000000E+03 0.  0.
<mgrwt>
<rscale>  2 0.47303239E+03</rscale>
<asrwt>0</asrwt>
<pdfrwt beam="1">  1       21 0.15718654E-01 0.47303239E+03</pdfrwt>
<pdfrwt beam="2">  1       21 0.76964167E-01 0.47303239E+03</pdfrwt>
<totfact> 0.49431911E+04</totfact>
</mgrwt>
</event>
<event>
 7    0  0.4779893E-002  0.4540427E+03  0.7546771E-02  0.1026523E+00
         21   -1    0    0  502  501  0.00000000000E+00  0.00000000000E+00  0.75449862225E+02  0.75449862225E+02  0.00000000000E+00 0.  1.
         21   -1    0    0  501  502 -0.00000000000E+00 -0.00000000000E+00 -0.68308529965E+03  0.68308529965E+03  0.00000000000E+00 0.  1.
      99926    2    1    2    0    0  0.00000000000E+00  0.44408920985E-15 -0.60763543743E+03  0.75853516188E+03  0.45404269291E+03 0.  0.
      99925    2    3    3    0    0 -0.89013116896E+02 -0.83601404410E+00 -0.49704802919E+03  0.56932333122E+03  0.26296060209E+03 0.  0.
         25    1    4    4    0    0 -0.55009928751E+02  0.41694498949E+01 -0.17459099766E+03  0.22174986164E+03  0.12509000000E+03 0.  0.
         25    1    4    4    0    0 -0.34003188145E+02 -0.50054639390E+01 -0.32245703153E+03  0.34757346959E+03  0.12509000000E+03 0.  0.
         25    1    3    3    0    0  0.89013116896E+02  0.83601404410E+00 -0.11058740824E+03  0.18921183065E+03  0.12509000000E+03 0.  0.
<mgrwt>
<rscale>  2 0.45404269E+03</rscale>
<asrwt>0</asrwt>
<pdfrwt beam="1">  1       21 0.11095568E-01 0.45404269E+03</pdfrwt>
<pdfrwt beam="2">  1       21 0.10045372E+00 0.45404269E+03</pdfrwt>
<totfact> 0.50211594E+04</totfact>
</mgrwt>
</event>
<event>
 7    0  0.4779893E-002  0.4645290E+03  0.7546771E-02  0.1023476E+00
         21   -1    0    0  502  501  0.00000000000E+00  0.00000000000E+00  0.56287557298E+02  0.56287557298E+02  0.00000000000E+00 0.  1.
         21   -1    0    0  501  502 -0.00000000000E+00 -0.00000000000E+00 -0.95841438964E+03  0.95841438964E+03  0.00000000000E+00 0.  1.
      99926    2    1    2    0    0 -0.71054273576E-14  0.00000000000E+00 -0.90212683235E+03  0.10147019469E+04  0.46452902976E+03 0.  0.
      99925    2    3    3    0    0  0.36998748258E+02 -0.74165605638E+02 -0.75820380856E+03  0.80678179566E+03  0.26297225341E+03 0.  0.
         25    1    4    4    0    0  0.53238461557E+02 -0.17173442937E+02 -0.39532334506E+03  0.41839851359E+03  0.12509000000E+03 0.  0.
         25    1    4    4    0    0 -0.16239713298E+02 -0.56992162702E+02 -0.36288046351E+03  0.38838328207E+03  0.12509000000E+03 0.  0.
         25    1    3    3    0    0 -0.36998748258E+02  0.74165605638E+02 -0.14392302378E+03  0.20792015128E+03  0.12509000000E+03 0.  0.
<mgrwt>
<rscale>  2 0.46452903E+03</rscale>
<asrwt>0</asrwt>
<pdfrwt beam="1">  1       21 0.82775820E-02 0.46452903E+03</pdfrwt>
<pdfrwt beam="2">  1       21 0.14094329E+00 0.46452903E+03</pdfrwt>
<totfact> 0.35856560E+04</totfact>
</mgrwt>
</event>
<event>
 7    0  0.4779893E-002  0.4566795E+03  0.7546771E-02  0.1025749E+00
         21   -1    0    0  502  501  0.00000000000E+00  0.00000000000E+00  0.56831633190E+03  0.56831633190E+03  0.00000000000E+00 0. -1.
         21   -1    0    0  501  502 -0.00000000000E+00 -0.00000000000E+00 -0.91742996955E+02  0.91742996955E+02  0.00000000000E+00 0. -1.
      99926    2    1    2    0    0  0.00000000000E+00 -0.71054273576E-14  0.47657333495E+03  0.66005932886E+03  0.45667950910E+03 0.  0.
      99925    2    3    3    0    0 -0.71376601306E+02  0.45916187383E+02  0.18765625048E+03  0.33398647615E+03  0.26292429030E+03 0.  0.
         25    1    4    4    0    0 -0.25462952612E+02  0.31888383759E+02  0.46981095389E+02  0.13971385901E+03  0.12509000000E+03 0.  0.
         25    1    4    4    0    0 -0.45913648694E+02  0.14027803625E+02  0.14067515510E+03  0.19427261714E+03  0.12509000000E+03 0.  0.
         25    1    3    3    0    0  0.71376601306E+02 -0.45916187383E+02  0.28891708446E+03  0.32607285271E+03  0.12509000000E+03 0.  0.
<mgrwt>
<rscale>  2 0.45667951E+03</rscale>
<asrwt>0</asrwt>
<pdfrwt beam="1">  1       21 0.83575929E-01 0.45667951E+03</pdfrwt>
<pdfrwt beam="2">  1       21 0.13491617E-01 0.45667951E+03</pdfrwt>
<totfact> 0.54401159E+04</totfact>
</mgrwt>
</event>
<event>
 6    0  0.4779893E-002  0.4562974E+03  0.7546771E-02  0.1025861E+00
         21   -1    0    0  502  501  0.00000000000E+00  0.00000000000E+00  0.75181479850E+02  0.75181479850E+02  0.00000000000E+00 0.  1.
         21   -1    0    0  501  502 -0.00000000000E+00 -0.00000000000E+00 -0.69234911792E+03  0.69234911792E+03  0.00000000000E+00 0.  1.
      99926    2    1    2    0    0 -0.71054273576E-14  0.00000000000E+00 -0.61716763807E+03  0.76753059777E+03  0.45629740853E+03 0.  0.
         25    1    3    3    0    0 -0.54076026535E+01 -0.55193037971E+02 -0.12292098504E+03  0.18393637560E+03  0.12509000000E+03 0.  0.
         25    1    3    3    0    0  0.61255097849E+02  0.91627334673E+02 -0.29863375708E+03  0.34201956733E+03  0.12509000000E+03 0.  0.
         25    1    3    3    0    0 -0.55847495195E+02 -0.36434296702E+02 -0.19561289595E+03  0.24157465484E+03  0.12509000000E+03 0.  0.
<mgrwt>
<rscale>  2 0.45629741E+03</rscale>
<asrwt>0</asrwt>
<pdfrwt beam="1">  1       21 0.11056099E-01 0.45629741E+03</pdfrwt>
<pdfrwt beam="2">  1       21 0.10181605E+00 0.45629741E+03</pdfrwt>
<totfact> 0.48875586E+04</totfact>
</mgrwt>
</event>
<event>
 7    0  0.4779893E-002  0.4551263E+03  0.7546771E-02  0.1026204E+00
         21   -1    0    0  502  501  0.00000000000E+00  0.00000000000E+00  0.27890672661E+03  0.27890672661E+03  0.00000000000E+00 0. -1.
         21   -1    0    0  501  502 -0.00000000000E+00 -0.00000000000E+00 -0.18567136729E+03  0.18567136729E+03  0.00000000000E+00 0. -1.
      99926    2    1    2    0    0  0.00000000000E+00  0.00000000000E+00  0.93235359321E+02  0.46457809391E+03  0.45512632654E+03 0.  0.
      99925    2    3    3    0    0  0.76991769244E+02  0.71691252606E+02  0.10157074981E+03  0.30091882877E+03  0.26299839554E+03 0.  0.
         25    1    4    4    0    0  0.25185228887E+02  0.58241081317E+02  0.18433891542E+02  0.14146955773E+03  0.12509000000E+03 0.  0.
         25    1    4    4    0    0  0.51806540356E+02  0.13450171289E+02  0.83136858268E+02  0.15944927104E+03  0.12509000000E+03 0.  0.
         25    1    3    3    0    0 -0.76991769244E+02 -0.71691252606E+02 -0.83353904891E+01  0.16365926514E+03  0.12509000000E+03 0.  0.
<mgrwt>
<rscale>  2 0.45512633E+03</rscale>
<asrwt>0</asrwt>
<pdfrwt beam="1">  1       21 0.41015695E-01 0.45512633E+03</pdfrwt>
<pdfrwt beam="2">  1       21 0.27304613E-01 0.45512633E+03</pdfrwt>
<totfact> 0.67773517E+04</totfact>
</mgrwt>
</event>
<event>
 7    0  0.4779893E-002  0.4523720E+03  0.7546771E-02  0.1027017E+00
         21   -1    0    0  502  501  0.00000000000E+00  0.00000000000E+00  0.32210351411E+03  0.32210351411E+03  0.00000000000E+00 0.  1.
         21   -1    0    0  501  502 -0.00000000000E+00 -0.00000000000E+00 -0.15883126518E+03  0.15883126518E+03  0.00000000000E+00 0.  1.
      99926    2    1    2    0    0  0.88817841970E-15 -0.14210854715E-13  0.16327224894E+03  0.48093477929E+03  0.45237200915E+03 0.  0.
      99925    2    3    3    0    0 -0.15464579421E+01 -0.85703088890E+02  0.17735711420E+03  0.32864130436E+03  0.26306301526E+03 0.  0.
         25    1    4    4    0    0  0.17522101616E+02 -0.73239563643E+02  0.68580679118E+02  0.16131297337E+03  0.12509000000E+03 0.  0.
         25    1    4    4    0    0 -0.19068559558E+02 -0.12463525247E+02  0.10877643508E+03  0.16732833099E+03  0.12509000000E+03 0.  0.
         25    1    3    3    0    0  0.15464579421E+01  0.85703088890E+02 -0.14084865257E+02  0.15229347493E+03  0.12509000000E+03 0.  0.
<mgrwt>
<rscale>  2 0.45237201E+03</rscale>
<asrwt>0</asrwt>
<pdfrwt beam="1">  1       21 0.47368164E-01 0.45237201E+03</pdfrwt>
<pdfrwt beam="2">  1       21 0.23357539E-01 0.45237201E+03</pdfrwt>
<totfact> 0.68040465E+04</totfact>
</mgrwt>
</event>
<event>
 7    0  0.4779893E-002  0.4548855E+03  0.7546771E-02  0.1026275E+00
         21   -1    0    0  502  501  0.00000000000E+00  0.00000000000E+00  0.41450604275E+02  0.41450604275E+02  0.00000000000E+00 0.  1.
         21   -1    0    0  501  502 -0.00000000000E+00 -0.00000000000E+00 -0.12479964431E+04  0.12479964431E+04  0.00000000000E+00 0.  1.
      99926    2    1    2    0    0  0.00000000000E+00  0.00000000000E+00 -0.12065458388E+04  0.12894470474E+04  0.45488550955E+03 0.  0.
      99925    2    3    3    0    0 -0.95701056193E+02 -0.50240108076E+02 -0.66565206014E+03  0.72385324566E+03  0.26303630067E+03 0.  0.
         25    1    4    4    0    0 -0.52686082643E+02 -0.46797031938E+02 -0.25793935955E+03  0.29520502504E+03  0.12509000000E+03 0.  0.
         25    1    4    4    0    0 -0.43014973549E+02 -0.34430761380E+01 -0.40771270059E+03  0.42864822063E+03  0.12509000000E+03 0.  0.
         25    1    3    3    0    0  0.95701056193E+02  0.50240108076E+02 -0.54089377871E+03  0.56559380174E+03  0.12509000000E+03 0.  0.
<mgrwt>
<rscale>  2 0.45488551E+03</rscale>
<asrwt>0</asrwt>
<pdfrwt beam="1">  1       21 0.60956773E-02 0.45488551E+03</pdfrwt>
<pdfrwt beam="2">  1       21 0.18352888E+00 0.45488551E+03</pdfrwt>
<totfact> 0.29448981E+04</totfact>
</mgrwt>
</event>
<event>
 7    0  0.4779893E-002  0.4457267E+03  0.7546771E-02  0.1029004E+00
         21   -1    0    0  502  501  0.00000000000E+00  0.00000000000E+00  0.21675913664E+03  0.21675913664E+03  0.00000000000E+00 0. -1.
         21   -1    0    0  501  502 -0.00000000000E+00 -0.00000000000E+00 -0.22913948240E+03  0.22913948240E+03  0.00000000000E+00 0. -1.
      99926    2    1    2    0    0  0.00000000000E+00  0.00000000000E+00 -0.12380345765E+02  0.44589861904E+03  0.44572671616E+03 0.  0.
      99925    2    3    3    0    0  0.41481927818E+02 -0.91434798730E+02  0.20843415178E+02  0.28209263885E+03  0.26279409465E+03 0.  0.
         25    1    4    4    0    0  0.96708419148E+01 -0.26386630742E+02 -0.24669811983E+02  0.13055989885E+03  0.12509000000E+03 0.  0.
         25    1    3    3    0    0 -0.41481927818E+02  0.91434798730E+02 -0.33223760943E+02  0.16380598019E+03  0.12509000000E+03 0.  0.
         25    1    4    4    0    0  0.31811085903E+02 -0.65048167987E+02  0.45513227161E+02  0.15153274000E+03  0.12509000000E+03 0.  0.
<mgrwt>
<rscale>  2 0.44572672E+03</rscale>
<asrwt>0</asrwt>
<pdfrwt beam="1">  1       21 0.31876344E-01 0.44572672E+03</pdfrwt>
<pdfrwt beam="2">  1       21 0.33696982E-01 0.44572672E+03</pdfrwt>
<totfact> 0.74585527E+04</totfact>
</mgrwt>
</event>
<event>
 7    0  0.4779893E-002  0.4514125E+03  0.7546771E-02  0.1027302E+00
         21   -1    0    0  502  501  0.00000000000E+00  0.00000000000E+00  0.76341714462E+02  0.76341714462E+02  0.00000000000E+00 0.  1.
         21   -1    0    0  501  502 -0.00000000000E+00 -0.00000000000E+00 -0.66730629646E+03  0.66730629646E+03  0.00000000000E+00 0.  1.
      99926    2    1    2    0    0  0.00000000000E+00  0.00000000000E+00 -0.59096458200E+03  0.74364801092E+03  0.45141247986E+03 0.  0.
      99925    2    3    3    0    0 -0.91216333553E+02  0.59475994836E+02 -0.39485783018E+03  0.48681503080E+03  0.26309381348E+03 0.  0.
         25    1    4    4    0    0 -0.26678459737E+02  0.65438672871E+02 -0.19061793503E+03  0.23869785373E+03  0.12509000000E+03 0.  0.
         25    1    4    4    0    0 -0.64537873817E+02 -0.59626780345E+01 -0.20423989515E+03  0.24811717707E+03  0.12509000000E+03 0.  0.
         25    1    3    3    0    0  0.91216333553E+02 -0.59475994836E+02 -0.19610675182E+03  0.25683298012E+03  0.12509000000E+03 0.  0.
<mgrwt>
<rscale>  2 0.45141248E+03</rscale>
<asrwt>0</asrwt>
<pdfrwt beam="1">  1       21 0.11226723E-01 0.45141248E+03</pdfrwt>
<pdfrwt beam="2">  1       21 0.98133276E-01 0.45141248E+03</pdfrwt>
<totfact> 0.52048730E+04</totfact>
</mgrwt>
</event>
<event>
 7    0  0.4779893E-002  0.4521174E+03  0.7546771E-02  0.1027092E+00
         21   -1    0    0  502  501  0.00000000000E+00  0.00000000000E+00  0.55083090677E+03  0.55083090677E+03  0.00000000000E+00 0. -1.
         21   -1    0    0  501  502 -0.00000000000E+00 -0.00000000000E+00 -0.92773556222E+02  0.92773556222E+02  0.00000000000E+00 0. -1.
      99926    2    1    2    0    0  0.00000000000E+00  0.00000000000E+00  0.45805735055E+03  0.64360446299E+03  0.45211742766E+03 0.  0.
      99925    2    3    3    0    0  0.94291085908E+01  0.85800198138E+02  0.19154654849E+03  0.33680469473E+03  0.26324273982E+03 0.  0.
         25    1    4    4    0    0 -0.27797190854E+02  0.63776027085E+02  0.81752797374E+02  0.16483656581E+03  0.12509000000E+03 0.  0.
         25    1    4    4    0    0  0.37226299444E+02  0.22024171053E+02  0.10979375111E+03  0.17196812892E+03  0.12509000000E+03 0.  0.
         25    1    3    3    0    0 -0.94291085908E+01 -0.85800198138E+02  0.26651080206E+03  0.30679976826E+03  0.12509000000E+03 0.  0.
<mgrwt>
<rscale>  2 0.45211743E+03</rscale>
<asrwt>0</asrwt>
<pdfrwt beam="1">  1       21 0.81004543E-01 0.45211743E+03</pdfrwt>
<pdfrwt beam="2">  1       21 0.13643170E-01 0.45211743E+03</pdfrwt>
<totfact> 0.57365108E+04</totfact>
</mgrwt>
</event>
<event>
 7    0  0.4779893E-002  0.4634062E+03  0.7546771E-02  0.1023798E+00
         21   -1    0    0  502  501  0.00000000000E+00  0.00000000000E+00  0.39091612103E+03  0.39091612103E+03  0.00000000000E+00 0. -1.
         21   -1    0    0  501  502 -0.00000000000E+00 -0.00000000000E+00 -0.13733465331E+03  0.13733465331E+03  0.00000000000E+00 0. -1.
      99926    2    1    2    0    0  0.00000000000E+00 -0.14210854715E-13  0.25358146771E+03  0.52825077434E+03  0.46340621470E+03 0.  0.
      99925    2    3    3    0    0 -0.74200432458E+02  0.80835093028E+02  0.21713479886E+03  0.35791027941E+03  0.26251139174E+03 0.  0.
         25    1    4    4    0    0 -0.32447192523E+02  0.30246055845E+01  0.12135041183E+03  0.17730030765E+03  0.12509000000E+03 0.  0.
         25    1    4    4    0    0 -0.41753239935E+02  0.77810487444E+02  0.95784387029E+02  0.18060997176E+03  0.12509000000E+03 0.  0.
         25    1    3    3    0    0  0.74200432458E+02 -0.80835093028E+02  0.36446668852E+02  0.17034049493E+03  0.12509000000E+03 0.  0.
<mgrwt>
<rscale>  2 0.46340621E+03</rscale>
<asrwt>0</asrwt>
<pdfrwt beam="1">  1       21 0.57487665E-01 0.46340621E+03</pdfrwt>
<pdfrwt beam="2">  1       21 0.20196273E-01 0.46340621E+03</pdfrwt>
<totfact> 0.59275286E+04</totfact>
</mgrwt>
</event>
<event>
 7    0  0.4779893E-002  0.4566801E+03  0.7546771E-02  0.1025748E+00
         21   -1    0    0  502  501  0.00000000000E+00  0.00000000000E+00  0.93772135717E+02  0.93772135717E+02  0.00000000000E+00 0. -1.
         21   -1    0    0  501  502 -0.00000000000E+00 -0.00000000000E+00 -0.55602006945E+03  0.55602006945E+03  0.00000000000E+00 0. -1.
      99926    2    1    2    0    0  0.00000000000E+00  0.14210854715E-13 -0.46224793373E+03  0.64979220517E+03  0.45668014809E+03 0.  0.
      99925    2    3    3    0    0  0.86993288488E+02  0.74604237156E+02 -0.28183204286E+03  0.40214118816E+03  0.26297264191E+03 0.  0.
         25    1    4    4    0    0  0.98275493493E+01  0.87742945766E+01 -0.12061770777E+03  0.17426906926E+03  0.12509000000E+03 0.  0.
         25    1    3    3    0    0 -0.86993288488E+02 -0.74604237156E+02 -0.18041589088E+03  0.24765101701E+03  0.12509000000E+03 0.  0.
         25    1    4    4    0    0  0.77165739139E+02  0.65829942579E+02 -0.16121433509E+03  0.22787211890E+03  0.12509000000E+03 0.  0.
<mgrwt>
<rscale>  2 0.45668015E+03</rscale>
<asrwt>0</asrwt>
<pdfrwt beam="1">  1       21 0.13790020E-01 0.45668015E+03</pdfrwt>
<pdfrwt beam="2">  1       21 0.81767655E-01 0.45668015E+03</pdfrwt>
<totfact> 0.54981063E+04</totfact>
</mgrwt>
</event>
<event>
 7    0  0.4779893E-002  0.4509524E+03  0.7546771E-02  0.1027438E+00
         21   -1    0    0  502  501  0.00000000000E+00  0.00000000000E+00  0.34014967167E+03  0.34014967167E+03  0.00000000000E+00 0. -1.
         21   -1    0    0  501  502 -0.00000000000E+00 -0.00000000000E+00 -0.14946222086E+03  0.14946222086E+03  0.00000000000E+00 0. -1.
      99926    2    1    2    0    0  0.00000000000E+00  0.00000000000E+00  0.19068745082E+03  0.48961189253E+03  0.45095243808E+03 0.  0.
      99925    2    3    3    0    0 -0.96027079376E+02 -0.50436133929E+02  0.13502153801E+03  0.31493732218E+03  0.26303934610E+03 0.  0.
         25    1    4    4    0    0 -0.51146106889E+02 -0.46421589462E+02  0.10835817001E+03  0.17933178560E+03  0.12509000000E+03 0.  0.
         25    1    4    4    0    0 -0.44880972486E+02 -0.40145444668E+01  0.26663368005E+02  0.13560553658E+03  0.12509000000E+03 0.  0.
         25    1    3    3    0    0  0.96027079376E+02  0.50436133929E+02  0.55665912803E+02  0.17467457035E+03  0.12509000000E+03 0.  0.
<mgrwt>
<rscale>  2 0.45095244E+03</rscale>
<asrwt>0</asrwt>
<pdfrwt beam="1">  1       21 0.50022011E-01 0.45095244E+03</pdfrwt>
<pdfrwt beam="2">  1       21 0.21979738E-01 0.45095244E+03</pdfrwt>
<totfact> 0.68171097E+04</totfact>
</mgrwt>
</event>
<event>
 7    0  0.4779893E-002  0.4584219E+03  0.7546771E-02  0.1025240E+00
         21   -1    0    0  502  501  0.00000000000E+00  0.00000000000E+00  0.77561114281E+02  0.77561114281E+02  0.00000000000E+00 0. -1.
         21   -1    0    0  501  502 -0.00000000000E+00 -0.00000000000E+00 -0.67737110609E+03  0.67737110609E+03  0.00000000000E+00 0. -1.
      99926    2    1    2    0    0  0.00000000000E+00  0.00000000000E+00 -0.59980999181E+03  0.75493222037E+03  0.45842189202E+03 0.  0.
      99925    2    3    3    0    0  0.10637747709E+03  0.15876914933E+02 -0.30298233145E+03  0.41534068321E+03  0.26294742040E+03 0.  0.
         25    1    4    4    0    0  0.35435884836E+02 -0.24558448206E+02 -0.11557683141E+03  0.17568247315E+03  0.12509000000E+03 0.  0.
         25    1    4    4    0    0  0.70941592253E+02  0.40435363139E+02 -0.18740550004E+03  0.23965821006E+03  0.12509000000E+03 0.  0.
         25    1    3    3    0    0 -0.10637747709E+03 -0.15876914933E+02 -0.29682766036E+03  0.33959153716E+03  0.12509000000E+03 0.  0.
<mgrwt>
<rscale>  2 0.45842189E+03</rscale>
<asrwt>0</asrwt>
<pdfrwt beam="1">  1       21 0.11406046E-01 0.45842189E+03</pdfrwt>
<pdfrwt beam="2">  1       21 0.99613400E-01 0.45842189E+03</pdfrwt>
<totfact> 0.48697149E+04</totfact>
</mgrwt>
</event>
<event>
 7    0  0.4779893E-002  0.4555834E+03  0.7546771E-02  0.1026070E+00
         21   -1    0    0  502  501  0.00000000000E+00  0.00000000000E+00  0.22890063280E+04  0.22890063280E+04  0.00000000000E+00 0.  1.
         21   -1    0    0  501  502 -0.00000000000E+00 -0.00000000000E+00 -0.22668810310E+02  0.22668810310E+02  0.00000000000E+00 0.  1.
      99926    2    1    2    0    0 -0.71054273576E-14  0.00000000000E+00  0.22663375177E+04  0.23116751383E+04  0.45558336338E+03 0.  0.
      99925    2    3    3    0    0  0.54953195728E+02 -0.42685941986E+02  0.18782877579E+04  0.18980665461E+04  0.26429106806E+03 0.  0.
         25    1    3    3    0    0 -0.54953195728E+02  0.42685941986E+02  0.38804975987E+03  0.41360859227E+03  0.12509000000E+03 0.  0.
         25    1    4    4    0    0  0.54009972664E+02 -0.31826946212E+02  0.76206034148E+03  0.77479900865E+03  0.12509000000E+03 0.  0.
         25    1    4    4    0    0  0.94322306423E+00 -0.10858995774E+02  0.11162274164E+04  0.11232675374E+04  0.12509000000E+03 0.  0.
<mgrwt>
<rscale>  2 0.45558336E+03</rscale>
<asrwt>0</asrwt>
<pdfrwt beam="1">  1       21 0.33661842E+00 0.45558336E+03</pdfrwt>
<pdfrwt beam="2">  1       21 0.33336501E-02 0.45558336E+03</pdfrwt>
<totfact> 0.92141505E+03</totfact>
</mgrwt>
</event>
<event>
 7    0  0.4779893E-002  0.4624927E+03  0.7546771E-02  0.1024061E+00
         21   -1    0    0  502  501  0.00000000000E+00  0.00000000000E+00  0.88405170494E+03  0.88405170494E+03  0.00000000000E+00 0. -1.
         21   -1    0    0  501  502 -0.00000000000E+00 -0.00000000000E+00 -0.60488412306E+02  0.60488412306E+02  0.00000000000E+00 0. -1.
      99926    2    1    2    0    0  0.00000000000E+00  0.00000000000E+00  0.82356329263E+03  0.94454011724E+03  0.46249274168E+03 0.  0.
      99925    2    3    3    0    0  0.55967238236E+02  0.10374192474E+03  0.46951188841E+03  0.55097357441E+03  0.26312686605E+03 0.  0.
         25    1    3    3    0    0 -0.55967238236E+02 -0.10374192474E+03  0.35405140422E+03  0.39356654283E+03  0.12509000000E+03 0.  0.
         25    1    4    4    0    0  0.11988513558E+02  0.40165078481E+02  0.29232467792E+03  0.32071511253E+03  0.12509000000E+03 0.  0.
         25    1    4    4    0    0  0.43978724677E+02  0.63576846262E+02  0.17718721049E+03  0.23025846188E+03  0.12509000000E+03 0.  0.
<mgrwt>
<rscale>  2 0.46249274E+03</rscale>
<asrwt>0</asrwt>
<pdfrwt beam="1">  1       21 0.13000760E+00 0.46249274E+03</pdfrwt>
<pdfrwt beam="2">  1       21 0.88953553E-02 0.46249274E+03</pdfrwt>
<totfact> 0.39025265E+04</totfact>
</mgrwt>
</event>
<event>
 7    0  0.4779893E-002  0.4714422E+03  0.7546771E-02  0.1021514E+00
         21   -1    0    0  502  501  0.00000000000E+00  0.00000000000E+00  0.11478901360E+03  0.11478901360E+03  0.00000000000E+00 0.  1.
         21   -1    0    0  501  502 -0.00000000000E+00 -0.00000000000E+00 -0.48405710952E+03  0.48405710952E+03  0.00000000000E+00 0.  1.
      99926    2    1    2    0    0  0.00000000000E+00 -0.14210854715E-13 -0.36926809592E+03  0.59884612313E+03  0.47144220486E+03 0.  0.
      99925    2    3    3    0    0  0.10134419677E+03  0.76764477533E+02 -0.20948318749E+03  0.35938390003E+03  0.26288809507E+03 0.  0.
         25    1    4    4    0    0  0.53111632927E+02  0.35535123166E+02 -0.55338884016E+02  0.15097513277E+03  0.12509000000E+03 0.  0.
         25    1    3    3    0    0 -0.10134419677E+03 -0.76764477533E+02 -0.15978490843E+03  0.23946222310E+03  0.12509000000E+03 0.  0.
         25    1    4    4    0    0  0.48232563844E+02  0.41229354367E+02 -0.15414430348E+03  0.20840876726E+03  0.12509000000E+03 0.  0.
<mgrwt>
<rscale>  2 0.47144220E+03</rscale>
<asrwt>0</asrwt>
<pdfrwt beam="1">  1       21 0.16880738E-01 0.47144220E+03</pdfrwt>
<pdfrwt beam="2">  1       21 0.71184868E-01 0.47144220E+03</pdfrwt>
<totfact> 0.51697693E+04</totfact>
</mgrwt>
</event>
<event>
 7    0  0.4779893E-002  0.4575404E+03  0.7546771E-02  0.1025497E+00
         21   -1    0    0  502  501  0.00000000000E+00  0.00000000000E+00  0.24747540218E+02  0.24747540218E+02  0.00000000000E+00 0.  1.
         21   -1    0    0  501  502 -0.00000000000E+00 -0.00000000000E+00 -0.21147880506E+04  0.21147880506E+04  0.00000000000E+00 0.  1.
      99926    2    1    2    0    0 -0.35527136788E-14  0.00000000000E+00 -0.20900405104E+04  0.21395355908E+04  0.45754039094E+03 0.  0.
      99925    2    3    3    0    0 -0.29265134049E+02 -0.11176414614E+03 -0.12995395251E+04  0.13309028013E+04  0.26296695003E+03 0.  0.
         25    1    4    4    0    0  0.49000764400E+01 -0.38746281990E+02 -0.46115333146E+03  0.47941129350E+03  0.12509000000E+03 0.  0.
         25    1    3    3    0    0  0.29265134049E+02  0.11176414614E+03 -0.79050098524E+03  0.80863278947E+03  0.12509000000E+03 0.  0.
         25    1    4    4    0    0 -0.34165210489E+02 -0.73017864146E+02 -0.83838619366E+03  0.85149150784E+03  0.12509000000E+03 0.  0.
<mgrwt>
<rscale>  2 0.45754039E+03</rscale>
<asrwt>0</asrwt>
<pdfrwt beam="1">  1       21 0.36393444E-02 0.45754039E+03</pdfrwt>
<pdfrwt beam="2">  1       21 0.31099822E+00 0.45754039E+03</pdfrwt>
<totfact> 0.11337201E+04</totfact>
</mgrwt>
</event>
<event>
 7    0  0.4779893E-002  0.4525353E+03  0.7546771E-02  0.1026969E+00
         21   -1    0    0  502  501  0.00000000000E+00  0.00000000000E+00  0.17266897837E+03  0.17266897837E+03  0.00000000000E+00 0.  1.
         21   -1    0    0  501  502 -0.00000000000E+00 -0.00000000000E+00 -0.29650406302E+03  0.29650406302E+03  0.00000000000E+00 0.  1.
      99926    2    1    2    0    0  0.00000000000E+00  0.71054273576E-14 -0.12383508465E+03  0.46917304139E+03  0.45253531860E+03 0.  0.
      99925    2    3    3    0    0 -0.93389670138E+02  0.59232693950E+02 -0.86057236925E+02  0.29798654543E+03  0.26298287151E+03 0.  0.
         25    1    4    4    0    0 -0.43442972851E+02  0.48644209964E+02 -0.65563477092E+01  0.14122338634E+03  0.12509000000E+03 0.  0.
         25    1    4    4    0    0 -0.49946697288E+02  0.10588483986E+02 -0.79500889216E+02  0.15676315909E+03  0.12509000000E+03 0.  0.
         25    1    3    3    0    0  0.93389670138E+02 -0.59232693950E+02 -0.37777847728E+02  0.17118649596E+03  0.12509000000E+03 0.  0.
<mgrwt>
<rscale>  2 0.45253532E+03</rscale>
<asrwt>0</asrwt>
<pdfrwt beam="1">  1       21 0.25392497E-01 0.45253532E+03</pdfrwt>
<pdfrwt beam="2">  1       21 0.43603538E-01 0.45253532E+03</pdfrwt>
<totfact> 0.68833364E+04</totfact>
</mgrwt>
</event>
<event>
 7    0  0.4779893E-002  0.4450956E+03  0.7546771E-02  0.1029195E+00
         21   -1    0    0  502  501  0.00000000000E+00  0.00000000000E+00  0.22428012090E+03  0.22428012090E+03  0.00000000000E+00 0.  1.
         21   -1    0    0  501  502 -0.00000000000E+00 -0.00000000000E+00 -0.22082888336E+03  0.22082888336E+03  0.00000000000E+00 0.  1.
      99926    2    1    2    0    0  0.00000000000E+00  0.00000000000E+00  0.34512375428E+01  0.44510900426E+03  0.44509562415E+03 0.  0.
      99925    2    3    3    0    0  0.43554443429E+02  0.47778451572E+02 -0.78843392734E+02  0.28201490796E+03  0.26293793518E+03 0.  0.
         25    1    4    4    0    0  0.14590605891E+02 -0.11326919301E+02 -0.58082181165E+02  0.13914824020E+03  0.12509000000E+03 0.  0.
         25    1    4    4    0    0  0.28963837537E+02  0.59105370872E+02 -0.20761211570E+02  0.14286666776E+03  0.12509000000E+03 0.  0.
         25    1    3    3    0    0 -0.43554443429E+02 -0.47778451572E+02  0.82294630277E+02  0.16309409630E+03  0.12509000000E+03 0.  0.
<mgrwt>
<rscale>  2 0.44509562E+03</rscale>
<asrwt>0</asrwt>
<pdfrwt beam="1">  1       21 0.32982371E-01 0.44509562E+03</pdfrwt>
<pdfrwt beam="2">  1       21 0.32474836E-01 0.44509562E+03</pdfrwt>
<totfact> 0.75033156E+04</totfact>
</mgrwt>
</event>
<event>
 7    0  0.4779893E-002  0.4655817E+03  0.7546771E-02  0.1023175E+00
         21   -1    0    0  502  501  0.00000000000E+00  0.00000000000E+00  0.15780656791E+03  0.15780656791E+03  0.00000000000E+00 0.  1.
         21   -1    0    0  501  502 -0.00000000000E+00 -0.00000000000E+00 -0.34340512973E+03  0.34340512973E+03  0.00000000000E+00 0.  1.
      99926    2    1    2    0    0 -0.11102230246E-15  0.14210854715E-13 -0.18559856182E+03  0.50121169764E+03  0.46558172183E+03 0.  0.
      99925    2    3    3    0    0  0.99669021808E+00 -0.82922275834E+02 -0.21325521700E+03  0.34860273363E+03  0.26299996406E+03 0.  0.
         25    1    3    3    0    0 -0.99669021808E+00  0.82922275834E+02  0.27656655177E+02  0.15260896401E+03  0.12509000000E+03 0.  0.
         25    1    4    4    0    0 -0.26918351159E+02 -0.61965518350E+02 -0.82786713032E+02  0.16451586868E+03  0.12509000000E+03 0.  0.
         25    1    4    4    0    0  0.27915041377E+02 -0.20956757484E+02 -0.13046850397E+03  0.18408686495E+03  0.12509000000E+03 0.  0.
<mgrwt>
<rscale>  2 0.46558172E+03</rscale>
<asrwt>0</asrwt>
<pdfrwt beam="1">  1       21 0.23206849E-01 0.46558172E+03</pdfrwt>
<pdfrwt beam="2">  1       21 0.50500753E-01 0.46558172E+03</pdfrwt>
<totfact> 0.59986046E+04</totfact>
</mgrwt>
</event>
<event>
 7    0  0.4779893E-002  0.4576533E+03  0.7546771E-02  0.1025464E+00
         21   -1    0    0  502  501  0.00000000000E+00  0.00000000000E+00  0.15205303117E+03  0.15205303117E+03  0.00000000000E+00 0. -1.
         21   -1    0    0  501  502 -0.00000000000E+00 -0.00000000000E+00 -0.34436428119E+03  0.34436428119E+03  0.00000000000E+00 0. -1.
      99926    2    1    2    0    0 -0.14210854715E-13 -0.26645352591E-14 -0.19231125002E+03  0.49641731236E+03  0.45765328703E+03 0.  0.
      99925    2    3    3    0    0 -0.76744537469E+02  0.12263207711E+01 -0.26975137618E+02  0.27534093177E+03  0.26304703527E+03 0.  0.
         25    1    4    4    0    0 -0.20403124959E+02 -0.29227998898E+02 -0.34629194178E+02  0.13460034404E+03  0.12509000000E+03 0.  0.
         25    1    4    4    0    0 -0.56341412511E+02  0.30454319669E+02  0.76540565590E+01  0.14074058772E+03  0.12509000000E+03 0.  0.
         25    1    3    3    0    0  0.76744537469E+02 -0.12263207711E+01 -0.16533611240E+03  0.22107638060E+03  0.12509000000E+03 0.  0.
<mgrwt>
<rscale>  2 0.45765329E+03</rscale>
<asrwt>0</asrwt>
<pdfrwt beam="1">  1       21 0.22360740E-01 0.45765329E+03</pdfrwt>
<pdfrwt beam="2">  1       21 0.50641805E-01 0.45765329E+03</pdfrwt>
<totfact> 0.64160968E+04</totfact>
</mgrwt>
</event>
<event>
 7    0  0.4779893E-002  0.4531155E+03  0.7546771E-02  0.1026797E+00
         21   -1    0    0  502  501  0.00000000000E+00  0.00000000000E+00  0.65536482125E+03  0.65536482125E+03  0.00000000000E+00 0. -1.
         21   -1    0    0  501  502 -0.00000000000E+00 -0.00000000000E+00 -0.78320374298E+02  0.78320374298E+02  0.00000000000E+00 0. -1.
      99926    2    1    2    0    0  0.00000000000E+00  0.17763568394E-14  0.57704444695E+03  0.73368519555E+03  0.45311551773E+03 0.  0.
      99925    2    3    3    0    0 -0.91624239526E+02  0.10486081346E+02  0.26267659154E+03  0.38300069947E+03  0.26303152831E+03 0.  0.
         25    1    4    4    0    0 -0.25744195643E+02 -0.45218713286E+01  0.77189048336E+02  0.14929456860E+03  0.12509000000E+03 0.  0.
         25    1    4    4    0    0 -0.65880043883E+02  0.15007952675E+02  0.18548754320E+03  0.23370613088E+03  0.12509000000E+03 0.  0.
         25    1    3    3    0    0  0.91624239526E+02 -0.10486081346E+02  0.31436785541E+03  0.35068449607E+03  0.12509000000E+03 0.  0.
<mgrwt>
<rscale>  2 0.45311552E+03</rscale>
<asrwt>0</asrwt>
<pdfrwt beam="1">  1       21 0.96377177E-01 0.45311552E+03</pdfrwt>
<pdfrwt beam="2">  1       21 0.11517702E-01 0.45311552E+03</pdfrwt>
<totfact> 0.51876361E+04</totfact>
</mgrwt>
</event>
<event>
 7    0  0.4779893E-002  0.4427027E+03  0.7546771E-02  0.1029921E+00
         21   -1    0    0  502  501  0.00000000000E+00  0.00000000000E+00  0.12297959178E+03  0.12297959178E+03  0.00000000000E+00 0. -1.
         21   -1    0    0  501  502 -0.00000000000E+00 -0.00000000000E+00 -0.39841091868E+03  0.39841091868E+03  0.00000000000E+00 0. -1.
      99926    2    1    2    0    0  0.00000000000E+00  0.00000000000E+00 -0.27543132691E+03  0.52139051046E+03  0.44270266383E+03 0.  0.
      99925    2    3    3    0    0  0.17471164139E+02 -0.79823062725E+02 -0.24557163228E+03  0.36902229730E+03  0.26304955123E+03 0.  0.
         25    1    3    3    0    0 -0.17471164139E+02  0.79823062725E+02 -0.29859694626E+02  0.15236821316E+03  0.12509000000E+03 0.  0.
         25    1    4    4    0    0 -0.79653397611E+01 -0.46956721749E+02 -0.74919834242E+02  0.15339123188E+03  0.12509000000E+03 0.  0.
         25    1    4    4    0    0  0.25436503900E+02 -0.32866340976E+02 -0.17065179804E+03  0.21563106542E+03  0.12509000000E+03 0.  0.
<mgrwt>
<rscale>  2 0.44270266E+03</rscale>
<asrwt>0</asrwt>
<pdfrwt beam="1">  1       21 0.18085234E-01 0.44270266E+03</pdfrwt>
<pdfrwt beam="2">  1       21 0.58589840E-01 0.44270266E+03</pdfrwt>
<totfact> 0.70406296E+04</totfact>
</mgrwt>
</event>
<event>
 7    0  0.4779893E-002  0.4566729E+03  0.7546771E-02  0.1025751E+00
         21   -1    0    0  502  501  0.00000000000E+00  0.00000000000E+00  0.37174173966E+03  0.37174173966E+03  0.00000000000E+00 0.  1.
         21   -1    0    0  501  502 -0.00000000000E+00 -0.00000000000E+00 -0.14025205754E+03  0.14025205754E+03  0.00000000000E+00 0.  1.
      99926    2    1    2    0    0  0.00000000000E+00  0.00000000000E+00  0.23148968212E+03  0.51199379720E+03  0.45667294144E+03 0.  0.
      99925    2    3    3    0    0  0.76721062332E+02 -0.82155658336E+02  0.17100616292E+03  0.33327212029E+03  0.26304281933E+03 0.  0.
         25    1    4    4    0    0  0.50687486154E+02 -0.64770400752E+02  0.12910707664E+03  0.19768806591E+03  0.12509000000E+03 0.  0.
         25    1    4    4    0    0  0.26033576178E+02 -0.17385257584E+02  0.41899086280E+02  0.13558405438E+03  0.12509000000E+03 0.  0.
         25    1    3    3    0    0 -0.76721062332E+02  0.82155658336E+02  0.60483519199E+02  0.17872167691E+03  0.12509000000E+03 0.  0.
<mgrwt>
<rscale>  2 0.45667294E+03</rscale>
<asrwt>0</asrwt>
<pdfrwt beam="1">  1       21 0.54667903E-01 0.45667294E+03</pdfrwt>
<pdfrwt beam="2">  1       21 0.20625303E-01 0.45667294E+03</pdfrwt>
<totfact> 0.63587582E+04</totfact>
</mgrwt>
</event>
<event>
 7    0  0.4779893E-002  0.4521063E+03  0.7546771E-02  0.1027096E+00
         21   -1    0    0  502  501  0.00000000000E+00  0.00000000000E+00  0.40487206210E+02  0.40487206210E+02  0.00000000000E+00 0. -1.
         21   -1    0    0  501  502 -0.00000000000E+00 -0.00000000000E+00 -0.12621277752E+04  0.12621277752E+04  0.00000000000E+00 0. -1.
      99926    2    1    2    0    0  0.00000000000E+00  0.17763568394E-14 -0.12216405690E+04  0.13026149814E+04  0.45210630386E+03 0.  0.
      99925    2    3    3    0    0  0.10779341561E+03  0.14573279686E+02 -0.72649856267E+03  0.78046087058E+03  0.26360426404E+03 0.  0.
         25    1    4    4    0    0  0.28785461065E+02  0.18888321009E+02 -0.42876731046E+03  0.44796683589E+03  0.12509000000E+03 0.  0.
         25    1    4    4    0    0  0.79007954544E+02 -0.43150413234E+01 -0.29773125221E+03  0.33249403469E+03  0.12509000000E+03 0.  0.
         25    1    3    3    0    0 -0.10779341561E+03 -0.14573279686E+02 -0.49514200631E+03  0.52215411082E+03  0.12509000000E+03 0.  0.
<mgrwt>
<rscale>  2 0.45210630E+03</rscale>
<asrwt>0</asrwt>
<pdfrwt beam="1">  1       21 0.59540025E-02 0.45210630E+03</pdfrwt>
<pdfrwt beam="2">  1       21 0.18560698E+00 0.45210630E+03</pdfrwt>
<totfact> 0.29701646E+04</totfact>
</mgrwt>
</event>
<event>
 7    0  0.4779893E-002  0.4576302E+03  0.7546771E-02  0.1025471E+00
         21   -1    0    0  502  501  0.00000000000E+00  0.00000000000E+00  0.27392928457E+03  0.27392928457E+03  0.00000000000E+00 0.  1.
         21   -1    0    0  501  502 -0.00000000000E+00 -0.00000000000E+00 -0.19113092949E+03  0.19113092949E+03  0.00000000000E+00 0.  1.
      99926    2    1    2    0    0  0.00000000000E+00  0.00000000000E+00  0.82798355071E+02  0.46506021406E+03  0.45763023840E+03 0.  0.
      99925    2    3    3    0    0  0.11484751231E+03 -0.82078822448E+01  0.62363991597E+02  0.29382239194E+03  0.26303043577E+03 0.  0.
         25    1    3    3    0    0 -0.11484751231E+03  0.82078822448E+01  0.20434363474E+02  0.17123782212E+03  0.12509000000E+03 0.  0.
         25    1    4    4    0    0  0.95719653515E+02  0.15658675425E+02  0.31272850891E+02  0.16134728225E+03  0.12509000000E+03 0.  0.
         25    1    4    4    0    0  0.19127858797E+02 -0.23866557670E+02  0.31091140706E+02  0.13247510969E+03  0.12509000000E+03 0.  0.
<mgrwt>
<rscale>  2 0.45763024E+03</rscale>
<asrwt>0</asrwt>
<pdfrwt beam="1">  1       21 0.40283719E-01 0.45763024E+03</pdfrwt>
<pdfrwt beam="2">  1       21 0.28107489E-01 0.45763024E+03</pdfrwt>
<totfact> 0.66406300E+04</totfact>
</mgrwt>
</event>
<event>
 7    0  0.4779893E-002  0.4528363E+03  0.7546771E-02  0.1026880E+00
         21   -1    0    0  502  501  0.00000000000E+00  0.00000000000E+00  0.25747096992E+03  0.25747096992E+03  0.00000000000E+00 0.  1.
         21   -1    0    0  501  502 -0.00000000000E+00 -0.00000000000E+00 -0.19911052952E+03  0.19911052952E+03  0.00000000000E+00 0.  1.
      99926    2    1    2    0    0  0.00000000000E+00  0.17763568394E-14  0.58360440402E+02  0.45658149944E+03  0.45283631107E+03 0.  0.
      99925    2    3    3    0    0  0.50876719952E+02  0.89209563580E+01 -0.62514606252E+02  0.27512541908E+03  0.26290282641E+03 0.  0.
         25    1    3    3    0    0 -0.50876719952E+02 -0.89209563580E+01  0.12087504665E+03  0.18145608036E+03  0.12509000000E+03 0.  0.
         25    1    4    4    0    0  0.75187414971E+00  0.31194654513E+02 -0.11937791911E+02  0.12947467227E+03  0.12509000000E+03 0.  0.
         25    1    4    4    0    0  0.50124845803E+02 -0.22273698155E+02 -0.50576814341E+02  0.14565074681E+03  0.12509000000E+03 0.  0.
<mgrwt>
<rscale>  2 0.45283631E+03</rscale>
<asrwt>0</asrwt>
<pdfrwt beam="1">  1       21 0.37863378E-01 0.45283631E+03</pdfrwt>
<pdfrwt beam="2">  1       21 0.29280960E-01 0.45283631E+03</pdfrwt>
<totfact> 0.69624039E+04</totfact>
</mgrwt>
</event>
<event>
 7    0  0.4779893E-002  0.4556313E+03  0.7546771E-02  0.1026056E+00
         21   -1    0    0  502  501  0.00000000000E+00  0.00000000000E+00  0.25921639459E+03  0.25921639459E+03  0.00000000000E+00 0. -1.
         21   -1    0    0  501  502 -0.00000000000E+00 -0.00000000000E+00 -0.20021870043E+03  0.20021870043E+03  0.00000000000E+00 0. -1.
      99926    2    1    2    0    0 -0.14210854715E-13  0.00000000000E+00  0.58997694154E+02  0.45943509502E+03  0.45563129680E+03 0.  0.
      99925    2    3    3    0    0  0.70306463251E+02  0.75623007272E+01 -0.52766950263E+02  0.27739380573E+03  0.26298818462E+03 0.  0.
         25    1    4    4    0    0 -0.50798815691E+01 -0.26949322268E+01 -0.34222268576E+02  0.12981425046E+03  0.12509000000E+03 0.  0.
         25    1    4    4    0    0  0.75386344820E+02  0.10257232954E+02 -0.18544681688E+02  0.14757955526E+03  0.12509000000E+03 0.  0.
         25    1    3    3    0    0 -0.70306463251E+02 -0.75623007272E+01  0.11176464442E+03  0.18204128930E+03  0.12509000000E+03 0.  0.
<mgrwt>
<rscale>  2 0.45563130E+03</rscale>
<asrwt>0</asrwt>
<pdfrwt beam="1">  1       21 0.38120058E-01 0.45563130E+03</pdfrwt>
<pdfrwt beam="2">  1       21 0.29443927E-01 0.45563130E+03</pdfrwt>
<totfact> 0.67879358E+04</totfact>
</mgrwt>
</event>
<event>
 7    0  0.4779893E-002  0.4640696E+03  0.7546771E-02  0.1023607E+00
         21   -1    0    0  502  501  0.00000000000E+00  0.00000000000E+00  0.81955982308E+03  0.81955982308E+03  0.00000000000E+00 0. -1.
         21   -1    0    0  501  502 -0.00000000000E+00 -0.00000000000E+00 -0.65693982191E+02  0.65693982191E+02  0.00000000000E+00 0. -1.
      99926    2    1    2    0    0  0.88817841970E-15  0.00000000000E+00  0.75386584088E+03  0.88525380527E+03  0.46406960005E+03 0.  0.
      99925    2    3    3    0    0 -0.57365368356E+01  0.12112886644E+03  0.48560133916E+03  0.56538123513E+03  0.26294898802E+03 0.  0.
         25    1    4    4    0    0  0.12464851987E+02  0.99838596856E+02  0.24841011716E+03  0.29576715904E+03  0.12509000000E+03 0.  0.
         25    1    4    4    0    0 -0.18201388822E+02  0.21290269586E+02  0.23719122199E+03  0.26961407609E+03  0.12509000000E+03 0.  0.
         25    1    3    3    0    0  0.57365368356E+01 -0.12112886644E+03  0.26826450173E+03  0.31987257014E+03  0.12509000000E+03 0.  0.
<mgrwt>
<rscale>  2 0.46406960E+03</rscale>
<asrwt>0</asrwt>
<pdfrwt beam="1">  1       21 0.12052350E+00 0.46406960E+03</pdfrwt>
<pdfrwt beam="2">  1       21 0.96608802E-02 0.46406960E+03</pdfrwt>
<totfact> 0.40894516E+04</totfact>
</mgrwt>
</event>
<event>
 7    0  0.4779893E-002  0.4479107E+03  0.7546771E-02  0.1028347E+00
         21   -1    0    0  502  501  0.00000000000E+00  0.00000000000E+00  0.94481500382E+02  0.94481500382E+02  0.00000000000E+00 0.  1.
         21   -1    0    0  501  502 -0.00000000000E+00 -0.00000000000E+00 -0.53085526086E+03  0.53085526086E+03  0.00000000000E+00 0.  1.
      99926    2    1    2    0    0  0.00000000000E+00 -0.71054273576E-14 -0.43637376047E+03  0.62533676124E+03  0.44791071222E+03 0.  0.
      99925    2    3    3    0    0 -0.24371808843E+02  0.36130108214E+02 -0.41180665327E+03  0.49061326424E+03  0.26309178168E+03 0.  0.
         25    1    4    4    0    0  0.25020297724E+01  0.38948997636E+02 -0.26658460958E+03  0.29704906453E+03  0.12509000000E+03 0.  0.
         25    1    4    4    0    0 -0.26873838615E+02 -0.28188894212E+01 -0.14522204369E+03  0.19356419972E+03  0.12509000000E+03 0.  0.
         25    1    3    3    0    0  0.24371808843E+02 -0.36130108214E+02 -0.24567107205E+02  0.13472349699E+03  0.12509000000E+03 0.  0.
<mgrwt>
<rscale>  2 0.44791071E+03</rscale>
<asrwt>0</asrwt>
<pdfrwt beam="1">  1       21 0.13894338E-01 0.44791071E+03</pdfrwt>
<pdfrwt beam="2">  1       21 0.78066951E-01 0.44791071E+03</pdfrwt>
<totfact> 0.60458611E+04</totfact>
</mgrwt>
</event>
<event>
 7    0  0.4779893E-002  0.4607430E+03  0.7546771E-02  0.1024566E+00
         21   -1    0    0  502  501  0.00000000000E+00  0.00000000000E+00  0.29101960850E+03  0.29101960850E+03  0.00000000000E+00 0. -1.
         21   -1    0    0  501  502 -0.00000000000E+00 -0.00000000000E+00 -0.18236241537E+03  0.18236241537E+03  0.00000000000E+00 0. -1.
      99926    2    1    2    0    0  0.00000000000E+00  0.00000000000E+00  0.10865719313E+03  0.47338202387E+03  0.46074304651E+03 0.  0.
      99925    2    3    3    0    0  0.78159940549E+02 -0.70094767040E+02  0.11220906204E+02  0.28321475334E+03  0.26279732704E+03 0.  0.
         25    1    3    3    0    0 -0.78159940549E+02  0.70094767040E+02  0.97436286922E+02  0.19016727053E+03  0.12509000000E+03 0.  0.
         25    1    4    4    0    0  0.43797556336E+02  0.40652800445E+01  0.16964119004E+02  0.13367887595E+03  0.12509000000E+03 0.  0.
         25    1    4    4    0    0  0.34362384213E+02 -0.74160047084E+02 -0.57432127992E+01  0.14953587739E+03  0.12509000000E+03 0.  0.
<mgrwt>
<rscale>  2 0.46074305E+03</rscale>
<asrwt>0</asrwt>
<pdfrwt beam="1">  1       21 0.42797001E-01 0.46074305E+03</pdfrwt>
<pdfrwt beam="2">  1       21 0.26818002E-01 0.46074305E+03</pdfrwt>
<totfact> 0.64209565E+04</totfact>
</mgrwt>
</event>
<event>
 7    0  0.4779893E-002  0.4536425E+03  0.7546771E-02  0.1026641E+00
         21   -1    0    0  502  501  0.00000000000E+00  0.00000000000E+00  0.15017727248E+04  0.15017727248E+04  0.00000000000E+00 0. -1.
         21   -1    0    0  501  502 -0.00000000000E+00 -0.00000000000E+00 -0.34258103999E+02  0.34258103999E+02  0.00000000000E+00 0. -1.
      99926    2    1    2    0    0 -0.35527136788E-14  0.00000000000E+00  0.14675146208E+04  0.15360308288E+04  0.45364252970E+03 0.  0.
      99925    2    3    3    0    0  0.13582408330E+02  0.87623891010E+02  0.69268289127E+03  0.74617378776E+03  0.26287507601E+03 0.  0.
         25    1    4    4    0    0 -0.32659357148E+02  0.34480133282E+02  0.34208945012E+03  0.36732575894E+03  0.12509000000E+03 0.  0.
         25    1    4    4    0    0  0.46241765478E+02  0.53143757728E+02  0.35059344115E+03  0.37884802882E+03  0.12509000000E+03 0.  0.
         25    1    3    3    0    0 -0.13582408330E+02 -0.87623891010E+02  0.77483172951E+03  0.78985704102E+03  0.12509000000E+03 0.  0.
<mgrwt>
<rscale>  2 0.45364253E+03</rscale>
<asrwt>0</asrwt>
<pdfrwt beam="1">  1       21 0.22084889E+00 0.45364253E+03</pdfrwt>
<pdfrwt beam="2">  1       21 0.50379575E-02 0.45364253E+03</pdfrwt>
<totfact> 0.23152875E+04</totfact>
</mgrwt>
</event>
<event>
 7    0  0.4779893E-002  0.4577879E+03  0.7546771E-02  0.1025425E+00
         21   -1    0    0  502  501  0.00000000000E+00  0.00000000000E+00  0.12277736783E+03  0.12277736783E+03  0.00000000000E+00 0.  1.
         21   -1    0    0  501  502 -0.00000000000E+00 -0.00000000000E+00 -0.42672714908E+03  0.42672714908E+03  0.00000000000E+00 0.  1.
      99926    2    1    2    0    0  0.71054273576E-14 -0.35527136788E-14 -0.30394978125E+03  0.54950451691E+03  0.45778788165E+03 0.  0.
      99925    2    3    3    0    0  0.48411773939E+02 -0.12550320456E+02 -0.31611943737E+03  0.41423878204E+03  0.26298490349E+03 0.  0.
         25    1    3    3    0    0 -0.48411773939E+02  0.12550320456E+02  0.12169656128E+02  0.13526573487E+03  0.12509000000E+03 0.  0.
         25    1    4    4    0    0  0.12834060290E+02  0.26047173773E+02 -0.18779545365E+03  0.22750342608E+03  0.12509000000E+03 0.  0.
         25    1    4    4    0    0  0.35577713648E+02 -0.38597494229E+02 -0.12832398372E+03  0.18673535596E+03  0.12509000000E+03 0.  0.
<mgrwt>
<rscale>  2 0.45778788E+03</rscale>
<asrwt>0</asrwt>
<pdfrwt beam="1">  1       21 0.18055495E-01 0.45778788E+03</pdfrwt>
<pdfrwt beam="2">  1       21 0.62753992E-01 0.45778788E+03</pdfrwt>
<totfact> 0.60552512E+04</totfact>
</mgrwt>
</event>
<event>
 7    0  0.4779893E-002  0.4540202E+03  0.7546771E-02  0.1026530E+00
         21   -1    0    0  502  501  0.00000000000E+00  0.00000000000E+00  0.14396816983E+03  0.14396816983E+03  0.00000000000E+00 0.  1.
         21   -1    0    0  501  502 -0.00000000000E+00 -0.00000000000E+00 -0.35795118609E+03  0.35795118609E+03  0.00000000000E+00 0.  1.
      99926    2    1    2    0    0  0.00000000000E+00  0.00000000000E+00 -0.21398301626E+03  0.50191935592E+03  0.45402016321E+03 0.  0.
      99925    2    3    3    0    0 -0.56580190360E+02  0.95070242527E+02 -0.15574864294E+03  0.32506229699E+03  0.26299845664E+03 0.  0.
         25    1    3    3    0    0  0.56580190360E+02 -0.95070242527E+02 -0.58234373312E+02  0.17685705892E+03  0.12509000000E+03 0.  0.
         25    1    4    4    0    0 -0.43030848699E+02  0.18846192973E+02 -0.10325857800E+03  0.16886880991E+03  0.12509000000E+03 0.  0.
         25    1    4    4    0    0 -0.13549341661E+02  0.76224049554E+02 -0.52490064941E+02  0.15619348708E+03  0.12509000000E+03 0.  0.
<mgrwt>
<rscale>  2 0.45402016E+03</rscale>
<asrwt>0</asrwt>
<pdfrwt beam="1">  1       21 0.21171790E-01 0.45402016E+03</pdfrwt>
<pdfrwt beam="2">  1       21 0.52639879E-01 0.45402016E+03</pdfrwt>
<totfact> 0.65645113E+04</totfact>
</mgrwt>
</event>
<event>
 7    0  0.4779893E-002  0.4517574E+03  0.7546771E-02  0.1027199E+00
         21   -1    0    0  502  501  0.00000000000E+00  0.00000000000E+00  0.37294001087E+03  0.37294001087E+03  0.00000000000E+00 0. -1.
         21   -1    0    0  501  502 -0.00000000000E+00 -0.00000000000E+00 -0.13680803961E+03  0.13680803961E+03  0.00000000000E+00 0. -1.
      99926    2    1    2    0    0  0.00000000000E+00  0.00000000000E+00  0.23613197125E+03  0.50974805048E+03  0.45175742066E+03 0.  0.
      99925    2    3    3    0    0  0.10369890024E+03 -0.36324691639E+02  0.15722229895E+03  0.32550041924E+03  0.26298046791E+03 0.  0.
         25    1    4    4    0    0  0.43765069927E+02  0.73344252283E+01  0.39717437680E+02  0.13854298284E+03  0.12509000000E+03 0.  0.
         25    1    3    3    0    0 -0.10369890024E+03  0.36324691639E+02  0.78909672303E+02  0.18424763124E+03  0.12509000000E+03 0.  0.
         25    1    4    4    0    0  0.59933830314E+02 -0.43659116867E+02  0.11750486127E+03  0.18695743640E+03  0.12509000000E+03 0.  0.
<mgrwt>
<rscale>  2 0.45175742E+03</rscale>
<asrwt>0</asrwt>
<pdfrwt beam="1">  1       21 0.54844119E-01 0.45175742E+03</pdfrwt>
<pdfrwt beam="2">  1       21 0.20118829E-01 0.45175742E+03</pdfrwt>
<totfact> 0.66280344E+04</totfact>
</mgrwt>
</event>
<event>
 7    0  0.4779893E-002  0.4493756E+03  0.7546771E-02  0.1027908E+00
         21   -1    0    0  502  501  0.00000000000E+00  0.00000000000E+00  0.36220974331E+03  0.36220974331E+03  0.00000000000E+00 0. -1.
         21   -1    0    0  501  502 -0.00000000000E+00 -0.00000000000E+00 -0.13937945484E+03  0.13937945484E+03  0.00000000000E+00 0. -1.
      99926    2    1    2    0    0  0.00000000000E+00  0.00000000000E+00  0.22283028847E+03  0.50158919815E+03  0.44937555145E+03 0.  0.
      99925    2    3    3    0    0  0.99543315169E+02  0.32514739980E+02  0.11199521295E+03  0.30436343417E+03  0.26292221744E+03 0.  0.
         25    1    4    4    0    0  0.13614180574E+02  0.32948428946E+02  0.37900730350E+02  0.13548032456E+03  0.12509000000E+03 0.  0.
         25    1    4    4    0    0  0.85929134595E+02 -0.43368896551E+00  0.74094482600E+02  0.16888310961E+03  0.12509000000E+03 0.  0.
         25    1    3    3    0    0 -0.99543315169E+02 -0.32514739980E+02  0.11083507552E+03  0.19722576398E+03  0.12509000000E+03 0.  0.
<mgrwt>
<rscale>  2 0.44937555E+03</rscale>
<asrwt>0</asrwt>
<pdfrwt beam="1">  1       21 0.53266139E-01 0.44937555E+03</pdfrwt>
<pdfrwt beam="2">  1       21 0.20496979E-01 0.44937555E+03</pdfrwt>
<totfact> 0.68151191E+04</totfact>
</mgrwt>
</event>
<event>
 7    0  0.4779893E-002  0.4562555E+03  0.7546771E-02  0.1025873E+00
         21   -1    0    0  502  501  0.00000000000E+00  0.00000000000E+00  0.15429950302E+03  0.15429950302E+03  0.00000000000E+00 0. -1.
         21   -1    0    0  501  502 -0.00000000000E+00 -0.00000000000E+00 -0.33728082811E+03  0.33728082811E+03  0.00000000000E+00 0. -1.
      99926    2    1    2    0    0  0.00000000000E+00  0.00000000000E+00 -0.18298132509E+03  0.49158033112E+03  0.45625547297E+03 0.  0.
      99925    2    3    3    0    0 -0.16896639985E+02  0.47124507509E+02 -0.42521010511E+01  0.26775482034E+03  0.26299876008E+03 0.  0.
         25    1    3    3    0    0  0.16896639985E+02 -0.47124507509E+02 -0.17872922404E+03  0.22382551078E+03  0.12509000000E+03 0.  0.
         25    1    4    4    0    0  0.27315210540E+02  0.42709572275E+02 -0.17336545257E+01  0.13498422852E+03  0.12509000000E+03 0.  0.
         25    1    4    4    0    0 -0.44211850525E+02  0.44149352341E+01 -0.25184465254E+01  0.13277059182E+03  0.12509000000E+03 0.  0.
<mgrwt>
<rscale>  2 0.45625547E+03</rscale>
<asrwt>0</asrwt>
<pdfrwt beam="1">  1       21 0.22691104E-01 0.45625547E+03</pdfrwt>
<pdfrwt beam="2">  1       21 0.49600121E-01 0.45625547E+03</pdfrwt>
<totfact> 0.65213905E+04</totfact>
</mgrwt>
</event>
<event>
 7    0  0.4779893E-002  0.4537580E+03  0.7546771E-02  0.1026607E+00
         21   -1    0    0  502  501  0.00000000000E+00  0.00000000000E+00  0.11169131715E+04  0.11169131715E+04  0.00000000000E+00 0.  1.
         21   -1    0    0  501  502 -0.00000000000E+00 -0.00000000000E+00 -0.46086013842E+02  0.46086013842E+02  0.00000000000E+00 0.  1.
      99926    2    1    2    0    0 -0.14210854715E-13  0.35527136788E-14  0.10708271577E+04  0.11629991854E+04  0.45375797903E+03 0.  0.
      99925    2    3    3    0    0 -0.10905451323E+03  0.21810836847E+02  0.63413752952E+03  0.69533056455E+03  0.26265107687E+03 0.  0.
         25    1    3    3    0    0  0.10905451323E+03 -0.21810836847E+02  0.43668962816E+03  0.46766862082E+03  0.12509000000E+03 0.  0.
         25    1    4    4    0    0 -0.87494168842E+02 -0.13201098689E+02  0.35766296188E+03  0.38910127344E+03  0.12509000000E+03 0.  0.
         25    1    4    4    0    0 -0.21560344386E+02  0.35011935536E+02  0.27647456764E+03  0.30622929111E+03  0.12509000000E+03 0.  0.
<mgrwt>
<rscale>  2 0.45375798E+03</rscale>
<asrwt>0</asrwt>
<pdfrwt beam="1">  1       21 0.16425192E+00 0.45375798E+03</pdfrwt>
<pdfrwt beam="2">  1       21 0.67773557E-02 0.45375798E+03</pdfrwt>
<totfact> 0.33676068E+04</totfact>
</mgrwt>
</event>
<event>
 7    0  0.4779893E-002  0.4510994E+03  0.7546771E-02  0.1027395E+00
         21   -1    0    0  502  501  0.00000000000E+00  0.00000000000E+00  0.10949261943E+04  0.10949261943E+04  0.00000000000E+00 0. -1.
         21   -1    0    0  501  502 -0.00000000000E+00 -0.00000000000E+00 -0.46462187144E+02  0.46462187144E+02  0.00000000000E+00 0. -1.
      99926    2    1    2    0    0  0.00000000000E+00  0.17763568394E-14  0.10484640071E+04  0.11413883814E+04  0.45109939369E+03 0.  0.
      99925    2    3    3    0    0 -0.69764497668E+02  0.96284774513E+01  0.87413870017E+03  0.91556408365E+03  0.26301964077E+03 0.  0.
         25    1    4    4    0    0 -0.23508434802E+02 -0.27252908187E+02  0.49971482037E+03  0.51638917234E+03  0.12509000000E+03 0.  0.
         25    1    4    4    0    0 -0.46256062866E+02  0.36881385639E+02  0.37442387979E+03  0.39917491131E+03  0.12509000000E+03 0.  0.
         25    1    3    3    0    0  0.69764497668E+02 -0.96284774513E+01  0.17432530695E+03  0.22582429775E+03  0.12509000000E+03 0.  0.
<mgrwt>
<rscale>  2 0.45109939E+03</rscale>
<asrwt>0</asrwt>
<pdfrwt beam="1">  1       21 0.16101854E+00 0.45109939E+03</pdfrwt>
<pdfrwt beam="2">  1       21 0.68326753E-02 0.45109939E+03</pdfrwt>
<totfact> 0.35127066E+04</totfact>
</mgrwt>
</event>
<event>
 7    0  0.4779893E-002  0.4552052E+03  0.7546771E-02  0.1026181E+00
         21   -1    0    0  502  501  0.00000000000E+00  0.00000000000E+00  0.41893693155E+03  0.41893693155E+03  0.00000000000E+00 0. -1.
         21   -1    0    0  501  502 -0.00000000000E+00 -0.00000000000E+00 -0.12365330411E+03  0.12365330411E+03  0.00000000000E+00 0. -1.
      99926    2    1    2    0    0  0.00000000000E+00  0.00000000000E+00  0.29528362745E+03  0.54259023566E+03  0.45520516605E+03 0.  0.
      99925    2    3    3    0    0 -0.29592621332E+02  0.69712147575E+02  0.85155721168E+02  0.28658876720E+03  0.26295649428E+03 0.  0.
         25    1    3    3    0    0  0.29592621332E+02 -0.69712147575E+02  0.21012790628E+03  0.25600146846E+03  0.12509000000E+03 0.  0.
         25    1    4    4    0    0 -0.46590740687E+02  0.54913050579E+02  0.63345000524E+02  0.15762689311E+03  0.12509000000E+03 0.  0.
         25    1    4    4    0    0  0.16998119355E+02  0.14799096995E+02  0.21810720645E+02  0.12896187409E+03  0.12509000000E+03 0.  0.
<mgrwt>
<rscale>  2 0.45520517E+03</rscale>
<asrwt>0</asrwt>
<pdfrwt beam="1">  1       21 0.61608372E-01 0.45520517E+03</pdfrwt>
<pdfrwt beam="2">  1       21 0.18184310E-01 0.45520517E+03</pdfrwt>
<totfact> 0.62257687E+04</totfact>
</mgrwt>
</event>
<event>
 7    0  0.4779893E-002  0.4484205E+03  0.7546771E-02  0.1028194E+00
         21   -1    0    0  502  501  0.00000000000E+00  0.00000000000E+00  0.38755160412E+03  0.38755160412E+03  0.00000000000E+00 0. -1.
         21   -1    0    0  501  502 -0.00000000000E+00 -0.00000000000E+00 -0.12971238792E+03  0.12971238792E+03  0.00000000000E+00 0. -1.
      99926    2    1    2    0    0  0.00000000000E+00 -0.14210854715E-13  0.25783921621E+03  0.51726399204E+03  0.44842053482E+03 0.  0.
      99925    2    3    3    0    0 -0.18011159166E+02 -0.10138753411E+03  0.19637392594E+03  0.34397428105E+03  0.26296720956E+03 0.  0.
         25    1    4    4    0    0  0.11177483463E+01 -0.84055474699E+01  0.86690118083E+02  0.15242895809E+03  0.12509000000E+03 0.  0.
         25    1    3    3    0    0  0.18011159166E+02  0.10138753411E+03  0.61465290264E+02  0.17328971099E+03  0.12509000000E+03 0.  0.
         25    1    4    4    0    0 -0.19128907513E+02 -0.92981986643E+02  0.10968380786E+03  0.19154532296E+03  0.12509000000E+03 0.  0.
<mgrwt>
<rscale>  2 0.44842053E+03</rscale>
<asrwt>0</asrwt>
<pdfrwt beam="1">  1       21 0.56992883E-01 0.44842053E+03</pdfrwt>
<pdfrwt beam="2">  1       21 0.19075351E-01 0.44842053E+03</pdfrwt>
<totfact> 0.67530754E+04</totfact>
</mgrwt>
</event>
<event>
 7    0  0.4779893E-002  0.4557041E+03  0.7546771E-02  0.1026035E+00
         21   -1    0    0  502  501  0.00000000000E+00  0.00000000000E+00  0.19609351274E+03  0.19609351274E+03  0.00000000000E+00 0. -1.
         21   -1    0    0  501  502 -0.00000000000E+00 -0.00000000000E+00 -0.26475402951E+03  0.26475402951E+03  0.00000000000E+00 0. -1.
      99926    2    1    2    0    0  0.00000000000E+00 -0.14210854715E-13 -0.68660516773E+02  0.46084754225E+03  0.45570406037E+03 0.  0.
      99925    2    3    3    0    0 -0.64254441689E+02  0.93464369342E+02 -0.32249664206E+02  0.28811225374E+03  0.26287717341E+03 0.  0.
         25    1    4    4    0    0 -0.57456926824E+01  0.21674970177E+02  0.80459765609E+01  0.12733838053E+03  0.12509000000E+03 0.  0.
         25    1    4    4    0    0 -0.58508749007E+02  0.71789399164E+02 -0.40295640767E+02  0.16077387321E+03  0.12509000000E+03 0.  0.
         25    1    3    3    0    0  0.64254441689E+02 -0.93464369342E+02 -0.36410852568E+02  0.17273528851E+03  0.12509000000E+03 0.  0.
<mgrwt>
<rscale>  2 0.45570406E+03</rscale>
<asrwt>0</asrwt>
<pdfrwt beam="1">  1       21 0.28837282E-01 0.45570406E+03</pdfrwt>
<pdfrwt beam="2">  1       21 0.38934416E-01 0.45570406E+03</pdfrwt>
<totfact> 0.67737722E+04</totfact>
</mgrwt>
</event>
<event>
 7    0  0.4779893E-002  0.4540441E+03  0.7546771E-02  0.1026523E+00
         21   -1    0    0  502  501  0.00000000000E+00  0.00000000000E+00  0.17171607122E+03  0.17171607122E+03  0.00000000000E+00 0.  1.
         21   -1    0    0  501  502 -0.00000000000E+00 -0.00000000000E+00 -0.30014088144E+03  0.30014088144E+03  0.00000000000E+00 0.  1.
      99926    2    1    2    0    0  0.00000000000E+00  0.00000000000E+00 -0.12842481022E+03  0.47185695266E+03  0.45404410787E+03 0.  0.
      99925    2    3    3    0    0  0.30001572128E+02  0.10695487011E+03 -0.63224493838E+02  0.29230743880E+03  0.26288184339E+03 0.  0.
         25    1    3    3    0    0 -0.30001572128E+02 -0.10695487011E+03 -0.65200316386E+02  0.17954951386E+03  0.12509000000E+03 0.  0.
         25    1    4    4    0    0  0.13950152773E+02  0.21592692654E+02 -0.76149874045E+00  0.12770645684E+03  0.12509000000E+03 0.  0.
         25    1    4    4    0    0  0.16051419355E+02  0.85362177461E+02 -0.62462995097E+02  0.16460098196E+03  0.12509000000E+03 0.  0.
<mgrwt>
<rscale>  2 0.45404411E+03</rscale>
<asrwt>0</asrwt>
<pdfrwt beam="1">  1       21 0.25252363E-01 0.45404411E+03</pdfrwt>
<pdfrwt beam="2">  1       21 0.44138365E-01 0.45404411E+03</pdfrwt>
<totfact> 0.67810723E+04</totfact>
</mgrwt>
</event>
<event>
 7    0  0.4779893E-002  0.4554265E+03  0.7546771E-02  0.1026116E+00
         21   -1    0    0  502  501  0.00000000000E+00  0.00000000000E+00  0.33226725794E+03  0.33226725794E+03  0.00000000000E+00 0.  1.
         21   -1    0    0  501  502 -0.00000000000E+00 -0.00000000000E+00 -0.15605907671E+03  0.15605907671E+03  0.00000000000E+00 0.  1.
      99926    2    1    2    0    0  0.00000000000E+00 -0.35527136788E-14  0.17620818123E+03  0.48832633465E+03  0.45542648801E+03 0.  0.
      99925    2    3    3    0    0  0.10810801803E+03 -0.21544405206E+02  0.80589810288E+02  0.29612361375E+03  0.26276029407E+03 0.  0.
         25    1    4    4    0    0  0.96459095097E+02 -0.40279591308E+01  0.48337787661E+02  0.16524113077E+03  0.12509000000E+03 0.  0.
         25    1    4    4    0    0  0.11648922934E+02 -0.17516446076E+02  0.32252022627E+02  0.13088248298E+03  0.12509000000E+03 0.  0.
         25    1    3    3    0    0 -0.10810801803E+03  0.21544405206E+02  0.95618370937E+02  0.19220272089E+03  0.12509000000E+03 0.  0.
<mgrwt>
<rscale>  2 0.45542649E+03</rscale>
<asrwt>0</asrwt>
<pdfrwt beam="1">  1       21 0.48862832E-01 0.45542649E+03</pdfrwt>
<pdfrwt beam="2">  1       21 0.22949864E-01 0.45542649E+03</pdfrwt>
<totfact> 0.65875499E+04</totfact>
</mgrwt>
</event>
<event>
 7    0  0.4779893E-002  0.4550619E+03  0.7546771E-02  0.1026223E+00
         21   -1    0    0  502  501  0.00000000000E+00  0.00000000000E+00  0.39952506009E+03  0.39952506009E+03  0.00000000000E+00 0.  1.
         21   -1    0    0  501  502 -0.00000000000E+00 -0.00000000000E+00 -0.12957970041E+03  0.12957970041E+03  0.00000000000E+00 0.  1.
      99926    2    1    2    0    0  0.14210854715E-13 -0.71054273576E-14  0.26994535969E+03  0.52910476050E+03  0.45506191927E+03 0.  0.
      99925    2    3    3    0    0 -0.99748872226E+02 -0.46909945829E+02  0.19993587290E+03  0.34827551267E+03  0.26300399033E+03 0.  0.
         25    1    4    4    0    0 -0.10822499349E+02 -0.13679611667E+02  0.10887134711E+03  0.16674752349E+03  0.12509000000E+03 0.  0.
         25    1    3    3    0    0  0.99748872226E+02  0.46909945829E+02  0.70009486789E+02  0.18082924782E+03  0.12509000000E+03 0.  0.
         25    1    4    4    0    0 -0.88926372877E+02 -0.33230334162E+02  0.91064525790E+02  0.18152798919E+03  0.12509000000E+03 0.  0.
<mgrwt>
<rscale>  2 0.45506192E+03</rscale>
<asrwt>0</asrwt>
<pdfrwt beam="1">  1       21 0.58753685E-01 0.45506192E+03</pdfrwt>
<pdfrwt beam="2">  1       21 0.19055838E-01 0.45506192E+03</pdfrwt>
<totfact> 0.63236139E+04</totfact>
</mgrwt>
</event>
<event>
 7    0  0.4779893E-002  0.4420826E+03  0.7546771E-02  0.1030110E+00
         21   -1    0    0  502  501  0.00000000000E+00  0.00000000000E+00  0.19514707658E+03  0.19514707658E+03  0.00000000000E+00 0.  1.
         21   -1    0    0  501  502 -0.00000000000E+00 -0.00000000000E+00 -0.25037148629E+03  0.25037148629E+03  0.00000000000E+00 0.  1.
      99926    2    1    2    0    0  0.00000000000E+00  0.00000000000E+00 -0.55224409709E+02  0.44551856287E+03  0.44208263304E+03 0.  0.
      99925    2    3    3    0    0  0.56809704133E+02 -0.13472993505E+02 -0.11761492479E+03  0.29402945927E+03  0.26308019376E+03 0.  0.
         25    1    4    4    0    0  0.18516519951E+02 -0.41189626413E+02 -0.37644156457E+02  0.13821735582E+03  0.12509000000E+03 0.  0.
         25    1    3    3    0    0 -0.56809704133E+02  0.13472993505E+02  0.62390515077E+02  0.15148910360E+03  0.12509000000E+03 0.  0.
         25    1    4    4    0    0  0.38293184182E+02  0.27716632908E+02 -0.79970768329E+02  0.15581210345E+03  0.12509000000E+03 0.  0.
<mgrwt>
<rscale>  2 0.44208263E+03</rscale>
<asrwt>0</asrwt>
<pdfrwt beam="1">  1       21 0.28698099E-01 0.44208263E+03</pdfrwt>
<pdfrwt beam="2">  1       21 0.36819336E-01 0.44208263E+03</pdfrwt>
<totfact> 0.76867532E+04</totfact>
</mgrwt>
</event>
<event>
 7    0  0.4779893E-002  0.4521546E+03  0.7546771E-02  0.1027081E+00
         21   -1    0    0  502  501  0.00000000000E+00  0.00000000000E+00  0.18147023307E+03  0.18147023307E+03  0.00000000000E+00 0.  1.
         21   -1    0    0  501  502 -0.00000000000E+00 -0.00000000000E+00 -0.28164921044E+03  0.28164921044E+03  0.00000000000E+00 0.  1.
      99926    2    1    2    0    0  0.14210854715E-13 -0.71054273576E-14 -0.10017897737E+03  0.46311944352E+03  0.45215461012E+03 0.  0.
      99925    2    3    3    0    0 -0.77520269287E+02  0.47433573691E+02 -0.12759014855E+03  0.30609009445E+03  0.26296875070E+03 0.  0.
         25    1    4    4    0    0 -0.65746807174E+02  0.49432628483E+02 -0.47451717227E+02  0.15705222373E+03  0.12509000000E+03 0.  0.
         25    1    3    3    0    0  0.77520269287E+02 -0.47433573691E+02  0.27411171189E+02  0.15702934907E+03  0.12509000000E+03 0.  0.
         25    1    4    4    0    0 -0.11773462113E+02 -0.19990547915E+01 -0.80138431328E+02  0.14903787071E+03  0.12509000000E+03 0.  0.
<mgrwt>
<rscale>  2 0.45215461E+03</rscale>
<asrwt>0</asrwt>
<pdfrwt beam="1">  1       21 0.26686799E-01 0.45215461E+03</pdfrwt>
<pdfrwt beam="2">  1       21 0.41419001E-01 0.45215461E+03</pdfrwt>
<totfact> 0.69506905E+04</totfact>
</mgrwt>
</event>
<event>
 7    0  0.4779893E-002  0.4576690E+03  0.7546771E-02  0.1025459E+00
         21   -1    0    0  502  501  0.00000000000E+00  0.00000000000E+00  0.27700844587E+03  0.27700844587E+03  0.00000000000E+00 0.  1.
         21   -1    0    0  501  502 -0.00000000000E+00 -0.00000000000E+00 -0.18903835941E+03  0.18903835941E+03  0.00000000000E+00 0.  1.
      99926    2    1    2    0    0  0.00000000000E+00  0.00000000000E+00  0.87970086463E+02  0.46604680528E+03  0.45766897273E+03 0.  0.
      99925    2    3    3    0    0 -0.84328121179E+01 -0.46243503533E+02  0.16281995008E+03  0.31288158690E+03  0.26301136351E+03 0.  0.
         25    1    4    4    0    0 -0.15479153908E+02 -0.40473855200E+02  0.12452024742E+03  0.18174305290E+03  0.12509000000E+03 0.  0.
         25    1    4    4    0    0  0.70463417904E+01 -0.57696483327E+01  0.38299702663E+02  0.13113853400E+03  0.12509000000E+03 0.  0.
         25    1    3    3    0    0  0.84328121179E+01  0.46243503533E+02 -0.74849863618E+02  0.15316521838E+03  0.12509000000E+03 0.  0.
<mgrwt>
<rscale>  2 0.45766897E+03</rscale>
<asrwt>0</asrwt>
<pdfrwt beam="1">  1       21 0.40736536E-01 0.45766897E+03</pdfrwt>
<pdfrwt beam="2">  1       21 0.27799759E-01 0.45766897E+03</pdfrwt>
<totfact> 0.66314398E+04</totfact>
</mgrwt>
</event>
<event>
 7    0  0.4779893E-002  0.4521738E+03  0.7546771E-02  0.1027076E+00
         21   -1    0    0  502  501  0.00000000000E+00  0.00000000000E+00  0.14680557144E+03  0.14680557144E+03  0.00000000000E+00 0.  1.
         21   -1    0    0  501  502 -0.00000000000E+00 -0.00000000000E+00 -0.34818351626E+03  0.34818351626E+03  0.00000000000E+00 0.  1.
      99926    2    1    2    0    0  0.00000000000E+00  0.35527136788E-14 -0.20137794483E+03  0.49498908770E+03  0.45217377222E+03 0.  0.
      99925    2    3    3    0    0 -0.10186025789E+03 -0.16674844871E+02 -0.84133880342E+02  0.29487101919E+03  0.26309094540E+03 0.  0.
         25    1    3    3    0    0  0.10186025789E+03  0.16674844871E+02 -0.11724406448E+03  0.20011806851E+03  0.12509000000E+03 0.  0.
         25    1    4    4    0    0 -0.14122161362E+02 -0.21466112371E+02 -0.20716721938E+02  0.12937124908E+03  0.12509000000E+03 0.  0.
         25    1    4    4    0    0 -0.87738096525E+02  0.47912674993E+01 -0.63417158404E+02  0.16549977011E+03  0.12509000000E+03 0.  0.
<mgrwt>
<rscale>  2 0.45217377E+03</rscale>
<asrwt>0</asrwt>
<pdfrwt beam="1">  1       21 0.21589055E-01 0.45217377E+03</pdfrwt>
<pdfrwt beam="2">  1       21 0.51203458E-01 0.45217377E+03</pdfrwt>
<totfact> 0.67117379E+04</totfact>
</mgrwt>
</event>
<event>
 7    0  0.4779893E-002  0.4560491E+03  0.7546771E-02  0.1025933E+00
         21   -1    0    0  502  501  0.00000000000E+00  0.00000000000E+00  0.39391864545E+03  0.39391864545E+03  0.00000000000E+00 0. -1.
         21   -1    0    0  501  502 -0.00000000000E+00 -0.00000000000E+00 -0.13199477054E+03  0.13199477054E+03  0.00000000000E+00 0. -1.
      99926    2    1    2    0    0  0.00000000000E+00  0.00000000000E+00  0.26192387491E+03  0.52591341599E+03  0.45604912550E+03 0.  0.
      99925    2    3    3    0    0  0.60554693113E+02 -0.92079188767E+02  0.12877252623E+03  0.31255400650E+03  0.26260654144E+03 0.  0.
         25    1    3    3    0    0 -0.60554693113E+02  0.92079188767E+02  0.13315134868E+03  0.21335940949E+03  0.12509000000E+03 0.  0.
         25    1    4    4    0    0  0.41941508010E+01 -0.49656311785E+02  0.29141344508E+02  0.13776816127E+03  0.12509000000E+03 0.  0.
         25    1    4    4    0    0  0.56360542312E+02 -0.42422876982E+02  0.99631181719E+02  0.17478584523E+03  0.12509000000E+03 0.  0.
<mgrwt>
<rscale>  2 0.45604913E+03</rscale>
<asrwt>0</asrwt>
<pdfrwt beam="1">  1       21 0.57929212E-01 0.45604913E+03</pdfrwt>
<pdfrwt beam="2">  1       21 0.19410996E-01 0.45604913E+03</pdfrwt>
<totfact> 0.62958773E+04</totfact>
</mgrwt>
</event>
<event>
 7    0  0.4779893E-002  0.4525119E+03  0.7546771E-02  0.1026976E+00
         21   -1    0    0  502  501  0.00000000000E+00  0.00000000000E+00  0.52699444644E+03  0.52699444644E+03  0.00000000000E+00 0.  1.
         21   -1    0    0  501  502 -0.00000000000E+00 -0.00000000000E+00 -0.97139070639E+02  0.97139070639E+02  0.00000000000E+00 0.  1.
      99926    2    1    2    0    0  0.14210854715E-13  0.00000000000E+00  0.42985537580E+03  0.62413351708E+03  0.45251188165E+03 0.  0.
      99925    2    3    3    0    0 -0.11034731217E+03  0.16130004859E+02  0.27812296322E+03  0.39806507724E+03  0.26204334888E+03 0.  0.
         25    1    3    3    0    0  0.11034731217E+03 -0.16130004859E+02  0.15173241258E+03  0.22606843983E+03  0.12509000000E+03 0.  0.
         25    1    4    4    0    0 -0.92533146940E+02  0.27117927635E+02  0.15209511234E+03  0.21926740884E+03  0.12509000000E+03 0.  0.
         25    1    4    4    0    0 -0.17814165233E+02 -0.10987922776E+02  0.12602785087E+03  0.17879766840E+03  0.12509000000E+03 0.  0.
<mgrwt>
<rscale>  2 0.45251188E+03</rscale>
<asrwt>0</asrwt>
<pdfrwt beam="1">  1       21 0.77499182E-01 0.45251188E+03</pdfrwt>
<pdfrwt beam="2">  1       21 0.14285158E-01 0.45251188E+03</pdfrwt>
<totfact> 0.58354781E+04</totfact>
</mgrwt>
</event>
<event>
 7    0  0.4779893E-002  0.4547683E+03  0.7546771E-02  0.1026310E+00
         21   -1    0    0  502  501  0.00000000000E+00  0.00000000000E+00  0.14400960728E+03  0.14400960728E+03  0.00000000000E+00 0.  1.
         21   -1    0    0  501  502 -0.00000000000E+00 -0.00000000000E+00 -0.35902850135E+03  0.35902850135E+03  0.00000000000E+00 0.  1.
      99926    2    1    2    0    0  0.00000000000E+00  0.00000000000E+00 -0.21501889407E+03  0.50303810863E+03  0.45476830796E+03 0.  0.
      99925    2    3    3    0    0  0.28222938673E+02  0.89292114193E+02 -0.66697616216E+02  0.28759362509E+03  0.26361317353E+03 0.  0.
         25    1    4    4    0    0  0.37575325456E+02  0.34838737185E+02  0.60688107574E+00  0.13517958092E+03  0.12509000000E+03 0.  0.
         25    1    3    3    0    0 -0.28222938673E+02 -0.89292114193E+02 -0.14832127785E+03  0.21544448354E+03  0.12509000000E+03 0.  0.
         25    1    4    4    0    0 -0.93523867836E+01  0.54453377007E+02 -0.67304497292E+02  0.15241404417E+03  0.12509000000E+03 0.  0.
<mgrwt>
<rscale>  2 0.45476831E+03</rscale>
<asrwt>0</asrwt>
<pdfrwt beam="1">  1       21 0.21177883E-01 0.45476831E+03</pdfrwt>
<pdfrwt beam="2">  1       21 0.52798309E-01 0.45476831E+03</pdfrwt>
<totfact> 0.65177533E+04</totfact>
</mgrwt>
</event>
<event>
 7    0  0.4779893E-002  0.4551404E+03  0.7546771E-02  0.1026200E+00
         21   -1    0    0  502  501  0.00000000000E+00  0.00000000000E+00  0.17583413207E+02  0.17583413207E+02  0.00000000000E+00 0.  1.
         21   -1    0    0  501  502 -0.00000000000E+00 -0.00000000000E+00 -0.29452863696E+04  0.29452863696E+04  0.00000000000E+00 0.  1.
      99926    2    1    2    0    0  0.00000000000E+00  0.00000000000E+00 -0.29277029564E+04  0.29628697828E+04  0.45514036186E+03 0.  0.
      99925    2    3    3    0    0  0.92966922148E+02  0.64006937748E+02 -0.19065699218E+04  0.19279302101E+04  0.26299485100E+03 0.  0.
         25    1    4    4    0    0  0.14237072989E+02  0.51557539331E+01 -0.92737197857E+03  0.93589292698E+03  0.12509000000E+03 0.  0.
         25    1    4    4    0    0  0.78729849159E+02  0.58851183815E+02 -0.97919794325E+03  0.99203728314E+03  0.12509000000E+03 0.  0.
         25    1    3    3    0    0 -0.92966922148E+02 -0.64006937748E+02 -0.10211330345E+04  0.10349395726E+04  0.12509000000E+03 0.  0.
<mgrwt>
<rscale>  2 0.45514036E+03</rscale>
<asrwt>0</asrwt>
<pdfrwt beam="1">  1       21 0.25857951E-02 0.45514036E+03</pdfrwt>
<pdfrwt beam="2">  1       21 0.43313051E+00 0.45514036E+03</pdfrwt>
<totfact> 0.34556178E+03</totfact>
</mgrwt>
</event>
<event>
 7    0  0.4779893E-002  0.4729822E+03  0.7546771E-02  0.1021082E+00
         21   -1    0    0  502  501  0.00000000000E+00  0.00000000000E+00  0.46139853895E+03  0.46139853895E+03  0.00000000000E+00 0. -1.
         21   -1    0    0  501  502 -0.00000000000E+00 -0.00000000000E+00 -0.12121419367E+03  0.12121419367E+03  0.00000000000E+00 0. -1.
      99926    2    1    2    0    0 -0.71054273576E-14  0.00000000000E+00  0.34018434528E+03  0.58261273262E+03  0.47298224854E+03 0.  0.
      99925    2    3    3    0    0  0.43140022582E+02  0.12073512929E+03  0.18998741918E+03  0.34885076457E+03  0.26298974030E+03 0.  0.
         25    1    4    4    0    0  0.50292124774E+02  0.32410675336E+02  0.78930786508E+02  0.15955352346E+03  0.12509000000E+03 0.  0.
         25    1    4    4    0    0 -0.71521021923E+01  0.88324453957E+02  0.11105663267E+03  0.18929724111E+03  0.12509000000E+03 0.  0.
         25    1    3    3    0    0 -0.43140022582E+02 -0.12073512929E+03  0.15019692611E+03  0.23376196805E+03  0.12509000000E+03 0.  0.
<mgrwt>
<rscale>  2 0.47298225E+03</rscale>
<asrwt>0</asrwt>
<pdfrwt beam="1">  1       21 0.67852726E-01 0.47298225E+03</pdfrwt>
<pdfrwt beam="2">  1       21 0.17825617E-01 0.47298225E+03</pdfrwt>
<totfact> 0.51969778E+04</totfact>
</mgrwt>
</event>
<event>
 7    0  0.4779893E-002  0.4575848E+03  0.7546771E-02  0.1025484E+00
         21   -1    0    0  502  501  0.00000000000E+00  0.00000000000E+00  0.49581371961E+03  0.49581371961E+03  0.00000000000E+00 0.  1.
         21   -1    0    0  501  502 -0.00000000000E+00 -0.00000000000E+00 -0.10557588799E+03  0.10557588799E+03  0.00000000000E+00 0.  1.
      99926    2    1    2    0    0  0.35527136788E-14  0.00000000000E+00  0.39023783161E+03  0.60138960760E+03  0.45758484995E+03 0.  0.
      99925    2    3    3    0    0  0.68012927883E+01  0.25855291950E+02  0.97286090630E+02  0.28172887440E+03  0.26304338337E+03 0.  0.
         25    1    4    4    0    0  0.39171605545E+02  0.21017544593E+01  0.65564236389E+02  0.14657765603E+03  0.12509000000E+03 0.  0.
         25    1    4    4    0    0 -0.32370312757E+02  0.23753537491E+02  0.31721854241E+02  0.13515121837E+03  0.12509000000E+03 0.  0.
         25    1    3    3    0    0 -0.68012927883E+01 -0.25855291950E+02  0.29295174098E+03  0.31966073320E+03  0.12509000000E+03 0.  0.
<mgrwt>
<rscale>  2 0.45758485E+03</rscale>
<asrwt>0</asrwt>
<pdfrwt beam="1">  1       21 0.72913782E-01 0.45758485E+03</pdfrwt>
<pdfrwt beam="2">  1       21 0.15525866E-01 0.45758485E+03</pdfrwt>
<totfact> 0.57411290E+04</totfact>
</mgrwt>
</event>
<event>
 7    0  0.4779893E-002  0.4393808E+03  0.7546771E-02  0.1030937E+00
         21   -1    0    0  502  501  0.00000000000E+00  0.00000000000E+00  0.20713092672E+03  0.20713092672E+03  0.00000000000E+00 0.  1.
         21   -1    0    0  501  502 -0.00000000000E+00 -0.00000000000E+00 -0.23301147042E+03  0.23301147042E+03  0.00000000000E+00 0.  1.
      99926    2    1    2    0    0  0.00000000000E+00  0.00000000000E+00 -0.25880543697E+02  0.44014239714E+03  0.43938084531E+03 0.  0.
      99925    2    3    3    0    0  0.31562372581E+02 -0.31718705960E+02 -0.10360706713E+03  0.28622300196E+03  0.26303407159E+03 0.  0.
         25    1    3    3    0    0 -0.31562372581E+02  0.31718705960E+02  0.77726523431E+02  0.15391939519E+03  0.12509000000E+03 0.  0.
         25    1    4    4    0    0  0.19101751424E+02 -0.20555520003E+02 -0.90349661379E+01  0.12851671107E+03  0.12509000000E+03 0.  0.
         25    1    4    4    0    0  0.12460621157E+02 -0.11163185957E+02 -0.94572100990E+02  0.15770629089E+03  0.12509000000E+03 0.  0.
<mgrwt>
<rscale>  2 0.43938085E+03</rscale>
<asrwt>0</asrwt>
<pdfrwt beam="1">  1       21 0.30460430E-01 0.43938085E+03</pdfrwt>
<pdfrwt beam="2">  1       21 0.34266393E-01 0.43938085E+03</pdfrwt>
<totfact> 0.79049802E+04</totfact>
</mgrwt>
</event>
<event>
 7    0  0.4779893E-002  0.4551333E+03  0.7546771E-02  0.1026202E+00
         21   -1    0    0  502  501  0.00000000000E+00  0.00000000000E+00  0.76240222193E+02  0.76240222193E+02  0.00000000000E+00 0.  1.
         21   -1    0    0  501  502 -0.00000000000E+00 -0.00000000000E+00 -0.67925523636E+03  0.67925523636E+03  0.00000000000E+00 0.  1.
      99926    2    1    2    0    0  0.00000000000E+00  0.00000000000E+00 -0.60301501417E+03  0.75549545855E+03  0.45513325585E+03 0.  0.
      99925    2    3    3    0    0  0.10333680731E+03  0.20475319636E+02 -0.30997964182E+03  0.41991391555E+03  0.26294977405E+03 0.  0.
         25    1    4    4    0    0  0.66533593705E+02  0.11436558248E+02 -0.21739050138E+03  0.25973766024E+03  0.12509000000E+03 0.  0.
         25    1    3    3    0    0 -0.10333680731E+03 -0.20475319636E+02 -0.29303537234E+03  0.33558154300E+03  0.12509000000E+03 0.  0.
         25    1    4    4    0    0  0.36803213601E+02  0.90387613875E+01 -0.92589140447E+02  0.16017625532E+03  0.12509000000E+03 0.  0.
<mgrwt>
<rscale>  2 0.45513326E+03</rscale>
<asrwt>0</asrwt>
<pdfrwt beam="1">  1       21 0.11211797E-01 0.45513326E+03</pdfrwt>
<pdfrwt beam="2">  1       21 0.99890478E-01 0.45513326E+03</pdfrwt>
<totfact> 0.49939054E+04</totfact>
</mgrwt>
</event>
<event>
 7    0  0.4779893E-002  0.4572817E+03  0.7546771E-02  0.1025573E+00
         21   -1    0    0  502  501  0.00000000000E+00  0.00000000000E+00  0.51080068709E+03  0.51080068709E+03  0.00000000000E+00 0. -1.
         21   -1    0    0  501  502 -0.00000000000E+00 -0.00000000000E+00 -0.10234254839E+03  0.10234254839E+03  0.00000000000E+00 0. -1.
      99926    2    1    2    0    0  0.00000000000E+00  0.00000000000E+00  0.40845813870E+03  0.61314323548E+03  0.45728172514E+03 0.  0.
      99925    2    3    3    0    0 -0.38810218520E+02 -0.10087565142E+03  0.20253841246E+03  0.34907397967E+03  0.26296141286E+03 0.  0.
         25    1    4    4    0    0  0.19432757263E+02 -0.61959628728E+02  0.10028767994E+03  0.17297905796E+03  0.12509000000E+03 0.  0.
         25    1    4    4    0    0 -0.58242975783E+02 -0.38916022689E+02  0.10225073253E+03  0.17609492171E+03  0.12509000000E+03 0.  0.
         25    1    3    3    0    0  0.38810218520E+02  0.10087565142E+03  0.20591972623E+03  0.26406925581E+03  0.12509000000E+03 0.  0.
<mgrwt>
<rscale>  2 0.45728173E+03</rscale>
<asrwt>0</asrwt>
<pdfrwt beam="1">  1       21 0.75117747E-01 0.45728173E+03</pdfrwt>
<pdfrwt beam="2">  1       21 0.15050375E-01 0.45728173E+03</pdfrwt>
<totfact> 0.56845083E+04</totfact>
</mgrwt>
</event>
<event>
 7    0  0.4779893E-002  0.4385321E+03  0.7546771E-02  0.1031198E+00
         21   -1    0    0  502  501  0.00000000000E+00  0.00000000000E+00  0.15181948798E+03  0.15181948798E+03  0.00000000000E+00 0. -1.
         21   -1    0    0  501  502 -0.00000000000E+00 -0.00000000000E+00 -0.31667610736E+03  0.31667610736E+03  0.00000000000E+00 0. -1.
      99926    2    1    2    0    0  0.00000000000E+00 -0.71054273576E-14 -0.16485661937E+03  0.46849559534E+03  0.43853211730E+03 0.  0.
      99925    2    3    3    0    0  0.68668341762E+02  0.62206417771E+02 -0.74961620277E+02  0.28873575963E+03  0.26299071238E+03 0.  0.
         25    1    4    4    0    0  0.28253099073E+02  0.55370663767E+02 -0.71814695953E+02  0.15706370258E+03  0.12509000000E+03 0.  0.
         25    1    3    3    0    0 -0.68668341762E+02 -0.62206417771E+02 -0.89894999096E+02  0.17975983571E+03  0.12509000000E+03 0.  0.
         25    1    4    4    0    0  0.40415242689E+02  0.68357540042E+01 -0.31469243237E+01  0.13167205705E+03  0.12509000000E+03 0.  0.
<mgrwt>
<rscale>  2 0.43853212E+03</rscale>
<asrwt>0</asrwt>
<pdfrwt beam="1">  1       21 0.22326396E-01 0.43853212E+03</pdfrwt>
<pdfrwt beam="2">  1       21 0.46570015E-01 0.43853212E+03</pdfrwt>
<totfact> 0.77148484E+04</totfact>
</mgrwt>
</event>
<event>
 7    0  0.4779893E-002  0.4582766E+03  0.7546771E-02  0.1025282E+00
         21   -1    0    0  502  501  0.00000000000E+00  0.00000000000E+00  0.43849272099E+03  0.43849272099E+03  0.00000000000E+00 0. -1.
         21   -1    0    0  501  502 -0.00000000000E+00 -0.00000000000E+00 -0.11973825711E+03  0.11973825711E+03  0.00000000000E+00 0. -1.
      99926    2    1    2    0    0  0.00000000000E+00  0.00000000000E+00  0.31875446388E+03  0.55823097811E+03  0.45827657225E+03 0.  0.
      99925    2    3    3    0    0  0.10219389580E+03  0.32848421826E+01  0.26716777666E+03  0.38863417117E+03  0.26306561080E+03 0.  0.
         25    1    4    4    0    0  0.74832155270E+02 -0.26272705604E+02  0.11459990891E+03  0.18727187120E+03  0.12509000000E+03 0.  0.
         25    1    3    3    0    0 -0.10219389580E+03 -0.32848421826E+01  0.51586687220E+02  0.16959680694E+03  0.12509000000E+03 0.  0.
         25    1    4    4    0    0  0.27361740528E+02  0.29557547787E+02  0.15256786775E+03  0.20136229996E+03  0.12509000000E+03 0.  0.
<mgrwt>
<rscale>  2 0.45827657E+03</rscale>
<asrwt>0</asrwt>
<pdfrwt beam="1">  1       21 0.64484223E-01 0.45827657E+03</pdfrwt>
<pdfrwt beam="2">  1       21 0.17608567E-01 0.45827657E+03</pdfrwt>
<totfact> 0.59761783E+04</totfact>
</mgrwt>
</event>
<event>
 7    0  0.4779893E-002  0.4560837E+03  0.7546771E-02  0.1025923E+00
         21   -1    0    0  502  501  0.00000000000E+00  0.00000000000E+00  0.14904997780E+04  0.14904997780E+04  0.00000000000E+00 0.  1.
         21   -1    0    0  501  502 -0.00000000000E+00 -0.00000000000E+00 -0.34889692663E+02  0.34889692663E+02  0.00000000000E+00 0.  1.
      99926    2    1    2    0    0  0.00000000000E+00 -0.14210854715E-13  0.14556100854E+04  0.15253894707E+04  0.45608367289E+03 0.  0.
      99925    2    3    3    0    0  0.43688871556E+02  0.10260395878E+03  0.10010295268E+04  0.10409028535E+04  0.26264490698E+03 0.  0.
         25    1    3    3    0    0 -0.43688871556E+02 -0.10260395878E+03  0.45458055858E+03  0.48448661714E+03  0.12509000000E+03 0.  0.
         25    1    4    4    0    0  0.53739008093E+02  0.34804283949E+02  0.56103690829E+03  0.57836765102E+03  0.12509000000E+03 0.  0.
         25    1    4    4    0    0 -0.10050136537E+02  0.67799674836E+02  0.43999261849E+03  0.46253520252E+03  0.12509000000E+03 0.  0.
<mgrwt>
<rscale>  2 0.45608367E+03</rscale>
<asrwt>0</asrwt>
<pdfrwt beam="1">  1       21 0.21919110E+00 0.45608367E+03</pdfrwt>
<pdfrwt beam="2">  1       21 0.51308382E-02 0.45608367E+03</pdfrwt>
<totfact> 0.22969739E+04</totfact>
</mgrwt>
</event>
<event>
 7    0  0.4779893E-002  0.4569163E+03  0.7546771E-02  0.1025679E+00
         21   -1    0    0  502  501  0.00000000000E+00  0.00000000000E+00  0.62872101290E+03  0.62872101290E+03  0.00000000000E+00 0.  1.
         21   -1    0    0  501  502 -0.00000000000E+00 -0.00000000000E+00 -0.83014770220E+02  0.83014770220E+02  0.00000000000E+00 0.  1.
      99926    2    1    2    0    0  0.00000000000E+00  0.00000000000E+00  0.54570624268E+03  0.71173578312E+03  0.45691631802E+03 0.  0.
      99925    2    3    3    0    0  0.83954316275E+02  0.36792671043E+02  0.23636979213E+03  0.36570316096E+03  0.26356421502E+03 0.  0.
         25    1    4    4    0    0  0.14935945184E+02  0.21591293191E+01  0.14723057264E+03  0.19378362654E+03  0.12509000000E+03 0.  0.
         25    1    3    3    0    0 -0.83954316275E+02 -0.36792671043E+02  0.30933645055E+03  0.34603262216E+03  0.12509000000E+03 0.  0.
         25    1    4    4    0    0  0.69018371090E+02  0.34633541724E+02  0.89139219497E+02  0.17191953441E+03  0.12509000000E+03 0.  0.
<mgrwt>
<rscale>  2 0.45691632E+03</rscale>
<asrwt>0</asrwt>
<pdfrwt beam="1">  1       21 0.92458970E-01 0.45691632E+03</pdfrwt>
<pdfrwt beam="2">  1       21 0.12208055E-01 0.45691632E+03</pdfrwt>
<totfact> 0.51489747E+04</totfact>
</mgrwt>
</event>
<event>
 7    0  0.4779893E-002  0.4545615E+03  0.7546771E-02  0.1026370E+00
         21   -1    0    0  502  501  0.00000000000E+00  0.00000000000E+00  0.23155308335E+03  0.23155308335E+03  0.00000000000E+00 0. -1.
         21   -1    0    0  501  502 -0.00000000000E+00 -0.00000000000E+00 -0.22308721328E+03  0.22308721328E+03  0.00000000000E+00 0. -1.
      99926    2    1    2    0    0  0.00000000000E+00  0.00000000000E+00  0.84658700748E+01  0.45464029663E+03  0.45456146819E+03 0.  0.
      99925    2    3    3    0    0  0.45956638064E+02 -0.90359633395E+02  0.54781498951E+02  0.28710068487E+03  0.26296181224E+03 0.  0.
         25    1    4    4    0    0 -0.10917001047E+02 -0.46787434594E+02  0.49498110214E+02  0.14284892706E+03  0.12509000000E+03 0.  0.
         25    1    3    3    0    0 -0.45956638064E+02  0.90359633395E+02 -0.46315628876E+02  0.16753961176E+03  0.12509000000E+03 0.  0.
         25    1    4    4    0    0  0.56873639111E+02 -0.43572198801E+02  0.52833887371E+01  0.14425175781E+03  0.12509000000E+03 0.  0.
<mgrwt>
<rscale>  2 0.45456147E+03</rscale>
<asrwt>0</asrwt>
<pdfrwt beam="1">  1       21 0.34051924E-01 0.45456147E+03</pdfrwt>
<pdfrwt beam="2">  1       21 0.32806943E-01 0.45456147E+03</pdfrwt>
<totfact> 0.68812616E+04</totfact>
</mgrwt>
</event>
<event>
 7    0  0.4779893E-002  0.4562356E+03  0.7546771E-02  0.1025879E+00
         21   -1    0    0  502  501  0.00000000000E+00  0.00000000000E+00  0.23832094236E+03  0.23832094236E+03  0.00000000000E+00 0.  1.
         21   -1    0    0  501  502 -0.00000000000E+00 -0.00000000000E+00 -0.21835152491E+03  0.21835152491E+03  0.00000000000E+00 0.  1.
      99926    2    1    2    0    0 -0.17763568394E-14 -0.14210854715E-13  0.19969417453E+02  0.45667246727E+03  0.45623564605E+03 0.  0.
      99925    2    3    3    0    0 -0.80947179602E+01 -0.81580413332E+02 -0.67146266339E+02  0.28359000495E+03  0.26304710895E+03 0.  0.
         25    1    3    3    0    0  0.80947179602E+01  0.81580413332E+02  0.87115683792E+02  0.17308246231E+03  0.12509000000E+03 0.  0.
         25    1    4    4    0    0  0.50723807591E+01 -0.66839749321E+02 -0.67021660498E+02  0.15694805578E+03  0.12509000000E+03 0.  0.
         25    1    4    4    0    0 -0.13167098719E+02 -0.14740664011E+02 -0.12460584135E+00  0.12664194917E+03  0.12509000000E+03 0.  0.
<mgrwt>
<rscale>  2 0.45623565E+03</rscale>
<asrwt>0</asrwt>
<pdfrwt beam="1">  1       21 0.35047198E-01 0.45623565E+03</pdfrwt>
<pdfrwt beam="2">  1       21 0.32110518E-01 0.45623565E+03</pdfrwt>
<totfact> 0.67753014E+04</totfact>
</mgrwt>
</event>
<event>
 7    0  0.4779893E-002  0.4583529E+03  0.7546771E-02  0.1025260E+00
         21   -1    0    0  502  501  0.00000000000E+00  0.00000000000E+00  0.23162534432E+03  0.23162534432E+03  0.00000000000E+00 0.  1.
         21   -1    0    0  501  502 -0.00000000000E+00 -0.00000000000E+00 -0.22675345176E+03  0.22675345176E+03  0.00000000000E+00 0.  1.
      99926    2    1    2    0    0 -0.71054273576E-14  0.00000000000E+00  0.48718925629E+01  0.45837879607E+03  0.45835290482E+03 0.  0.
      99925    2    3    3    0    0  0.42756671153E+02 -0.92312945677E+02 -0.53099323234E+02  0.28703708245E+03  0.26309871855E+03 0.  0.
         25    1    4    4    0    0 -0.19804196645E+02 -0.44813960284E+02 -0.27466277543E+02  0.13712184998E+03  0.12509000000E+03 0.  0.
         25    1    4    4    0    0  0.62560867798E+02 -0.47498985393E+02 -0.25633045691E+02  0.14991523246E+03  0.12509000000E+03 0.  0.
         25    1    3    3    0    0 -0.42756671153E+02  0.92312945677E+02  0.57971215797E+02  0.17134171363E+03  0.12509000000E+03 0.  0.
<mgrwt>
<rscale>  2 0.45835290E+03</rscale>
<asrwt>0</asrwt>
<pdfrwt beam="1">  1       21 0.34062551E-01 0.45835290E+03</pdfrwt>
<pdfrwt beam="2">  1       21 0.33346096E-01 0.45835290E+03</pdfrwt>
<totfact> 0.66501976E+04</totfact>
</mgrwt>
</event>
<event>
 7    0  0.4779893E-002  0.4395923E+03  0.7546771E-02  0.1030872E+00
         21   -1    0    0  502  501  0.00000000000E+00  0.00000000000E+00  0.79922101426E+03  0.79922101426E+03  0.00000000000E+00 0.  1.
         21   -1    0    0  501  502 -0.00000000000E+00 -0.00000000000E+00 -0.60446801818E+02  0.60446801818E+02  0.00000000000E+00 0.  1.
      99926    2    1    2    0    0  0.00000000000E+00  0.71054273576E-14  0.73877421244E+03  0.85966781607E+03  0.43959233050E+03 0.  0.
      99925    2    3    3    0    0  0.19836454181E+02  0.59283231899E+02  0.61895813165E+03  0.67551736722E+03  0.26326138756E+03 0.  0.
         25    1    4    4    0    0  0.84953743333E+01 -0.11391191473E+02  0.31045756709E+03  0.33501244707E+03  0.12509000000E+03 0.  0.
         25    1    4    4    0    0  0.11341079848E+02  0.70674423373E+02  0.30850056456E+03  0.34050492015E+03  0.12509000000E+03 0.  0.
         25    1    3    3    0    0 -0.19836454181E+02 -0.59283231899E+02  0.11981608079E+03  0.18415044886E+03  0.12509000000E+03 0.  0.
<mgrwt>
<rscale>  2 0.43959233E+03</rscale>
<asrwt>0</asrwt>
<pdfrwt beam="1">  1       21 0.11753250E+00 0.43959233E+03</pdfrwt>
<pdfrwt beam="2">  1       21 0.88892360E-02 0.43959233E+03</pdfrwt>
<totfact> 0.50886073E+04</totfact>
</mgrwt>
</event>
<event>
 7    0  0.4779893E-002  0.4589507E+03  0.7546771E-02  0.1025086E+00
         21   -1    0    0  502  501  0.00000000000E+00  0.00000000000E+00  0.28888964976E+02  0.28888964976E+02  0.00000000000E+00 0. -1.
         21   -1    0    0  501  502 -0.00000000000E+00 -0.00000000000E+00 -0.18228048556E+04  0.18228048556E+04  0.00000000000E+00 0. -1.
      99926    2    1    2    0    0  0.35527136788E-14  0.71054273576E-14 -0.17939158906E+04  0.18516938206E+04  0.45895074085E+03 0.  0.
      99925    2    3    3    0    0 -0.23773717065E+02 -0.37532681423E+02 -0.15608664604E+04  0.15834897251E+04  0.26298614129E+03 0.  0.
         25    1    3    3    0    0  0.23773717065E+02  0.37532681423E+02 -0.23304943019E+03  0.26820409544E+03  0.12509000000E+03 0.  0.
         25    1    4    4    0    0  0.17841190277E+02  0.55023533627E+01 -0.83035414667E+03  0.83993100964E+03  0.12509000000E+03 0.  0.
         25    1    4    4    0    0 -0.41614907341E+02 -0.43035034785E+02 -0.73051231373E+03  0.74355871547E+03  0.12509000000E+03 0.  0.
<mgrwt>
<rscale>  2 0.45895074E+03</rscale>
<asrwt>0</asrwt>
<pdfrwt beam="1">  1       21 0.42483776E-02 0.45895074E+03</pdfrwt>
<pdfrwt beam="2">  1       21 0.26805951E+00 0.45895074E+03</pdfrwt>
<totfact> 0.15796198E+04</totfact>
</mgrwt>
</event>
<event>
 7    0  0.4779893E-002  0.4625028E+03  0.7546771E-02  0.1024058E+00
         21   -1    0    0  502  501  0.00000000000E+00  0.00000000000E+00  0.12763080339E+03  0.12763080339E+03  0.00000000000E+00 0.  1.
         21   -1    0    0  501  502 -0.00000000000E+00 -0.00000000000E+00 -0.41899930884E+03  0.41899930884E+03  0.00000000000E+00 0.  1.
      99926    2    1    2    0    0  0.00000000000E+00  0.00000000000E+00 -0.29136850545E+03  0.54663011223E+03  0.46250283634E+03 0.  0.
      99925    2    3    3    0    0 -0.53223531307E+02  0.24128122021E+02 -0.57867133459E+02  0.27536398943E+03  0.26279613959E+03 0.  0.
         25    1    3    3    0    0  0.53223531307E+02 -0.24128122021E+02 -0.23350137199E+03  0.27126612280E+03  0.12509000000E+03 0.  0.
         25    1    4    4    0    0 -0.34883052006E+02 -0.23029783513E+02 -0.10305212829E+02  0.13229098139E+03  0.12509000000E+03 0.  0.
         25    1    4    4    0    0 -0.18340479301E+02  0.47157905534E+02 -0.47561920629E+02  0.14307300804E+03  0.12509000000E+03 0.  0.
<mgrwt>
<rscale>  2 0.46250284E+03</rscale>
<asrwt>0</asrwt>
<pdfrwt beam="1">  1       21 0.18769236E-01 0.46250284E+03</pdfrwt>
<pdfrwt beam="2">  1       21 0.61617545E-01 0.46250284E+03</pdfrwt>
<totfact> 0.58536228E+04</totfact>
</mgrwt>
</event>
<event>
 7    0  0.4779893E-002  0.4515878E+03  0.7546771E-02  0.1027250E+00
         21   -1    0    0  502  501  0.00000000000E+00  0.00000000000E+00  0.93813164919E+02  0.93813164919E+02  0.00000000000E+00 0.  1.
         21   -1    0    0  501  502 -0.00000000000E+00 -0.00000000000E+00 -0.54345124095E+03  0.54345124095E+03  0.00000000000E+00 0.  1.
      99926    2    1    2    0    0  0.00000000000E+00 -0.35527136788E-14 -0.44963807603E+03  0.63726440587E+03  0.45158778058E+03 0.  0.
      99925    2    3    3    0    0 -0.79500343255E+02  0.22210514165E+02 -0.18172481110E+03  0.33028128395E+03  0.26315054254E+03 0.  0.
         25    1    4    4    0    0 -0.60491690221E+02 -0.23614060535E+02 -0.10044167849E+03  0.17306908251E+03  0.12509000000E+03 0.  0.
         25    1    4    4    0    0 -0.19008653034E+02  0.45824574700E+02 -0.81283132604E+02  0.15721220144E+03  0.12509000000E+03 0.  0.
         25    1    3    3    0    0  0.79500343255E+02 -0.22210514165E+02 -0.26791326494E+03  0.30698312193E+03  0.12509000000E+03 0.  0.
<mgrwt>
<rscale>  2 0.45158778E+03</rscale>
<asrwt>0</asrwt>
<pdfrwt beam="1">  1       21 0.13796054E-01 0.45158778E+03</pdfrwt>
<pdfrwt beam="2">  1       21 0.79919299E-01 0.45158778E+03</pdfrwt>
<totfact> 0.57987061E+04</totfact>
</mgrwt>
</event>
<event>
 7    0  0.4779893E-002  0.4632884E+03  0.7546771E-02  0.1023832E+00
         21   -1    0    0  502  501  0.00000000000E+00  0.00000000000E+00  0.43705791745E+02  0.43705791745E+02  0.00000000000E+00 0.  1.
         21   -1    0    0  501  502 -0.00000000000E+00 -0.00000000000E+00 -0.12277326879E+04  0.12277326879E+04  0.00000000000E+00 0.  1.
      99926    2    1    2    0    0  0.14210854715E-13  0.71054273576E-14 -0.11840268961E+04  0.12714384796E+04  0.46328837315E+03 0.  0.
      99925    2    3    3    0    0 -0.85499387199E+02 -0.63454571351E+02 -0.58338630583E+03  0.64874011391E+03  0.26303521767E+03 0.  0.
         25    1    3    3    0    0  0.85499387199E+02  0.63454571351E+02 -0.60064059029E+03  0.62269836569E+03  0.12509000000E+03 0.  0.
         25    1    4    4    0    0 -0.73299426953E+02 -0.55639448808E+01 -0.28362934662E+03  0.31858574644E+03  0.12509000000E+03 0.  0.
         25    1    4    4    0    0 -0.12199960246E+02 -0.57890626470E+02 -0.29975695921E+03  0.33015436747E+03  0.12509000000E+03 0.  0.
<mgrwt>
<rscale>  2 0.46328837E+03</rscale>
<asrwt>0</asrwt>
<pdfrwt beam="1">  1       21 0.64273228E-02 0.46328837E+03</pdfrwt>
<pdfrwt beam="2">  1       21 0.18054891E+00 0.46328837E+03</pdfrwt>
<totfact> 0.28098791E+04</totfact>
</mgrwt>
</event>
<event>
 7    0  0.4779893E-002  0.4545754E+03  0.7546771E-02  0.1026366E+00
         21   -1    0    0  502  501  0.00000000000E+00  0.00000000000E+00  0.32689654981E+03  0.32689654981E+03  0.00000000000E+00 0. -1.
         21   -1    0    0  501  502 -0.00000000000E+00 -0.00000000000E+00 -0.15803070821E+03  0.15803070821E+03  0.00000000000E+00 0. -1.
      99926    2    1    2    0    0 -0.14210854715E-13  0.00000000000E+00  0.16886584160E+03  0.48492725802E+03  0.45457537671E+03 0.  0.
      99925    2    3    3    0    0  0.77372980352E+02 -0.58999831131E+02  0.16696389229E+03  0.32643850866E+03  0.26309238006E+03 0.  0.
         25    1    4    4    0    0  0.11088844051E+02 -0.23197789246E+01  0.96821623115E+02  0.15858839377E+03  0.12509000000E+03 0.  0.
         25    1    3    3    0    0 -0.77372980352E+02  0.58999831131E+02  0.19019493115E+01  0.15848874936E+03  0.12509000000E+03 0.  0.
         25    1    4    4    0    0  0.66284136301E+02 -0.56680052206E+02  0.70142269173E+02  0.16785011489E+03  0.12509000000E+03 0.  0.
<mgrwt>
<rscale>  2 0.45457538E+03</rscale>
<asrwt>0</asrwt>
<pdfrwt beam="1">  1       21 0.48073022E-01 0.45457538E+03</pdfrwt>
<pdfrwt beam="2">  1       21 0.23239810E-01 0.45457538E+03</pdfrwt>
<totfact> 0.66567251E+04</totfact>
</mgrwt>
</event>
<event>
 7    0  0.4779893E-002  0.4545369E+03  0.7546771E-02  0.1026378E+00
         21   -1    0    0  502  501  0.00000000000E+00  0.00000000000E+00  0.65668223099E+03  0.65668223099E+03  0.00000000000E+00 0. -1.
         21   -1    0    0  501  502 -0.00000000000E+00 -0.00000000000E+00 -0.78654407826E+02  0.78654407826E+02  0.00000000000E+00 0. -1.
      99926    2    1    2    0    0 -0.14210854715E-13  0.14210854715E-13  0.57802782316E+03  0.73533663882E+03  0.45453691603E+03 0.  0.
      99925    2    3    3    0    0  0.77738391526E+02 -0.78116238761E+02  0.39530536118E+03  0.48798989740E+03  0.26405000873E+03 0.  0.
         25    1    3    3    0    0 -0.77738391526E+02  0.78116238761E+02  0.18272246198E+03  0.24734674141E+03  0.12509000000E+03 0.  0.
         25    1    4    4    0    0  0.16856572617E+02 -0.11051113619E+01  0.19415632731E+03  0.23158055369E+03  0.12509000000E+03 0.  0.
         25    1    4    4    0    0  0.60881818910E+02 -0.77011127399E+02  0.20114903387E+03  0.25640934371E+03  0.12509000000E+03 0.  0.
<mgrwt>
<rscale>  2 0.45453692E+03</rscale>
<asrwt>0</asrwt>
<pdfrwt beam="1">  1       21 0.96570914E-01 0.45453692E+03</pdfrwt>
<pdfrwt beam="2">  1       21 0.11566825E-01 0.45453692E+03</pdfrwt>
<totfact> 0.51212271E+04</totfact>
</mgrwt>
</event>
<event>
 7    0  0.4779893E-002  0.4547386E+03  0.7546771E-02  0.1026318E+00
         21   -1    0    0  502  501  0.00000000000E+00  0.00000000000E+00  0.10257926953E+03  0.10257926953E+03  0.00000000000E+00 0. -1.
         21   -1    0    0  501  502 -0.00000000000E+00 -0.00000000000E+00 -0.50396921961E+03  0.50396921961E+03  0.00000000000E+00 0. -1.
      99926    2    1    2    0    0 -0.17763568394E-14  0.00000000000E+00 -0.40138995008E+03  0.60654848914E+03  0.45473858165E+03 0.  0.
      99925    2    3    3    0    0  0.60745654148E+01 -0.66651438128E+02 -0.13142751684E+03  0.30157875619E+03  0.26305368170E+03 0.  0.
         25    1    3    3    0    0 -0.60745654148E+01  0.66651438128E+02 -0.26996243324E+03  0.30496973294E+03  0.12509000000E+03 0.  0.
         25    1    4    4    0    0  0.39465440183E+02 -0.48532052291E+02 -0.79792498336E+02  0.16101935275E+03  0.12509000000E+03 0.  0.
         25    1    4    4    0    0 -0.33390874768E+02 -0.18119385838E+02 -0.51635018504E+02  0.14055940344E+03  0.12509000000E+03 0.  0.
<mgrwt>
<rscale>  2 0.45473858E+03</rscale>
<asrwt>0</asrwt>
<pdfrwt beam="1">  1       21 0.15085187E-01 0.45473858E+03</pdfrwt>
<pdfrwt beam="2">  1       21 0.74113118E-01 0.45473858E+03</pdfrwt>
<totfact> 0.58397498E+04</totfact>
</mgrwt>
</event>
<event>
 7    0  0.4779893E-002  0.4464510E+03  0.7546771E-02  0.1028786E+00
         21   -1    0    0  502  501  0.00000000000E+00  0.00000000000E+00  0.34892745311E+02  0.34892745311E+02  0.00000000000E+00 0. -1.
         21   -1    0    0  501  502 -0.00000000000E+00 -0.00000000000E+00 -0.14280799137E+04  0.14280799137E+04  0.00000000000E+00 0. -1.
      99926    2    1    2    0    0  0.00000000000E+00  0.00000000000E+00 -0.13931871684E+04  0.14629726590E+04  0.44645102178E+03 0.  0.
      99925    2    3    3    0    0 -0.69397005140E+02 -0.48649083106E+02 -0.10863614721E+04  0.11209606803E+04  0.26303786990E+03 0.  0.
         25    1    3    3    0    0  0.69397005140E+02  0.48649083106E+02 -0.30682569626E+03  0.34201197873E+03  0.12509000000E+03 0.  0.
         25    1    4    4    0    0  0.26584602186E+01 -0.14043569820E+02 -0.56629709466E+03  0.58012429426E+03  0.12509000000E+03 0.  0.
         25    1    4    4    0    0 -0.72055465359E+02 -0.34605513286E+02 -0.52006437747E+03  0.54083638602E+03  0.12509000000E+03 0.  0.
<mgrwt>
<rscale>  2 0.44645102E+03</rscale>
<asrwt>0</asrwt>
<pdfrwt beam="1">  1       21 0.51312864E-02 0.44645102E+03</pdfrwt>
<pdfrwt beam="2">  1       21 0.21001174E+00 0.44645102E+03</pdfrwt>
<totfact> 0.26412199E+04</totfact>
</mgrwt>
</event>
<event>
 7    0  0.4779893E-002  0.4548295E+03  0.7546771E-02  0.1026292E+00
         21   -1    0    0  502  501  0.00000000000E+00  0.00000000000E+00  0.42237197135E+03  0.42237197135E+03  0.00000000000E+00 0.  1.
         21   -1    0    0  501  502 -0.00000000000E+00 -0.00000000000E+00 -0.12244528851E+03  0.12244528851E+03  0.00000000000E+00 0.  1.
      99926    2    1    2    0    0  0.00000000000E+00  0.71054273576E-14  0.29992668284E+03  0.54481725986E+03  0.45482945327E+03 0.  0.
      99925    2    3    3    0    0 -0.93858783928E+02 -0.55157663860E+02  0.15157619747E+03  0.32231509400E+03  0.26279238379E+03 0.  0.
         25    1    4    4    0    0 -0.52628313492E+02 -0.36372336725E+02  0.12188316528E+03  0.18599919446E+03  0.12509000000E+03 0.  0.
         25    1    4    4    0    0 -0.41230470436E+02 -0.18785327134E+02  0.29693032189E+02  0.13631589954E+03  0.12509000000E+03 0.  0.
         25    1    3    3    0    0  0.93858783928E+02  0.55157663860E+02  0.14835048538E+03  0.22250216586E+03  0.12509000000E+03 0.  0.
<mgrwt>
<rscale>  2 0.45482945E+03</rscale>
<asrwt>0</asrwt>
<pdfrwt beam="1">  1       21 0.62113525E-01 0.45482945E+03</pdfrwt>
<pdfrwt beam="2">  1       21 0.18006660E-01 0.45482945E+03</pdfrwt>
<totfact> 0.62294322E+04</totfact>
</mgrwt>
</event>
<event>
 7    0  0.4779893E-002  0.4520545E+03  0.7546771E-02  0.1027111E+00
         21   -1    0    0  502  501  0.00000000000E+00  0.00000000000E+00  0.78091973685E+03  0.78091973685E+03  0.00000000000E+00 0.  1.
         21   -1    0    0  501  502 -0.00000000000E+00 -0.00000000000E+00 -0.65420693339E+02  0.65420693339E+02  0.00000000000E+00 0.  1.
      99926    2    1    2    0    0  0.00000000000E+00  0.17763568394E-14  0.71549904351E+03  0.84634043019E+03  0.45205446852E+03 0.  0.
      99925    2    3    3    0    0 -0.96874308078E+02  0.12592390097E+02  0.54685634967E+03  0.61475660921E+03  0.26330708600E+03 0.  0.
         25    1    4    4    0    0 -0.53088459147E+02  0.33675627757E+01  0.18718956467E+03  0.23133777512E+03  0.12509000000E+03 0.  0.
         25    1    4    4    0    0 -0.43785848931E+02  0.92248273209E+01  0.35966678500E+03  0.38341883409E+03  0.12509000000E+03 0.  0.
         25    1    3    3    0    0  0.96874308078E+02 -0.12592390097E+02  0.16864269384E+03  0.23158382098E+03  0.12509000000E+03 0.  0.
<mgrwt>
<rscale>  2 0.45205447E+03</rscale>
<asrwt>0</asrwt>
<pdfrwt beam="1">  1       21 0.11484113E+00 0.45205447E+03</pdfrwt>
<pdfrwt beam="2">  1       21 0.96206907E-02 0.45205447E+03</pdfrwt>
<totfact> 0.46672692E+04</totfact>
</mgrwt>
</event>
<event>
 7    0  0.4779893E-002  0.4379514E+03  0.7546771E-02  0.1031377E+00
         21   -1    0    0  502  501  0.00000000000E+00  0.00000000000E+00  0.10006557383E+03  0.10006557383E+03  0.00000000000E+00 0.  1.
         21   -1    0    0  501  502 -0.00000000000E+00 -0.00000000000E+00 -0.47918944464E+03  0.47918944464E+03  0.00000000000E+00 0.  1.
      99926    2    1    2    0    0  0.00000000000E+00  0.00000000000E+00 -0.37912387081E+03  0.57925501847E+03  0.43795144365E+03 0.  0.
      99925    2    3    3    0    0 -0.28586683643E+02  0.85559229467E+02 -0.28478294870E+03  0.39846426120E+03  0.26369463277E+03 0.  0.
         25    1    3    3    0    0  0.28586683643E+02 -0.85559229467E+02 -0.94340922112E+02  0.18079075727E+03  0.12509000000E+03 0.  0.
         25    1    4    4    0    0 -0.36956722879E+02  0.62605888050E+02 -0.10808842351E+03  0.18059875963E+03  0.12509000000E+03 0.  0.
         25    1    4    4    0    0  0.83700392361E+01  0.22953341416E+02 -0.17669452519E+03  0.21786550156E+03  0.12509000000E+03 0.  0.
<mgrwt>
<rscale>  2 0.43795144E+03</rscale>
<asrwt>0</asrwt>
<pdfrwt beam="1">  1       21 0.14715526E-01 0.43795144E+03</pdfrwt>
<pdfrwt beam="2">  1       21 0.70469034E-01 0.43795144E+03</pdfrwt>
<totfact> 0.68786183E+04</totfact>
</mgrwt>
</event>
<event>
 7    0  0.4779893E-002  0.4550318E+03  0.7546771E-02  0.1026232E+00
         21   -1    0    0  502  501  0.00000000000E+00  0.00000000000E+00  0.17086487991E+03  0.17086487991E+03  0.00000000000E+00 0.  1.
         21   -1    0    0  501  502 -0.00000000000E+00 -0.00000000000E+00 -0.30294983478E+03  0.30294983478E+03  0.00000000000E+00 0.  1.
      99926    2    1    2    0    0 -0.14210854715E-13  0.00000000000E+00 -0.13208495487E+03  0.47381471469E+03  0.45503181049E+03 0.  0.
      99925    2    3    3    0    0 -0.10328960315E+03 -0.45855879660E+02 -0.76011852501E+02  0.29615435128E+03  0.26297926581E+03 0.  0.
         25    1    3    3    0    0  0.10328960315E+03  0.45855879660E+02 -0.56073102367E+02  0.17766036341E+03  0.12509000000E+03 0.  0.
         25    1    4    4    0    0 -0.15900633649E+02  0.87344593592E+00 -0.42655547815E+02  0.13311873241E+03  0.12509000000E+03 0.  0.
         25    1    4    4    0    0 -0.87388969497E+02 -0.46729325596E+02 -0.33356304685E+02  0.16303561888E+03  0.12509000000E+03 0.  0.
<mgrwt>
<rscale>  2 0.45503181E+03</rscale>
<asrwt>0</asrwt>
<pdfrwt beam="1">  1       21 0.25127189E-01 0.45503181E+03</pdfrwt>
<pdfrwt beam="2">  1       21 0.44551446E-01 0.45503181E+03</pdfrwt>
<totfact> 0.67136248E+04</totfact>
</mgrwt>
</event>
<event>
 7    0  0.4779893E-002  0.4539750E+03  0.7546771E-02  0.1026543E+00
         21   -1    0    0  502  501  0.00000000000E+00  0.00000000000E+00  0.23392147792E+03  0.23392147792E+03  0.00000000000E+00 0. -1.
         21   -1    0    0  501  502 -0.00000000000E+00 -0.00000000000E+00 -0.22025909730E+03  0.22025909730E+03  0.00000000000E+00 0. -1.
      99926    2    1    2    0    0  0.00000000000E+00  0.00000000000E+00  0.13662380628E+02  0.45418057522E+03  0.45397503705E+03 0.  0.
      99925    2    3    3    0    0 -0.37361863680E+02 -0.10589026835E+03  0.44391079018E+01  0.28583202415E+03  0.26281473049E+03 0.  0.
         25    1    4    4    0    0 -0.38407480914E+02 -0.62813330614E+02  0.36565902524E+02  0.14968374134E+03  0.12509000000E+03 0.  0.
         25    1    3    3    0    0  0.37361863680E+02  0.10589026835E+03  0.92232727259E+01  0.16834855107E+03  0.12509000000E+03 0.  0.
         25    1    4    4    0    0  0.10456172337E+01 -0.43076937733E+02 -0.32126794622E+02  0.13614828281E+03  0.12509000000E+03 0.  0.
<mgrwt>
<rscale>  2 0.45397504E+03</rscale>
<asrwt>0</asrwt>
<pdfrwt beam="1">  1       21 0.34400217E-01 0.45397504E+03</pdfrwt>
<pdfrwt beam="2">  1       21 0.32391044E-01 0.45397504E+03</pdfrwt>
<totfact> 0.69169824E+04</totfact>
</mgrwt>
</event>
<event>
 7    0  0.4779893E-002  0.4062087E+03  0.7546771E-02  0.1041651E+00
         21   -1    0    0  502  501  0.00000000000E+00  0.00000000000E+00  0.51416191091E+02  0.51416191091E+02  0.00000000000E+00 0.  1.
         21   -1    0    0  501  502 -0.00000000000E+00 -0.00000000000E+00 -0.80230330340E+03  0.80230330340E+03  0.00000000000E+00 0.  1.
      99926    2    1    2    0    0  0.17763568394E-14  0.00000000000E+00 -0.75088711231E+03  0.85371949449E+03  0.40620871463E+03 0.  0.
      99925    2    3    3    0    0  0.12904751751E+02  0.54757571041E+02 -0.49253859664E+03  0.56121925884E+03  0.26307387388E+03 0.  0.
         25    1    4    4    0    0 -0.33233812940E+02  0.36065493156E+02 -0.24183646828E+03  0.27665428175E+03  0.12509000000E+03 0.  0.
         25    1    3    3    0    0 -0.12904751751E+02 -0.54757571041E+02 -0.25834851568E+03  0.29250023565E+03  0.12509000000E+03 0.  0.
         25    1    4    4    0    0  0.46138564691E+02  0.18692077885E+02 -0.25070212835E+03  0.28456497709E+03  0.12509000000E+03 0.  0.
<mgrwt>
<rscale>  2 0.40620871E+03</rscale>
<asrwt>0</asrwt>
<pdfrwt beam="1">  1       21 0.75612045E-02 0.40620871E+03</pdfrwt>
<pdfrwt beam="2">  1       21 0.11798578E+00 0.40620871E+03</pdfrwt>
<totfact> 0.67685916E+04</totfact>
</mgrwt>
</event>
<event>
 7    0  0.4779893E-002  0.4544377E+03  0.7546771E-02  0.1026407E+00
         21   -1    0    0  502  501  0.00000000000E+00  0.00000000000E+00  0.23928172467E+03  0.23928172467E+03  0.00000000000E+00 0.  1.
         21   -1    0    0  501  502 -0.00000000000E+00 -0.00000000000E+00 -0.21576407058E+03  0.21576407058E+03  0.00000000000E+00 0.  1.
      99926    2    1    2    0    0  0.14210854715E-13  0.00000000000E+00  0.23517654086E+02  0.45504579525E+03  0.45443766978E+03 0.  0.
      99925    2    3    3    0    0 -0.96659190754E+02 -0.39436966679E+02  0.57194420823E+02  0.28867300235E+03  0.26298788378E+03 0.  0.
         25    1    3    3    0    0  0.96659190754E+02  0.39436966679E+02 -0.33676766737E+02  0.16637279290E+03  0.12509000000E+03 0.  0.
         25    1    4    4    0    0 -0.36856848450E+02 -0.49554100850E+02  0.54077986794E+02  0.14961942703E+03  0.12509000000E+03 0.  0.
         25    1    4    4    0    0 -0.59802342304E+02  0.10117134171E+02  0.31164340291E+01  0.13905357532E+03  0.12509000000E+03 0.  0.
<mgrwt>
<rscale>  2 0.45443767E+03</rscale>
<asrwt>0</asrwt>
<pdfrwt beam="1">  1       21 0.35188489E-01 0.45443767E+03</pdfrwt>
<pdfrwt beam="2">  1       21 0.31730011E-01 0.45443767E+03</pdfrwt>
<totfact> 0.68850865E+04</totfact>
</mgrwt>
</event>
<event>
 7    0  0.4779893E-002  0.4791104E+03  0.7546771E-02  0.1019380E+00
         21   -1    0    0  502  501  0.00000000000E+00  0.00000000000E+00  0.47612244297E+02  0.47612244297E+02  0.00000000000E+00 0. -1.
         21   -1    0    0  501  502 -0.00000000000E+00 -0.00000000000E+00 -0.12052926153E+04  0.12052926153E+04  0.00000000000E+00 0. -1.
      99926    2    1    2    0    0 -0.88817841970E-15 -0.14210854715E-13 -0.11576803710E+04  0.12529048596E+04  0.47911036912E+03 0.  0.
      99925    2    3    3    0    0 -0.79202071830E+01 -0.11225597210E+03 -0.52077612788E+03  0.59414947559E+03  0.26294807665E+03 0.  0.
         25    1    4    4    0    0 -0.10146843836E+02 -0.21502431737E+02 -0.18589426680E+03  0.22532088127E+03  0.12509000000E+03 0.  0.
         25    1    3    3    0    0  0.79202071830E+01  0.11225597210E+03 -0.63690424316E+03  0.65875538405E+03  0.12509000000E+03 0.  0.
         25    1    4    4    0    0  0.22266366534E+01 -0.90753540367E+02 -0.33488186108E+03  0.36882859431E+03  0.12509000000E+03 0.  0.
<mgrwt>
<rscale>  2 0.47911037E+03</rscale>
<asrwt>0</asrwt>
<pdfrwt beam="1">  1       21 0.70018008E-02 0.47911037E+03</pdfrwt>
<pdfrwt beam="2">  1       21 0.17724891E+00 0.47911037E+03</pdfrwt>
<totfact> 0.25400871E+04</totfact>
</mgrwt>
</event>
<event>
 7    0  0.4779893E-002  0.4498342E+03  0.7546771E-02  0.1027771E+00
         21   -1    0    0  502  501  0.00000000000E+00  0.00000000000E+00  0.10193171645E+03  0.10193171645E+03  0.00000000000E+00 0. -1.
         21   -1    0    0  501  502 -0.00000000000E+00 -0.00000000000E+00 -0.49629020352E+03  0.49629020352E+03  0.00000000000E+00 0. -1.
      99926    2    1    2    0    0  0.00000000000E+00  0.00000000000E+00 -0.39435848708E+03  0.59822191997E+03  0.44983424637E+03 0.  0.
      99925    2    3    3    0    0 -0.77295202912E+02 -0.53269350143E+02 -0.17777028771E+03  0.33107003758E+03  0.26304547618E+03 0.  0.
         25    1    4    4    0    0 -0.25100275363E+02 -0.53751115558E+02 -0.57677616400E+02  0.14997807100E+03  0.12509000000E+03 0.  0.
         25    1    4    4    0    0 -0.52194927549E+02  0.48176541460E+00 -0.12009267131E+03  0.18109196659E+03  0.12509000000E+03 0.  0.
         25    1    3    3    0    0  0.77295202912E+02  0.53269350143E+02 -0.21658819937E+03  0.26715188239E+03  0.12509000000E+03 0.  0.
<mgrwt>
<rscale>  2 0.44983425E+03</rscale>
<asrwt>0</asrwt>
<pdfrwt beam="1">  1       21 0.14989959E-01 0.44983425E+03</pdfrwt>
<pdfrwt beam="2">  1       21 0.72983852E-01 0.44983425E+03</pdfrwt>
<totfact> 0.61249863E+04</totfact>
</mgrwt>
</event>
<event>
 7    0  0.4779893E-002  0.4552565E+03  0.7546771E-02  0.1026166E+00
         21   -1    0    0  502  501  0.00000000000E+00  0.00000000000E+00  0.58484713240E+02  0.58484713240E+02  0.00000000000E+00 0. -1.
         21   -1    0    0  501  502 -0.00000000000E+00 -0.00000000000E+00 -0.88595157373E+03  0.88595157373E+03  0.00000000000E+00 0. -1.
      99926    2    1    2    0    0  0.35527136788E-14  0.13322676296E-14 -0.82746686049E+03  0.94443628697E+03  0.45525651553E+03 0.  0.
      99925    2    3    3    0    0 -0.27043455644E+02  0.27836904465E+01 -0.29215358962E+03  0.39403016101E+03  0.26299610345E+03 0.  0.
         25    1    4    4    0    0  0.16587548072E+02  0.19399384392E+02 -0.11227808628E+03  0.17001576287E+03  0.12509000000E+03 0.  0.
         25    1    4    4    0    0 -0.43631003717E+02 -0.16615693946E+02 -0.17987550334E+03  0.22401439814E+03  0.12509000000E+03 0.  0.
         25    1    3    3    0    0  0.27043455644E+02 -0.27836904465E+01 -0.53531327087E+03  0.55040612596E+03  0.12509000000E+03 0.  0.
<mgrwt>
<rscale>  2 0.45525652E+03</rscale>
<asrwt>0</asrwt>
<pdfrwt beam="1">  1       21 0.86006938E-02 0.45525652E+03</pdfrwt>
<pdfrwt beam="2">  1       21 0.13028699E+00 0.45525652E+03</pdfrwt>
<totfact> 0.41284038E+04</totfact>
</mgrwt>
</event>
<event>
 7    0  0.4779893E-002  0.4264743E+03  0.7546771E-02  0.1034980E+00
         21   -1    0    0  502  501  0.00000000000E+00  0.00000000000E+00  0.43320282267E+03  0.43320282267E+03  0.00000000000E+00 0. -1.
         21   -1    0    0  501  502 -0.00000000000E+00 -0.00000000000E+00 -0.10496255412E+03  0.10496255412E+03  0.00000000000E+00 0. -1.
      99926    2    1    2    0    0  0.00000000000E+00  0.35527136788E-14  0.32824026855E+03  0.53816537678E+03  0.42647426519E+03 0.  0.
      99925    2    3    3    0    0 -0.19176158643E+02 -0.11897935388E+02  0.11270834773E+03  0.28794386908E+03  0.26400608736E+03 0.  0.
         25    1    3    3    0    0  0.19176158643E+02  0.11897935388E+02  0.21553192082E+03  0.25022150771E+03  0.12509000000E+03 0.  0.
         25    1    4    4    0    0 -0.20830002905E+02  0.31237270163E+02  0.73807736750E+02  0.15001581974E+03  0.12509000000E+03 0.  0.
         25    1    4    4    0    0  0.16538442621E+01 -0.43135205551E+02  0.38900610979E+02  0.13792804933E+03  0.12509000000E+03 0.  0.
<mgrwt>
<rscale>  2 0.42647427E+03</rscale>
<asrwt>0</asrwt>
<pdfrwt beam="1">  1       21 0.63706297E-01 0.42647427E+03</pdfrwt>
<pdfrwt beam="2">  1       21 0.15435670E-01 0.42647427E+03</pdfrwt>
<totfact> 0.79045490E+04</totfact>
</mgrwt>
</event>
<event>
 7    0  0.4779893E-002  0.4450172E+03  0.7546771E-02  0.1029218E+00
         21   -1    0    0  502  501  0.00000000000E+00  0.00000000000E+00  0.51706907889E+03  0.51706907889E+03  0.00000000000E+00 0. -1.
         21   -1    0    0  501  502 -0.00000000000E+00 -0.00000000000E+00 -0.95751392446E+02  0.95751392446E+02  0.00000000000E+00 0. -1.
      99926    2    1    2    0    0  0.00000000000E+00 -0.44408920985E-15  0.42131768644E+03  0.61282047133E+03  0.44501723245E+03 0.  0.
      99925    2    3    3    0    0  0.98369604551E+02 -0.43505308793E+00  0.22335706516E+03  0.35882699888E+03  0.26304309190E+03 0.  0.
         25    1    3    3    0    0 -0.98369604551E+02  0.43505308793E+00  0.19796062128E+03  0.25399347245E+03  0.12509000000E+03 0.  0.
         25    1    4    4    0    0  0.51044494028E+02 -0.20266798658E+02  0.67129740728E+02  0.15221758666E+03  0.12509000000E+03 0.  0.
         25    1    4    4    0    0  0.47325110523E+02  0.19831745570E+02  0.15622732443E+03  0.20660941222E+03  0.12509000000E+03 0.  0.
<mgrwt>
<rscale>  2 0.44501723E+03</rscale>
<asrwt>0</asrwt>
<pdfrwt beam="1">  1       21 0.76039570E-01 0.44501723E+03</pdfrwt>
<pdfrwt beam="2">  1       21 0.14081087E-01 0.44501723E+03</pdfrwt>
<totfact> 0.62694667E+04</totfact>
</mgrwt>
</event>
<event>
 7    0  0.4779893E-002  0.4552164E+03  0.7546771E-02  0.1026178E+00
         21   -1    0    0  502  501  0.00000000000E+00  0.00000000000E+00  0.82861594943E+02  0.82861594943E+02  0.00000000000E+00 0. -1.
         21   -1    0    0  501  502 -0.00000000000E+00 -0.00000000000E+00 -0.62520523573E+03  0.62520523573E+03  0.00000000000E+00 0. -1.
      99926    2    1    2    0    0 -0.71054273576E-14  0.00000000000E+00 -0.54234364079E+03  0.70806683068E+03  0.45521644522E+03 0.  0.
      99925    2    3    3    0    0  0.50631660837E+02  0.35610644490E+02 -0.48888344014E+03  0.55861053528E+03  0.26307228854E+03 0.  0.
         25    1    4    4    0    0  0.56187537396E+02  0.42971390804E+02 -0.28627351455E+03  0.32031798735E+03  0.12509000000E+03 0.  0.
         25    1    4    4    0    0 -0.55558765589E+01 -0.73607463137E+01 -0.20260992559E+03  0.23829254793E+03  0.12509000000E+03 0.  0.
         25    1    3    3    0    0 -0.50631660837E+02 -0.35610644490E+02 -0.53460200646E+02  0.14945629540E+03  0.12509000000E+03 0.  0.
<mgrwt>
<rscale>  2 0.45521645E+03</rscale>
<asrwt>0</asrwt>
<pdfrwt beam="1">  1       21 0.12185529E-01 0.45521645E+03</pdfrwt>
<pdfrwt beam="2">  1       21 0.91941945E-01 0.45521645E+03</pdfrwt>
<totfact> 0.52377916E+04</totfact>
</mgrwt>
</event>
<event>
 7    0  0.4779893E-002  0.4545884E+03  0.7546771E-02  0.1026363E+00
         21   -1    0    0  502  501  0.00000000000E+00  0.00000000000E+00  0.56599020184E+02  0.56599020184E+02  0.00000000000E+00 0.  1.
         21   -1    0    0  501  502 -0.00000000000E+00 -0.00000000000E+00 -0.91278354753E+03  0.91278354753E+03  0.00000000000E+00 0.  1.
      99926    2    1    2    0    0  0.17763568394E-14  0.00000000000E+00 -0.85618452735E+03  0.96938256771E+03  0.45458840474E+03 0.  0.
      99925    2    3    3    0    0 -0.54070064655E+01 -0.11137935579E+03 -0.50314522758E+03  0.57858997324E+03  0.26301452523E+03 0.  0.
         25    1    3    3    0    0  0.54070064655E+01  0.11137935579E+03 -0.35303929976E+03  0.39079259447E+03  0.12509000000E+03 0.  0.
         25    1    4    4    0    0  0.88407667397E+01 -0.14327947582E+02 -0.20587303320E+03  0.24148429170E+03  0.12509000000E+03 0.  0.
         25    1    4    4    0    0 -0.14247773205E+02 -0.97051408208E+02 -0.29727219438E+03  0.33710568155E+03  0.12509000000E+03 0.  0.
<mgrwt>
<rscale>  2 0.45458840E+03</rscale>
<asrwt>0</asrwt>
<pdfrwt beam="1">  1       21 0.83233852E-02 0.45458840E+03</pdfrwt>
<pdfrwt beam="2">  1       21 0.13423288E+00 0.45458840E+03</pdfrwt>
<totfact> 0.40495926E+04</totfact>
</mgrwt>
</event>
<event>
 7    0  0.4779893E-002  0.4515476E+03  0.7546771E-02  0.1027262E+00
         21   -1    0    0  502  501  0.00000000000E+00  0.00000000000E+00  0.23417934039E+03  0.23417934039E+03  0.00000000000E+00 0. -1.
         21   -1    0    0  501  502 -0.00000000000E+00 -0.00000000000E+00 -0.21766996726E+03  0.21766996726E+03  0.00000000000E+00 0. -1.
      99926    2    1    2    0    0  0.00000000000E+00 -0.71054273576E-14  0.16509373132E+02  0.45184930765E+03  0.45154760261E+03 0.  0.
      99925    2    3    3    0    0 -0.44100621302E+02 -0.46056824356E+02  0.99819410993E+02  0.28858827011E+03  0.26315998740E+03 0.  0.
         25    1    3    3    0    0  0.44100621302E+02  0.46056824356E+02 -0.83310037861E+02  0.16326103754E+03  0.12509000000E+03 0.  0.
         25    1    4    4    0    0 -0.59903156991E+02 -0.11594841935E+02  0.63142150000E+02  0.15283084696E+03  0.12509000000E+03 0.  0.
         25    1    4    4    0    0  0.15802535689E+02 -0.34461982421E+02  0.36677260992E+02  0.13575742315E+03  0.12509000000E+03 0.  0.
<mgrwt>
<rscale>  2 0.45154760E+03</rscale>
<asrwt>0</asrwt>
<pdfrwt beam="1">  1       21 0.34438139E-01 0.45154760E+03</pdfrwt>
<pdfrwt beam="2">  1       21 0.32010289E-01 0.45154760E+03</pdfrwt>
<totfact> 0.70704927E+04</totfact>
</mgrwt>
</event>
<event>
 7    0  0.4779893E-002  0.4669758E+03  0.7546771E-02  0.1022777E+00
         21   -1    0    0  502  501  0.00000000000E+00  0.00000000000E+00  0.47670821486E+03  0.47670821486E+03  0.00000000000E+00 0. -1.
         21   -1    0    0  501  502 -0.00000000000E+00 -0.00000000000E+00 -0.11436050152E+03  0.11436050152E+03  0.00000000000E+00 0. -1.
      99926    2    1    2    0    0 -0.71054273576E-14  0.00000000000E+00  0.36234771334E+03  0.59106871638E+03  0.46697576181E+03 0.  0.
      99925    2    3    3    0    0 -0.63062103093E+02  0.99371476699E+02  0.17612536961E+03  0.33773536162E+03  0.26304659177E+03 0.  0.
         25    1    3    3    0    0  0.63062103093E+02 -0.99371476699E+02  0.18622234374E+03  0.25333335476E+03  0.12509000000E+03 0.  0.
         25    1    4    4    0    0 -0.20325122196E+01  0.56033532089E+02  0.11773493173E+03  0.18070116235E+03  0.12509000000E+03 0.  0.
         25    1    4    4    0    0 -0.61029590873E+02  0.43337944610E+02  0.58390437875E+02  0.15703419927E+03  0.12509000000E+03 0.  0.
<mgrwt>
<rscale>  2 0.46697576E+03</rscale>
<asrwt>0</asrwt>
<pdfrwt beam="1">  1       21 0.70104149E-01 0.46697576E+03</pdfrwt>
<pdfrwt beam="2">  1       21 0.16817721E-01 0.46697576E+03</pdfrwt>
<totfact> 0.53941490E+04</totfact>
</mgrwt>
</event>
<event>
 7    0  0.4779893E-002  0.4538074E+03  0.7546771E-02  0.1026593E+00
         21   -1    0    0  502  501  0.00000000000E+00  0.00000000000E+00  0.51893464908E+03  0.51893464908E+03  0.00000000000E+00 0.  1.
         21   -1    0    0  501  502 -0.00000000000E+00 -0.00000000000E+00 -0.99213431284E+02  0.99213431284E+02  0.00000000000E+00 0.  1.
      99926    2    1    2    0    0  0.17763568394E-14  0.00000000000E+00  0.41972121780E+03  0.61814808037E+03  0.45380739151E+03 0.  0.
      99925    2    3    3    0    0  0.14620825945E+02 -0.11149275226E+02  0.11383255585E+03  0.28715947558E+03  0.26299170853E+03 0.  0.
         25    1    4    4    0    0 -0.62680992108E+01 -0.99748150113E+00  0.15185093120E+02  0.12616805931E+03  0.12509000000E+03 0.  0.
         25    1    3    3    0    0 -0.14620825945E+02  0.11149275226E+02  0.30588866195E+03  0.33098860478E+03  0.12509000000E+03 0.  0.
         25    1    4    4    0    0  0.20888925156E+02 -0.10151793724E+02  0.98647462735E+02  0.16099141627E+03  0.12509000000E+03 0.  0.
<mgrwt>
<rscale>  2 0.45380739E+03</rscale>
<asrwt>0</asrwt>
<pdfrwt beam="1">  1       21 0.76313918E-01 0.45380739E+03</pdfrwt>
<pdfrwt beam="2">  1       21 0.14590211E-01 0.45380739E+03</pdfrwt>
<totfact> 0.58120328E+04</totfact>
</mgrwt>
</event>
<event>
 7    0  0.4779893E-002  0.4522239E+03  0.7546771E-02  0.1027061E+00
         21   -1    0    0  502  501  0.00000000000E+00  0.00000000000E+00  0.13886382799E+03  0.13886382799E+03  0.00000000000E+00 0. -1.
         21   -1    0    0  501  502 -0.00000000000E+00 -0.00000000000E+00 -0.36817810716E+03  0.36817810716E+03  0.00000000000E+00 0. -1.
      99926    2    1    2    0    0  0.14210854715E-13  0.88817841970E-15 -0.22931427917E+03  0.50704193515E+03  0.45222393277E+03 0.  0.
      99925    2    3    3    0    0  0.72562750378E+02  0.72534770244E+01 -0.23781029482E+03  0.36199830015E+03  0.26300393024E+03 0.  0.
         25    1    4    4    0    0  0.74893884353E+02 -0.11446327010E+01 -0.14804492979E+03  0.20778646114E+03  0.12509000000E+03 0.  0.
         25    1    3    3    0    0 -0.72562750378E+02 -0.72534770244E+01  0.84960156496E+01  0.14504363500E+03  0.12509000000E+03 0.  0.
         25    1    4    4    0    0 -0.23311339746E+01  0.83981097254E+01 -0.89765365027E+02  0.15421183901E+03  0.12509000000E+03 0.  0.
<mgrwt>
<rscale>  2 0.45222393E+03</rscale>
<asrwt>0</asrwt>
<pdfrwt beam="1">  1       21 0.20421151E-01 0.45222393E+03</pdfrwt>
<pdfrwt beam="2">  1       21 0.54143839E-01 0.45222393E+03</pdfrwt>
<totfact> 0.66225857E+04</totfact>
</mgrwt>
</event>
<event>
 6    0  0.4779893E-002  0.4586807E+03  0.7546771E-02  0.1025165E+00
         21   -1    0    0  502  501  0.00000000000E+00  0.00000000000E+00  0.73529275612E+03  0.73529275612E+03  0.00000000000E+00 0.  1.
         21   -1    0    0  501  502 -0.00000000000E+00 -0.00000000000E+00 -0.71532061314E+02  0.71532061314E+02  0.00000000000E+00 0.  1.
      99926    2    1    2    0    0  0.13322676296E-14  0.00000000000E+00  0.66376069481E+03  0.80682481744E+03  0.45868074524E+03 0.  0.
         25    1    3    3    0    0 -0.16075606860E+02  0.12259490933E+02  0.17505270648E+03  0.21610108376E+03  0.12509000000E+03 0.  0.
         25    1    3    3    0    0 -0.35405041434E+01 -0.99318855760E+02  0.15158305883E+03  0.22023101985E+03  0.12509000000E+03 0.  0.
         25    1    3    3    0    0  0.19616111004E+02  0.87059364828E+02  0.33712492949E+03  0.37049271383E+03  0.12509000000E+03 0.  0.
<mgrwt>
<rscale>  2 0.45868075E+03</rscale>
<asrwt>0</asrwt>
<pdfrwt beam="1">  1       21 0.10813128E+00 0.45868075E+03</pdfrwt>
<pdfrwt beam="2">  1       21 0.10519421E-01 0.45868075E+03</pdfrwt>
<totfact> 0.46090685E+04</totfact>
</mgrwt>
</event>
<event>
 7    0  0.4779893E-002  0.4493153E+03  0.7546771E-02  0.1027926E+00
         21   -1    0    0  502  501  0.00000000000E+00  0.00000000000E+00  0.10764793446E+04  0.10764793446E+04  0.00000000000E+00 0. -1.
         21   -1    0    0  501  502 -0.00000000000E+00 -0.00000000000E+00 -0.46885296150E+02  0.46885296150E+02  0.00000000000E+00 0. -1.
      99926    2    1    2    0    0  0.00000000000E+00 -0.14210854715E-13  0.10295940484E+04  0.11233646407E+04  0.44931526958E+03 0.  0.
      99925    2    3    3    0    0 -0.16822313798E+02 -0.10436917925E+03  0.70392910208E+03  0.75883606682E+03  0.26294501274E+03 0.  0.
         25    1    4    4    0    0 -0.11003093337E+02 -0.20656909085E+02  0.39771397950E+03  0.41757836815E+03  0.12509000000E+03 0.  0.
         25    1    4    4    0    0 -0.58192204614E+01 -0.83712270164E+02  0.30621512259E+03  0.34125769867E+03  0.12509000000E+03 0.  0.
         25    1    3    3    0    0  0.16822313798E+02  0.10436917925E+03  0.32566494634E+03  0.36452857390E+03  0.12509000000E+03 0.  0.
<mgrwt>
<rscale>  2 0.44931527E+03</rscale>
<asrwt>0</asrwt>
<pdfrwt beam="1">  1       21 0.15830577E+00 0.44931527E+03</pdfrwt>
<pdfrwt beam="2">  1       21 0.68948972E-02 0.44931527E+03</pdfrwt>
<totfact> 0.36264914E+04</totfact>
</mgrwt>
</event>
<event>
 7    0  0.4779893E-002  0.4522728E+03  0.7546771E-02  0.1027046E+00
         21   -1    0    0  502  501  0.00000000000E+00  0.00000000000E+00  0.25517684817E+03  0.25517684817E+03  0.00000000000E+00 0.  1.
         21   -1    0    0  501  502 -0.00000000000E+00 -0.00000000000E+00 -0.20040092676E+03  0.20040092676E+03  0.00000000000E+00 0.  1.
      99926    2    1    2    0    0 -0.35527136788E-14  0.00000000000E+00  0.54775921405E+02  0.45557777493E+03  0.45227282413E+03 0.  0.
      99925    2    3    3    0    0  0.31909537989E+02  0.73042070603E+02  0.11173830873E+03  0.29668918389E+03  0.26303167016E+03 0.  0.
         25    1    3    3    0    0 -0.31909537989E+02 -0.73042070603E+02 -0.56962387328E+02  0.15888859104E+03  0.12509000000E+03 0.  0.
         25    1    4    4    0    0  0.25257595813E+01 -0.53027151320E+00  0.35008852656E+02  0.12992224026E+03  0.12509000000E+03 0.  0.
         25    1    4    4    0    0  0.29383778407E+02  0.73572342117E+02  0.76729456076E+02  0.16676694363E+03  0.12509000000E+03 0.  0.
<mgrwt>
<rscale>  2 0.45227282E+03</rscale>
<asrwt>0</asrwt>
<pdfrwt beam="1">  1       21 0.37526007E-01 0.45227282E+03</pdfrwt>
<pdfrwt beam="2">  1       21 0.29470724E-01 0.45227282E+03</pdfrwt>
<totfact> 0.70014405E+04</totfact>
</mgrwt>
</event>
<event>
 7    0  0.4779893E-002  0.4578455E+03  0.7546771E-02  0.1025408E+00
         21   -1    0    0  502  501  0.00000000000E+00  0.00000000000E+00  0.39988589949E+02  0.39988589949E+02  0.00000000000E+00 0.  1.
         21   -1    0    0  501  502 -0.00000000000E+00 -0.00000000000E+00 -0.13105142198E+04  0.13105142198E+04  0.00000000000E+00 0.  1.
      99926    2    1    2    0    0  0.00000000000E+00  0.00000000000E+00 -0.12705256298E+04  0.13505028097E+04  0.45784545758E+03 0.  0.
      99925    2    3    3    0    0 -0.47353184122E+02 -0.70765631999E+02 -0.10284480528E+04  0.10650222322E+04  0.26328095097E+03 0.  0.
         25    1    4    4    0    0 -0.51474474159E+02 -0.53772415739E+02 -0.45048178888E+03  0.47341572048E+03  0.12509000000E+03 0.  0.
         25    1    3    3    0    0  0.47353184122E+02  0.70765631999E+02 -0.24207757701E+03  0.28548057746E+03  0.12509000000E+03 0.  0.
         25    1    4    4    0    0  0.41212900374E+01 -0.16993216260E+02 -0.57796626393E+03  0.59160651177E+03  0.12509000000E+03 0.  0.
<mgrwt>
<rscale>  2 0.45784546E+03</rscale>
<asrwt>0</asrwt>
<pdfrwt beam="1">  1       21 0.58806758E-02 0.45784546E+03</pdfrwt>
<pdfrwt beam="2">  1       21 0.19272265E+00 0.45784546E+03</pdfrwt>
<totfact> 0.27077490E+04</totfact>
</mgrwt>
</event>
<event>
 7    0  0.4779893E-002  0.4559906E+03  0.7546771E-02  0.1025951E+00
         21   -1    0    0  502  501  0.00000000000E+00  0.00000000000E+00  0.13157431499E+03  0.13157431499E+03  0.00000000000E+00 0.  1.
         21   -1    0    0  501  502 -0.00000000000E+00 -0.00000000000E+00 -0.39507598139E+03  0.39507598139E+03  0.00000000000E+00 0.  1.
      99926    2    1    2    0    0 -0.88817841970E-15  0.00000000000E+00 -0.26350166640E+03  0.52665029637E+03  0.45599057718E+03 0.  0.
      99925    2    3    3    0    0  0.46345887811E+01 -0.11221875522E+03 -0.14178088299E+03  0.31909792792E+03  0.26288236987E+03 0.  0.
         25    1    4    4    0    0 -0.12797308929E+02 -0.77610421866E+02 -0.11035372679E+03  0.18442505745E+03  0.12509000000E+03 0.  0.
         25    1    3    3    0    0 -0.46345887811E+01  0.11221875522E+03 -0.12172078341E+03  0.20755236845E+03  0.12509000000E+03 0.  0.
         25    1    4    4    0    0  0.17431897711E+02 -0.34608333351E+02 -0.31427156200E+02  0.13467287048E+03  0.12509000000E+03 0.  0.
<mgrwt>
<rscale>  2 0.45599058E+03</rscale>
<asrwt>0</asrwt>
<pdfrwt beam="1">  1       21 0.19349164E-01 0.45599058E+03</pdfrwt>
<pdfrwt beam="2">  1       21 0.58099410E-01 0.45599058E+03</pdfrwt>
<totfact> 0.62938192E+04</totfact>
</mgrwt>
</event>
<event>
 7    0  0.4779893E-002  0.4564061E+03  0.7546771E-02  0.1025829E+00
         21   -1    0    0  502  501  0.00000000000E+00  0.00000000000E+00  0.30780976189E+02  0.30780976189E+02  0.00000000000E+00 0. -1.
         21   -1    0    0  501  502 -0.00000000000E+00 -0.00000000000E+00 -0.16918450577E+04  0.16918450577E+04  0.00000000000E+00 0. -1.
      99926    2    1    2    0    0  0.00000000000E+00  0.71054273576E-14 -0.16610640815E+04  0.17226260339E+04  0.45640614561E+03 0.  0.
      99925    2    3    3    0    0  0.37328929266E+02 -0.47987132532E+02 -0.14100423098E+04  0.14356492895E+04  0.26300827585E+03 0.  0.
         25    1    4    4    0    0 -0.19731382258E+02 -0.37339184064E+02 -0.68195328026E+03  0.69461595624E+03  0.12509000000E+03 0.  0.
         25    1    3    3    0    0 -0.37328929266E+02  0.47987132532E+02 -0.25102177172E+03  0.28697674440E+03  0.12509000000E+03 0.  0.
         25    1    4    4    0    0  0.57060311524E+02 -0.10647948468E+02 -0.72808902952E+03  0.74103333324E+03  0.12509000000E+03 0.  0.
<mgrwt>
<rscale>  2 0.45640615E+03</rscale>
<asrwt>0</asrwt>
<pdfrwt beam="1">  1       21 0.45266137E-02 0.45640615E+03</pdfrwt>
<pdfrwt beam="2">  1       21 0.24880077E+00 0.45640615E+03</pdfrwt>
<totfact> 0.18590875E+04</totfact>
</mgrwt>
</event>
<event>
 7    0  0.4779893E-002  0.4563788E+03  0.7546771E-02  0.1025837E+00
         21   -1    0    0  502  501  0.00000000000E+00  0.00000000000E+00  0.42396338265E+03  0.42396338265E+03  0.00000000000E+00 0. -1.
         21   -1    0    0  501  502 -0.00000000000E+00 -0.00000000000E+00 -0.12281817222E+03  0.12281817222E+03  0.00000000000E+00 0. -1.
      99926    2    1    2    0    0  0.00000000000E+00  0.00000000000E+00  0.30114521043E+03  0.54678155487E+03  0.45637882399E+03 0.  0.
      99925    2    3    3    0    0  0.60193035904E+02  0.72311173334E+02  0.11128755895E+03  0.30072151487E+03  0.26305208870E+03 0.  0.
         25    1    4    4    0    0  0.63084018078E+02  0.49894078041E+02  0.83679733540E+02  0.17064236949E+03  0.12509000000E+03 0.  0.
         25    1    4    4    0    0 -0.28909821735E+01  0.22417095294E+02  0.27607825410E+02  0.13007914538E+03  0.12509000000E+03 0.  0.
         25    1    3    3    0    0 -0.60193035904E+02 -0.72311173334E+02  0.18985765147E+03  0.24606004000E+03  0.12509000000E+03 0.  0.
<mgrwt>
<rscale>  2 0.45637882E+03</rscale>
<asrwt>0</asrwt>
<pdfrwt beam="1">  1       21 0.62347556E-01 0.45637882E+03</pdfrwt>
<pdfrwt beam="2">  1       21 0.18061496E-01 0.45637882E+03</pdfrwt>
<totfact> 0.61406991E+04</totfact>
</mgrwt>
</event>
<event>
 7    0  0.4779893E-002  0.4550227E+03  0.7546771E-02  0.1026235E+00
         21   -1    0    0  502  501  0.00000000000E+00  0.00000000000E+00  0.14121643847E+04  0.14121643847E+04  0.00000000000E+00 0.  1.
         21   -1    0    0  501  502 -0.00000000000E+00 -0.00000000000E+00 -0.36653955149E+02  0.36653955149E+02  0.00000000000E+00 0.  1.
      99926    2    1    2    0    0  0.00000000000E+00  0.14210854715E-13  0.13755104296E+04  0.14488183399E+04  0.45502268084E+03 0.  0.
      99925    2    3    3    0    0  0.37891086402E+02 -0.93787830656E+02  0.70333871947E+03  0.75766408243E+03  0.26294032764E+03 0.  0.
         25    1    3    3    0    0 -0.37891086402E+02  0.93787830656E+02  0.67217171010E+03  0.69115425743E+03  0.12509000000E+03 0.  0.
         25    1    4    4    0    0 -0.12681509888E+02 -0.70756659812E+02  0.38505865724E+03  0.41119946889E+03  0.12509000000E+03 0.  0.
         25    1    4    4    0    0  0.50572596289E+02 -0.23031170845E+02  0.31828006223E+03  0.34646461355E+03  0.12509000000E+03 0.  0.
<mgrwt>
<rscale>  2 0.45502268E+03</rscale>
<asrwt>0</asrwt>
<pdfrwt beam="1">  1       21 0.20767120E+00 0.45502268E+03</pdfrwt>
<pdfrwt beam="2">  1       21 0.53902885E-02 0.45502268E+03</pdfrwt>
<totfact> 0.25055196E+04</totfact>
</mgrwt>
</event>
<event>
 7    0  0.4779893E-002  0.4146153E+03  0.7546771E-02  0.1038833E+00
         21   -1    0    0  502  501  0.00000000000E+00  0.00000000000E+00  0.35720240889E+03  0.35720240889E+03  0.00000000000E+00 0. -1.
         21   -1    0    0  501  502 -0.00000000000E+00 -0.00000000000E+00 -0.12031404485E+03  0.12031404485E+03  0.00000000000E+00 0. -1.
      99926    2    1    2    0    0  0.00000000000E+00  0.53290705182E-14  0.23688836404E+03  0.47751645374E+03  0.41461532361E+03 0.  0.
      99925    2    3    3    0    0 -0.33256170791E+02 -0.11456923440E+02  0.86879473970E+02  0.27905383965E+03  0.26284171745E+03 0.  0.
         25    1    4    4    0    0 -0.37104238429E+02  0.24937183231E+02  0.61003784635E+02  0.14617645999E+03  0.12509000000E+03 0.  0.
         25    1    3    3    0    0  0.33256170791E+02  0.11456923440E+02  0.15000889007E+03  0.19846261409E+03  0.12509000000E+03 0.  0.
         25    1    4    4    0    0  0.38480676378E+01 -0.36394106671E+02  0.25875689335E+02  0.13287737965E+03  0.12509000000E+03 0.  0.
<mgrwt>
<rscale>  2 0.41461532E+03</rscale>
<asrwt>0</asrwt>
<pdfrwt beam="1">  1       21 0.52529766E-01 0.41461532E+03</pdfrwt>
<pdfrwt beam="2">  1       21 0.17693242E-01 0.41461532E+03</pdfrwt>
<totfact> 0.93416839E+04</totfact>
</mgrwt>
</event>
<event>
 7    0  0.4779893E-002  0.4562781E+03  0.7546771E-02  0.1025866E+00
         21   -1    0    0  502  501  0.00000000000E+00  0.00000000000E+00  0.74406690600E+02  0.74406690600E+02  0.00000000000E+00 0.  1.
         21   -1    0    0  501  502 -0.00000000000E+00 -0.00000000000E+00 -0.69949921859E+03  0.69949921859E+03  0.00000000000E+00 0.  1.
      99926    2    1    2    0    0  0.00000000000E+00 -0.14210854715E-13 -0.62509252799E+03  0.77390590919E+03  0.45627808158E+03 0.  0.
      99925    2    3    3    0    0  0.42631750969E+02  0.81839328469E+02 -0.27888169944E+03  0.39440019411E+03  0.26317554779E+03 0.  0.
         25    1    4    4    0    0  0.23762188170E+02  0.83471197154E+02 -0.14653663743E+03  0.21131156275E+03  0.12509000000E+03 0.  0.
         25    1    3    3    0    0 -0.42631750969E+02 -0.81839328469E+02 -0.34621082854E+03  0.37950571508E+03  0.12509000000E+03 0.  0.
         25    1    4    4    0    0  0.18869562799E+02 -0.16318686853E+01 -0.13234506201E+03  0.18308863136E+03  0.12509000000E+03 0.  0.
<mgrwt>
<rscale>  2 0.45627808E+03</rscale>
<asrwt>0</asrwt>
<pdfrwt beam="1">  1       21 0.10942160E-01 0.45627808E+03</pdfrwt>
<pdfrwt beam="2">  1       21 0.10286754E+00 0.45627808E+03</pdfrwt>
<totfact> 0.48563794E+04</totfact>
</mgrwt>
</event>
<event>
 7    0  0.4779893E-002  0.4308121E+03  0.7546771E-02  0.1033604E+00
         21   -1    0    0  502  501  0.00000000000E+00  0.00000000000E+00  0.45972488622E+02  0.45972488622E+02  0.00000000000E+00 0. -1.
         21   -1    0    0  501  502 -0.00000000000E+00 -0.00000000000E+00 -0.10092941175E+04  0.10092941175E+04  0.00000000000E+00 0. -1.
      99926    2    1    2    0    0  0.71054273576E-14  0.35527136788E-14 -0.96332162887E+03  0.10552666061E+04  0.43081208123E+03 0.  0.
      99925    2    3    3    0    0  0.51779592038E+02  0.27303264702E+02 -0.45918349912E+03  0.53255315078E+03  0.26331877664E+03 0.  0.
         25    1    3    3    0    0 -0.51779592038E+02 -0.27303264702E+02 -0.50413812975E+03  0.52271345533E+03  0.12509000000E+03 0.  0.
         25    1    4    4    0    0  0.59286728436E+02 -0.64090011849E+01 -0.20997191538E+03  0.25157842676E+03  0.12509000000E+03 0.  0.
         25    1    4    4    0    0 -0.75071363984E+01  0.33712265887E+02 -0.24921158374E+03  0.28097472402E+03  0.12509000000E+03 0.  0.
<mgrwt>
<rscale>  2 0.43081208E+03</rscale>
<asrwt>0</asrwt>
<pdfrwt beam="1">  1       21 0.67606604E-02 0.43081208E+03</pdfrwt>
<pdfrwt beam="2">  1       21 0.14842560E+00 0.43081208E+03</pdfrwt>
<totfact> 0.44997994E+04</totfact>
</mgrwt>
</event>
<event>
 7    0  0.4779893E-002  0.4196858E+03  0.7546771E-02  0.1037169E+00
         21   -1    0    0  502  501  0.00000000000E+00  0.00000000000E+00  0.10313393178E+03  0.10313393178E+03  0.00000000000E+00 0.  1.
         21   -1    0    0  501  502 -0.00000000000E+00 -0.00000000000E+00 -0.42695975108E+03  0.42695975108E+03  0.00000000000E+00 0.  1.
      99926    2    1    2    0    0  0.35527136788E-14  0.71054273576E-14 -0.32382581930E+03  0.53009368286E+03  0.41968577694E+03 0.  0.
      99925    2    3    3    0    0  0.30212992806E+02 -0.60128827851E+02 -0.16851139914E+03  0.31962188408E+03  0.26312308198E+03 0.  0.
         25    1    4    4    0    0  0.36555689780E+02  0.39687042908E+01 -0.90845192420E+02  0.15891011974E+03  0.12509000000E+03 0.  0.
         25    1    3    3    0    0 -0.30212992806E+02  0.60128827851E+02 -0.15531442016E+03  0.21047179879E+03  0.12509000000E+03 0.  0.
         25    1    4    4    0    0 -0.63426969740E+01 -0.64097532142E+02 -0.77666206720E+02  0.16071176434E+03  0.12509000000E+03 0.  0.
<mgrwt>
<rscale>  2 0.41968578E+03</rscale>
<asrwt>0</asrwt>
<pdfrwt beam="1">  1       21 0.15166755E-01 0.41968578E+03</pdfrwt>
<pdfrwt beam="2">  1       21 0.62788199E-01 0.41968578E+03</pdfrwt>
<totfact> 0.84446051E+04</totfact>
</mgrwt>
</event>
<event>
 7    0  0.4779893E-002  0.4573006E+03  0.7546771E-02  0.1025567E+00
         21   -1    0    0  502  501  0.00000000000E+00  0.00000000000E+00  0.31600394548E+02  0.31600394548E+02  0.00000000000E+00 0.  1.
         21   -1    0    0  501  502 -0.00000000000E+00 -0.00000000000E+00 -0.16544400974E+04  0.16544400974E+04  0.00000000000E+00 0.  1.
      99926    2    1    2    0    0  0.00000000000E+00  0.00000000000E+00 -0.16228397029E+04  0.16860404920E+04  0.45730060063E+03 0.  0.
      99925    2    3    3    0    0  0.79405851248E+02  0.19981499668E+02 -0.13187459728E+04  0.13471820343E+04  0.26287628901E+03 0.  0.
         25    1    3    3    0    0 -0.79405851248E+02 -0.19981499668E+02 -0.30409373011E+03  0.33885845767E+03  0.12509000000E+03 0.  0.
         25    1    4    4    0    0  0.90914753219E+01  0.10968673050E+02 -0.75294996340E+03  0.76340298807E+03  0.12509000000E+03 0.  0.
         25    1    4    4    0    0  0.70314375926E+02  0.90128266182E+01 -0.56579600937E+03  0.58377904624E+03  0.12509000000E+03 0.  0.
<mgrwt>
<rscale>  2 0.45730060E+03</rscale>
<asrwt>0</asrwt>
<pdfrwt beam="1">  1       21 0.46471164E-02 0.45730060E+03</pdfrwt>
<pdfrwt beam="2">  1       21 0.24330004E+00 0.45730060E+03</pdfrwt>
<totfact> 0.19208184E+04</totfact>
</mgrwt>
</event>
<event>
 7    0  0.4779893E-002  0.4547253E+03  0.7546771E-02  0.1026322E+00
         21   -1    0    0  502  501  0.00000000000E+00  0.00000000000E+00  0.38829848695E+03  0.38829848695E+03  0.00000000000E+00 0. -1.
         21   -1    0    0  501  502 -0.00000000000E+00 -0.00000000000E+00 -0.13312897863E+03  0.13312897863E+03  0.00000000000E+00 0. -1.
      99926    2    1    2    0    0 -0.88817841970E-15  0.00000000000E+00  0.25516950832E+03  0.52142746558E+03  0.45472532796E+03 0.  0.
      99925    2    3    3    0    0 -0.21088633533E+01  0.10397533940E+03  0.11019950654E+03  0.30353040726E+03  0.26300467369E+03 0.  0.
         25    1    4    4    0    0  0.13516928754E+02  0.11680562131E+02  0.55277003673E+02  0.13792098510E+03  0.12509000000E+03 0.  0.
         25    1    3    3    0    0  0.21088633533E+01 -0.10397533940E+03  0.14497000178E+03  0.21789705832E+03  0.12509000000E+03 0.  0.
         25    1    4    4    0    0 -0.15625792107E+02  0.92294777267E+02  0.54922502868E+02  0.16560942217E+03  0.12509000000E+03 0.  0.
<mgrwt>
<rscale>  2 0.45472533E+03</rscale>
<asrwt>0</asrwt>
<pdfrwt beam="1">  1       21 0.57102718E-01 0.45472533E+03</pdfrwt>
<pdfrwt beam="2">  1       21 0.19577791E-01 0.45472533E+03</pdfrwt>
<totfact> 0.63929293E+04</totfact>
</mgrwt>
</event>
<event>
 7    0  0.4779893E-002  0.4589512E+03  0.7546771E-02  0.1025086E+00
         21   -1    0    0  502  501  0.00000000000E+00  0.00000000000E+00  0.56809643076E+03  0.56809643076E+03  0.00000000000E+00 0.  1.
         21   -1    0    0  501  502 -0.00000000000E+00 -0.00000000000E+00 -0.92693851720E+02  0.92693851720E+02  0.00000000000E+00 0.  1.
      99926    2    1    2    0    0  0.00000000000E+00 -0.71054273576E-14  0.47540257904E+03  0.66079028248E+03  0.45895117960E+03 0.  0.
      99925    2    3    3    0    0  0.37835345700E+02  0.51549774771E+02  0.15737944308E+03  0.31311929466E+03  0.26303328862E+03 0.  0.
         25    1    3    3    0    0 -0.37835345700E+02 -0.51549774771E+02  0.31802313596E+03  0.34767098781E+03  0.12509000000E+03 0.  0.
         25    1    4    4    0    0  0.42251711004E+02  0.12103433401E+02  0.44021946293E+02  0.13970375814E+03  0.12509000000E+03 0.  0.
         25    1    4    4    0    0 -0.44163653037E+01  0.39446341370E+02  0.11335749679E+03  0.17341553652E+03  0.12509000000E+03 0.  0.
<mgrwt>
<rscale>  2 0.45895118E+03</rscale>
<asrwt>0</asrwt>
<pdfrwt beam="1">  1       21 0.83543591E-01 0.45895118E+03</pdfrwt>
<pdfrwt beam="2">  1       21 0.13631449E-01 0.45895118E+03</pdfrwt>
<totfact> 0.53400232E+04</totfact>
</mgrwt>
</event>
<event>
 7    0  0.4779893E-002  0.4528487E+03  0.7546771E-02  0.1026876E+00
         21   -1    0    0  502  501  0.00000000000E+00  0.00000000000E+00  0.13593868588E+04  0.13593868588E+04  0.00000000000E+00 0. -1.
         21   -1    0    0  501  502 -0.00000000000E+00 -0.00000000000E+00 -0.37714049854E+02  0.37714049854E+02  0.00000000000E+00 0. -1.
      99926    2    1    2    0    0  0.22204460493E-14  0.00000000000E+00  0.13216728089E+04  0.13971009086E+04  0.45284868892E+03 0.  0.
      99925    2    3    3    0    0 -0.16410162537E+01 -0.91307586567E+02  0.63781291527E+03  0.69592216498E+03  0.26298778779E+03 0.  0.
         25    1    4    4    0    0 -0.25699102561E+02 -0.67991194052E+02  0.27576859415E+03  0.31141463029E+03  0.12509000000E+03 0.  0.
         25    1    4    4    0    0  0.24058086307E+02 -0.23316392515E+02  0.36204432112E+03  0.38450753469E+03  0.12509000000E+03 0.  0.
         25    1    3    3    0    0  0.16410162537E+01  0.91307586567E+02  0.68385989367E+03  0.70117874367E+03  0.12509000000E+03 0.  0.
<mgrwt>
<rscale>  2 0.45284869E+03</rscale>
<asrwt>0</asrwt>
<pdfrwt beam="1">  1       21 0.19990980E+00 0.45284869E+03</pdfrwt>
<pdfrwt beam="2">  1       21 0.55461847E-02 0.45284869E+03</pdfrwt>
<totfact> 0.26855548E+04</totfact>
</mgrwt>
</event>
<event>
 7    0  0.4779893E-002  0.4570087E+03  0.7546771E-02  0.1025652E+00
         21   -1    0    0  502  501  0.00000000000E+00  0.00000000000E+00  0.76471281295E+03  0.76471281295E+03  0.00000000000E+00 0.  1.
         21   -1    0    0  501  502 -0.00000000000E+00 -0.00000000000E+00 -0.68279539856E+02  0.68279539856E+02  0.00000000000E+00 0.  1.
      99926    2    1    2    0    0  0.00000000000E+00 -0.88817841970E-15  0.69643327309E+03  0.83299235280E+03  0.45700870447E+03 0.  0.
      99925    2    3    3    0    0  0.10365797325E+03  0.46618428625E+01  0.52814099726E+03  0.59903400950E+03  0.26294889874E+03 0.  0.
         25    1    4    4    0    0  0.64386807154E+02  0.13336369428E+02  0.35179484075E+03  0.37911823718E+03  0.12509000000E+03 0.  0.
         25    1    4    4    0    0  0.39271166100E+02 -0.86745265658E+01  0.17634615651E+03  0.21991577232E+03  0.12509000000E+03 0.  0.
         25    1    3    3    0    0 -0.10365797325E+03 -0.46618428625E+01  0.16829227583E+03  0.23395834331E+03  0.12509000000E+03 0.  0.
<mgrwt>
<rscale>  2 0.45700870E+03</rscale>
<asrwt>0</asrwt>
<pdfrwt beam="1">  1       21 0.11245776E+00 0.45700870E+03</pdfrwt>
<pdfrwt beam="2">  1       21 0.10041109E-01 0.45700870E+03</pdfrwt>
<totfact> 0.45488882E+04</totfact>
</mgrwt>
</event>
<event>
 7    0  0.4779893E-002  0.4546498E+03  0.7546771E-02  0.1026344E+00
         21   -1    0    0  502  501  0.00000000000E+00  0.00000000000E+00  0.13012900655E+03  0.13012900655E+03  0.00000000000E+00 0.  1.
         21   -1    0    0  501  502 -0.00000000000E+00 -0.00000000000E+00 -0.39711824700E+03  0.39711824700E+03  0.00000000000E+00 0.  1.
      99926    2    1    2    0    0  0.00000000000E+00  0.00000000000E+00 -0.26698924045E+03  0.52724725355E+03  0.45464976835E+03 0.  0.
      99925    2    3    3    0    0 -0.63117230289E+02  0.71690049318E+02 -0.23777597667E+03  0.36717173759E+03  0.26297228347E+03 0.  0.
         25    1    3    3    0    0  0.63117230289E+02 -0.71690049318E+02 -0.29213263780E+02  0.16007551596E+03  0.12509000000E+03 0.  0.
         25    1    4    4    0    0  0.76076707014E+01  0.22237077524E+02 -0.11968710961E+03  0.17471369888E+03  0.12509000000E+03 0.  0.
         25    1    4    4    0    0 -0.70724900990E+02  0.49452971794E+02 -0.11808886706E+03  0.19245803870E+03  0.12509000000E+03 0.  0.
<mgrwt>
<rscale>  2 0.45464977E+03</rscale>
<asrwt>0</asrwt>
<pdfrwt beam="1">  1       21 0.19136619E-01 0.45464977E+03</pdfrwt>
<pdfrwt beam="2">  1       21 0.58399742E-01 0.45464977E+03</pdfrwt>
<totfact> 0.63569564E+04</totfact>
</mgrwt>
</event>
<event>
 7    0  0.4779893E-002  0.4554723E+03  0.7546771E-02  0.1026103E+00
         21   -1    0    0  502  501  0.00000000000E+00  0.00000000000E+00  0.16314949689E+04  0.16314949689E+04  0.00000000000E+00 0. -1.
         21   -1    0    0  501  502 -0.00000000000E+00 -0.00000000000E+00 -0.31789092522E+02  0.31789092522E+02  0.00000000000E+00 0. -1.
      99926    2    1    2    0    0  0.71054273576E-14 -0.28421709430E-13  0.15997058764E+04  0.16632840615E+04  0.45547225829E+03 0.  0.
      99925    2    3    3    0    0  0.36098273615E+02 -0.10666568138E+03  0.95060813255E+03  0.99272008827E+03  0.26297661313E+03 0.  0.
         25    1    3    3    0    0 -0.36098273615E+02  0.10666568138E+03  0.64909774386E+03  0.67056397318E+03  0.12509000000E+03 0.  0.
         25    1    4    4    0    0  0.46664107028E+02 -0.86067014586E+02  0.53207482675E+03  0.55528028891E+03  0.12509000000E+03 0.  0.
         25    1    4    4    0    0 -0.10565833413E+02 -0.20598666795E+02  0.41853330579E+03  0.43743979937E+03  0.12509000000E+03 0.  0.
<mgrwt>
<rscale>  2 0.45547226E+03</rscale>
<asrwt>0</asrwt>
<pdfrwt beam="1">  1       21 0.23992567E+00 0.45547226E+03</pdfrwt>
<pdfrwt beam="2">  1       21 0.46748677E-02 0.45547226E+03</pdfrwt>
<totfact> 0.19963496E+04</totfact>
</mgrwt>
</event>
<event>
 7    0  0.4779893E-002  0.4619710E+03  0.7546771E-02  0.1024211E+00
         21   -1    0    0  502  501  0.00000000000E+00  0.00000000000E+00  0.14166679882E+03  0.14166679882E+03  0.00000000000E+00 0. -1.
         21   -1    0    0  501  502 -0.00000000000E+00 -0.00000000000E+00 -0.37661821097E+03  0.37661821097E+03  0.00000000000E+00 0. -1.
      99926    2    1    2    0    0  0.00000000000E+00  0.71054273576E-14 -0.23495141215E+03  0.51828500978E+03  0.46197097885E+03 0.  0.
      99925    2    3    3    0    0 -0.41972538421E+02 -0.37586650485E+02 -0.28486855783E+02  0.27039476913E+03  0.26292086251E+03 0.  0.
         25    1    3    3    0    0  0.41972538421E+02  0.37586650485E+02 -0.20646455637E+03  0.24789024065E+03  0.12509000000E+03 0.  0.
         25    1    4    4    0    0 -0.45617936011E+02 -0.50281425228E+02 -0.48559902325E+01  0.14240894126E+03  0.12509000000E+03 0.  0.
         25    1    4    4    0    0  0.36453975891E+01  0.12694774742E+02 -0.23630865550E+02  0.12798582787E+03  0.12509000000E+03 0.  0.
<mgrwt>
<rscale>  2 0.46197098E+03</rscale>
<asrwt>0</asrwt>
<pdfrwt beam="1">  1       21 0.20833353E-01 0.46197098E+03</pdfrwt>
<pdfrwt beam="2">  1       21 0.55385031E-01 0.46197098E+03</pdfrwt>
<totfact> 0.60583016E+04</totfact>
</mgrwt>
</event>
<event>
 7    0  0.4779893E-002  0.4633560E+03  0.7546771E-02  0.1023812E+00
         21   -1    0    0  502  501  0.00000000000E+00  0.00000000000E+00  0.10380788465E+03  0.10380788465E+03  0.00000000000E+00 0. -1.
         21   -1    0    0  501  502 -0.00000000000E+00 -0.00000000000E+00 -0.51705800186E+03  0.51705800186E+03  0.00000000000E+00 0. -1.
      99926    2    1    2    0    0  0.00000000000E+00  0.00000000000E+00 -0.41325011721E+03  0.62086588651E+03  0.46335600748E+03 0.  0.
      99925    2    3    3    0    0 -0.86959007033E+02 -0.76555527893E+02 -0.30390527260E+03  0.41831608795E+03  0.26307283586E+03 0.  0.
         25    1    4    4    0    0 -0.21281417455E+02 -0.30288448988E+02 -0.19250668184E+03  0.23254380131E+03  0.12509000000E+03 0.  0.
         25    1    4    4    0    0 -0.65677589577E+02 -0.46267078905E+02 -0.11139859076E+03  0.18577228665E+03  0.12509000000E+03 0.  0.
         25    1    3    3    0    0  0.86959007033E+02  0.76555527893E+02 -0.10934484461E+03  0.20254979856E+03  0.12509000000E+03 0.  0.
<mgrwt>
<rscale>  2 0.46335601E+03</rscale>
<asrwt>0</asrwt>
<pdfrwt beam="1">  1       21 0.15265865E-01 0.46335601E+03</pdfrwt>
<pdfrwt beam="2">  1       21 0.76037942E-01 0.46335601E+03</pdfrwt>
<totfact> 0.53774793E+04</totfact>
</mgrwt>
</event>
<event>
 7    0  0.4779893E-002  0.4561986E+03  0.7546771E-02  0.1025890E+00
         21   -1    0    0  502  501  0.00000000000E+00  0.00000000000E+00  0.42329936257E+03  0.42329936257E+03  0.00000000000E+00 0. -1.
         21   -1    0    0  501  502 -0.00000000000E+00 -0.00000000000E+00 -0.12291371544E+03  0.12291371544E+03  0.00000000000E+00 0. -1.
      99926    2    1    2    0    0  0.77715611724E-15  0.00000000000E+00  0.30038564713E+03  0.54621307801E+03  0.45619862953E+03 0.  0.
      99925    2    3    3    0    0 -0.67361484631E+00  0.98419606802E+02  0.25831272263E+03  0.38157859852E+03  0.26303971452E+03 0.  0.
         25    1    4    4    0    0 -0.17689696940E+02  0.59057346416E+02  0.84063391541E+02  0.16283383383E+03  0.12509000000E+03 0.  0.
         25    1    4    4    0    0  0.17016082094E+02  0.39362260385E+02  0.17424933109E+03  0.21874476469E+03  0.12509000000E+03 0.  0.
         25    1    3    3    0    0  0.67361484631E+00 -0.98419606802E+02  0.42072924503E+02  0.16463447949E+03  0.12509000000E+03 0.  0.
<mgrwt>
<rscale>  2 0.45619863E+03</rscale>
<asrwt>0</asrwt>
<pdfrwt beam="1">  1       21 0.62249906E-01 0.45619863E+03</pdfrwt>
<pdfrwt beam="2">  1       21 0.18075547E-01 0.45619863E+03</pdfrwt>
<totfact> 0.61531780E+04</totfact>
</mgrwt>
</event>
<event>
 7    0  0.4779893E-002  0.4503075E+03  0.7546771E-02  0.1027630E+00
         21   -1    0    0  502  501  0.00000000000E+00  0.00000000000E+00  0.19671117686E+03  0.19671117686E+03  0.00000000000E+00 0.  1.
         21   -1    0    0  501  502 -0.00000000000E+00 -0.00000000000E+00 -0.25770889319E+03  0.25770889319E+03  0.00000000000E+00 0.  1.
      99926    2    1    2    0    0 -0.74940054162E-15  0.00000000000E+00 -0.60997716325E+02  0.45442007005E+03  0.45030753788E+03 0.  0.
      99925    2    3    3    0    0  0.20728332769E+00  0.94244287514E+02  0.16115629674E+02  0.27984628930E+03  0.26300609008E+03 0.  0.
         25    1    4    4    0    0  0.10418291766E+02  0.45210751758E+02 -0.31234684020E+02  0.13702432800E+03  0.12509000000E+03 0.  0.
         25    1    3    3    0    0 -0.20728332769E+00 -0.94244287514E+02 -0.77113345999E+02  0.17457378075E+03  0.12509000000E+03 0.  0.
         25    1    4    4    0    0 -0.10211008438E+02  0.49033535756E+02  0.47350313694E+02  0.14282196130E+03  0.12509000000E+03 0.  0.
<mgrwt>
<rscale>  2 0.45030754E+03</rscale>
<asrwt>0</asrwt>
<pdfrwt beam="1">  1       21 0.28928114E-01 0.45030754E+03</pdfrwt>
<pdfrwt beam="2">  1       21 0.37898366E-01 0.45030754E+03</pdfrwt>
<totfact> 0.71217107E+04</totfact>
</mgrwt>
</event>
<event>
 7    0  0.4779893E-002  0.4633517E+03  0.7546771E-02  0.1023814E+00
         21   -1    0    0  502  501  0.00000000000E+00  0.00000000000E+00  0.10123546078E+04  0.10123546078E+04  0.00000000000E+00 0.  1.
         21   -1    0    0  501  502 -0.00000000000E+00 -0.00000000000E+00 -0.53018667851E+02  0.53018667851E+02  0.00000000000E+00 0.  1.
      99926    2    1    2    0    0  0.00000000000E+00  0.00000000000E+00  0.95933593996E+03  0.10653732757E+04  0.46335167076E+03 0.  0.
      99925    2    3    3    0    0  0.80058861549E+02  0.37788396104E+02  0.78834937522E+03  0.83576208775E+03  0.26299457355E+03 0.  0.
         25    1    4    4    0    0  0.13755267206E+02  0.44875816476E+02  0.43441988528E+03  0.45450103532E+03  0.12509000000E+03 0.  0.
         25    1    4    4    0    0  0.66303594343E+02 -0.70874203725E+01  0.35392948995E+03  0.38126105244E+03  0.12509000000E+03 0.  0.
         25    1    3    3    0    0 -0.80058861549E+02 -0.37788396104E+02  0.17098656473E+03  0.22961118791E+03  0.12509000000E+03 0.  0.
<mgrwt>
<rscale>  2 0.46335167E+03</rscale>
<asrwt>0</asrwt>
<pdfrwt beam="1">  1       21 0.14887566E+00 0.46335167E+03</pdfrwt>
<pdfrwt beam="2">  1       21 0.77968636E-02 0.46335167E+03</pdfrwt>
<totfact> 0.34419619E+04</totfact>
</mgrwt>
</event>
<event>
 7    0  0.4779893E-002  0.5370857E+03  0.7546771E-02  0.1004528E+00
         21   -1    0    0  502  501  0.00000000000E+00  0.00000000000E+00  0.68887421236E+02  0.68887421236E+02  0.00000000000E+00 0.  1.
         21   -1    0    0  501  502 -0.00000000000E+00 -0.00000000000E+00 -0.10468568271E+04  0.10468568271E+04  0.00000000000E+00 0.  1.
      99926    2    1    2    0    0  0.00000000000E+00  0.00000000000E+00 -0.97796940586E+03  0.11157442483E+04  0.53708571838E+03 0.  0.
      99925    2    3    3    0    0 -0.59312996865E+02  0.15570940581E+03 -0.71780786227E+03  0.78243510127E+03  0.26304583232E+03 0.  0.
         25    1    3    3    0    0  0.59312996865E+02 -0.15570940581E+03 -0.26016154359E+03  0.33330914706E+03  0.12509000000E+03 0.  0.
         25    1    4    4    0    0 -0.24652731868E+01  0.52738748858E+02 -0.37931870782E+03  0.40288663840E+03  0.12509000000E+03 0.  0.
         25    1    4    4    0    0 -0.56847723678E+02  0.10297065695E+03 -0.33848915445E+03  0.37954846286E+03  0.12509000000E+03 0.  0.
<mgrwt>
<rscale>  2 0.53708572E+03</rscale>
<asrwt>0</asrwt>
<pdfrwt beam="1">  1       21 0.10130503E-01 0.53708572E+03</pdfrwt>
<pdfrwt beam="2">  1       21 0.15394953E+00 0.53708572E+03</pdfrwt>
<totfact> 0.19302333E+04</totfact>
</mgrwt>
</event>
<event>
 7    0  0.4779893E-002  0.4089448E+03  0.7546771E-02  0.1040726E+00
         21   -1    0    0  502  501  0.00000000000E+00  0.00000000000E+00  0.13200566365E+04  0.13200566365E+04  0.00000000000E+00 0.  1.
         21   -1    0    0  501  502 -0.00000000000E+00 -0.00000000000E+00 -0.31672101611E+02  0.31672101611E+02  0.00000000000E+00 0.  1.
      99926    2    1    2    0    0  0.00000000000E+00  0.00000000000E+00  0.12883845349E+04  0.13517287381E+04  0.40894482720E+03 0.  0.
      99925    2    3    3    0    0  0.43484473891E+02  0.40654348442E+01  0.71434416552E+03  0.76259608667E+03  0.26335864778E+03 0.  0.
         25    1    4    4    0    0  0.59746194046E+02 -0.13940145003E+02  0.38816776122E+03  0.41241442057E+03  0.12509000000E+03 0.  0.
         25    1    3    3    0    0 -0.43484473891E+02 -0.40654348442E+01  0.57404036933E+03  0.58913265141E+03  0.12509000000E+03 0.  0.
         25    1    4    4    0    0 -0.16261720155E+02  0.18005579848E+02  0.32617640431E+03  0.35018166610E+03  0.12509000000E+03 0.  0.
<mgrwt>
<rscale>  2 0.40894483E+03</rscale>
<asrwt>0</asrwt>
<pdfrwt beam="1">  1       21 0.19412594E+00 0.40894483E+03</pdfrwt>
<pdfrwt beam="2">  1       21 0.46576629E-02 0.40894483E+03</pdfrwt>
<totfact> 0.40238790E+04</totfact>
</mgrwt>
</event>
<event>
 7    0  0.4779893E-002  0.4548112E+03  0.7546771E-02  0.1026297E+00
         21   -1    0    0  502  501  0.00000000000E+00  0.00000000000E+00  0.43854487539E+03  0.43854487539E+03  0.00000000000E+00 0. -1.
         21   -1    0    0  501  502 -0.00000000000E+00 -0.00000000000E+00 -0.11792023631E+03  0.11792023631E+03  0.00000000000E+00 0. -1.
      99926    2    1    2    0    0 -0.14210854715E-13  0.00000000000E+00  0.32062463908E+03  0.55646511171E+03  0.45481123707E+03 0.  0.
      99925    2    3    3    0    0 -0.83379810701E+02 -0.43649640830E+02  0.12521892250E+03  0.30608862290E+03  0.26296954679E+03 0.  0.
         25    1    3    3    0    0  0.83379810701E+02  0.43649640830E+02  0.19540571658E+03  0.25037648881E+03  0.12509000000E+03 0.  0.
         25    1    4    4    0    0 -0.19372789394E+02 -0.42602409116E+02  0.31618453222E+02  0.13724979022E+03  0.12509000000E+03 0.  0.
         25    1    4    4    0    0 -0.64007021306E+02 -0.10472317132E+01  0.93600469276E+02  0.16883883268E+03  0.12509000000E+03 0.  0.
<mgrwt>
<rscale>  2 0.45481124E+03</rscale>
<asrwt>0</asrwt>
<pdfrwt beam="1">  1       21 0.64491893E-01 0.45481124E+03</pdfrwt>
<pdfrwt beam="2">  1       21 0.17341211E-01 0.45481124E+03</pdfrwt>
<totfact> 0.61533135E+04</totfact>
</mgrwt>
</event>
<event>
 7    0  0.4779893E-002  0.4713164E+03  0.7546771E-02  0.1021549E+00
         21   -1    0    0  502  501  0.00000000000E+00  0.00000000000E+00  0.10745654762E+03  0.10745654762E+03  0.00000000000E+00 0. -1.
         21   -1    0    0  501  502 -0.00000000000E+00 -0.00000000000E+00 -0.51681151846E+03  0.51681151846E+03  0.00000000000E+00 0. -1.
      99926    2    1    2    0    0  0.00000000000E+00  0.00000000000E+00 -0.40935497084E+03  0.62426806608E+03  0.47131637588E+03 0.  0.
      99925    2    3    3    0    0  0.21092685674E+02  0.85711127494E+02 -0.13159912370E+03  0.30711334440E+03  0.26307599317E+03 0.  0.
         25    1    4    4    0    0 -0.30523355373E+01  0.57146995154E+02 -0.10695292792E+03  0.17424561027E+03  0.12509000000E+03 0.  0.
         25    1    4    4    0    0  0.24145021211E+02  0.28564132340E+02 -0.24646195777E+02  0.13286773413E+03  0.12509000000E+03 0.  0.
         25    1    3    3    0    0 -0.21092685674E+02 -0.85711127494E+02 -0.27775584714E+03  0.31715472168E+03  0.12509000000E+03 0.  0.
<mgrwt>
<rscale>  2 0.47131638E+03</rscale>
<asrwt>0</asrwt>
<pdfrwt beam="1">  1       21 0.15802433E-01 0.47131638E+03</pdfrwt>
<pdfrwt beam="2">  1       21 0.76001694E-01 0.47131638E+03</pdfrwt>
<totfact> 0.50395223E+04</totfact>
</mgrwt>
</event>
<event>
 7    0  0.4779893E-002  0.4563353E+03  0.7546771E-02  0.1025849E+00
         21   -1    0    0  502  501  0.00000000000E+00  0.00000000000E+00  0.46844494392E+03  0.46844494392E+03  0.00000000000E+00 0.  1.
         21   -1    0    0  501  502 -0.00000000000E+00 -0.00000000000E+00 -0.11113467220E+03  0.11113467220E+03  0.00000000000E+00 0.  1.
      99926    2    1    2    0    0  0.00000000000E+00  0.35527136788E-14  0.35731027172E+03  0.57957961612E+03  0.45633529465E+03 0.  0.
      99925    2    3    3    0    0 -0.96571102452E+02  0.31433026352E+02  0.15761675633E+03  0.32298846046E+03  0.26299142712E+03 0.  0.
         25    1    4    4    0    0 -0.34032443687E+02  0.22414304206E+02  0.11955762240E+03  0.17776991149E+03  0.12509000000E+03 0.  0.
         25    1    4    4    0    0 -0.62538658766E+02  0.90187221462E+01  0.38059133926E+02  0.14521854897E+03  0.12509000000E+03 0.  0.
         25    1    3    3    0    0  0.96571102452E+02 -0.31433026352E+02  0.19969351540E+03  0.25659115567E+03  0.12509000000E+03 0.  0.
<mgrwt>
<rscale>  2 0.45633529E+03</rscale>
<asrwt>0</asrwt>
<pdfrwt beam="1">  1       21 0.68888962E-01 0.45633529E+03</pdfrwt>
<pdfrwt beam="2">  1       21 0.16343334E-01 0.45633529E+03</pdfrwt>
<totfact> 0.59324386E+04</totfact>
</mgrwt>
</event>
<event>
 7    0  0.4779893E-002  0.4524047E+03  0.7546771E-02  0.1027007E+00
         21   -1    0    0  502  501  0.00000000000E+00  0.00000000000E+00  0.19752930474E+03  0.19752930474E+03  0.00000000000E+00 0.  1.
         21   -1    0    0  501  502 -0.00000000000E+00 -0.00000000000E+00 -0.25903754634E+03  0.25903754634E+03  0.00000000000E+00 0.  1.
      99926    2    1    2    0    0  0.00000000000E+00  0.00000000000E+00 -0.61508241603E+02  0.45656685108E+03  0.45240471452E+03 0.  0.
      99925    2    3    3    0    0  0.39888619399E+02  0.51580573870E+02 -0.12910299496E+03  0.30014365478E+03  0.26299614567E+03 0.  0.
         25    1    4    4    0    0  0.30429998997E+02 -0.11242997066E+02 -0.46533664268E+02  0.13735093677E+03  0.12509000000E+03 0.  0.
         25    1    3    3    0    0 -0.39888619399E+02 -0.51580573870E+02  0.67594753358E+02  0.15642319630E+03  0.12509000000E+03 0.  0.
         25    1    4    4    0    0  0.94586204016E+01  0.62823570936E+02 -0.82569330692E+02  0.16279271801E+03  0.12509000000E+03 0.  0.
<mgrwt>
<rscale>  2 0.45240471E+03</rscale>
<asrwt>0</asrwt>
<pdfrwt beam="1">  1       21 0.29048427E-01 0.45240471E+03</pdfrwt>
<pdfrwt beam="2">  1       21 0.38093757E-01 0.45240471E+03</pdfrwt>
<totfact> 0.69866349E+04</totfact>
</mgrwt>
</event>
<event>
 7    0  0.4779893E-002  0.4445613E+03  0.7546771E-02  0.1029356E+00
         21   -1    0    0  502  501  0.00000000000E+00  0.00000000000E+00  0.10608423023E+04  0.10608423023E+04  0.00000000000E+00 0. -1.
         21   -1    0    0  501  502 -0.00000000000E+00 -0.00000000000E+00 -0.46574959928E+02  0.46574959928E+02  0.00000000000E+00 0. -1.
      99926    2    1    2    0    0  0.14210854715E-13  0.00000000000E+00  0.10142673424E+04  0.11074172622E+04  0.44456130160E+03 0.  0.
      99925    2    3    3    0    0  0.82465509164E+02 -0.57366142923E+02  0.58730374616E+03  0.65130668885E+03  0.26302714334E+03 0.  0.
         25    1    3    3    0    0 -0.82465509164E+02  0.57366142923E+02  0.42696359621E+03  0.45611057338E+03  0.12509000000E+03 0.  0.
         25    1    4    4    0    0  0.10145454436E+02 -0.46578368633E+02  0.32803220193E+03  0.35429522756E+03  0.12509000000E+03 0.  0.
         25    1    4    4    0    0  0.72320054728E+02 -0.10787774290E+02  0.25927154423E+03  0.29701146129E+03  0.12509000000E+03 0.  0.
<mgrwt>
<rscale>  2 0.44456130E+03</rscale>
<asrwt>0</asrwt>
<pdfrwt beam="1">  1       21 0.15600621E+00 0.44456130E+03</pdfrwt>
<pdfrwt beam="2">  1       21 0.68492595E-02 0.44456130E+03</pdfrwt>
<totfact> 0.38256497E+04</totfact>
</mgrwt>
</event>
<event>
 7    0  0.4779893E-002  0.4563256E+03  0.7546771E-02  0.1025852E+00
         21   -1    0    0  502  501  0.00000000000E+00  0.00000000000E+00  0.58344660268E+03  0.58344660268E+03  0.00000000000E+00 0. -1.
         21   -1    0    0  501  502 -0.00000000000E+00 -0.00000000000E+00 -0.89225417401E+02  0.89225417401E+02  0.00000000000E+00 0. -1.
      99926    2    1    2    0    0  0.00000000000E+00 -0.35527136788E-14  0.49422118528E+03  0.67267202008E+03  0.45632561469E+03 0.  0.
      99925    2    3    3    0    0 -0.87306874782E+02 -0.27517305081E+02  0.20948036403E+03  0.34847372297E+03  0.26300612203E+03 0.  0.
         25    1    4    4    0    0 -0.61337464766E+02  0.20531127740E+02  0.12227310238E+03  0.18649941409E+03  0.12509000000E+03 0.  0.
         25    1    3    3    0    0  0.87306874782E+02  0.27517305081E+02  0.28474082125E+03  0.32419829711E+03  0.12509000000E+03 0.  0.
         25    1    4    4    0    0 -0.25969410016E+02 -0.48048432821E+02  0.87207261651E+02  0.16197430888E+03  0.12509000000E+03 0.  0.
<mgrwt>
<rscale>  2 0.45632561E+03</rscale>
<asrwt>0</asrwt>
<pdfrwt beam="1">  1       21 0.85800969E-01 0.45632561E+03</pdfrwt>
<pdfrwt beam="2">  1       21 0.13121385E-01 0.45632561E+03</pdfrwt>
<totfact> 0.53847331E+04</totfact>
</mgrwt>
</event>
<event>
 7    0  0.4779893E-002  0.4531066E+03  0.7546771E-02  0.1026800E+00
         21   -1    0    0  502  501  0.00000000000E+00  0.00000000000E+00  0.84219407620E+02  0.84219407620E+02  0.00000000000E+00 0. -1.
         21   -1    0    0  501  502 -0.00000000000E+00 -0.00000000000E+00 -0.60943658499E+03  0.60943658499E+03  0.00000000000E+00 0. -1.
      99926    2    1    2    0    0  0.17763568394E-14  0.00000000000E+00 -0.52521717737E+03  0.69365599261E+03  0.45310655775E+03 0.  0.
      99925    2    3    3    0    0  0.94647833098E+01  0.35657443242E+02 -0.49199959489E+03  0.55907534293E+03  0.26294600648E+03 0.  0.
         25    1    4    4    0    0  0.13932771444E+02  0.96274286781E+01 -0.16339049864E+03  0.20647220793E+03  0.12509000000E+03 0.  0.
         25    1    4    4    0    0 -0.44679881346E+01  0.26030014564E+02 -0.32860909624E+03  0.35260313500E+03  0.12509000000E+03 0.  0.
         25    1    3    3    0    0 -0.94647833098E+01 -0.35657443242E+02 -0.33217582486E+02  0.13458064968E+03  0.12509000000E+03 0.  0.
<mgrwt>
<rscale>  2 0.45310656E+03</rscale>
<asrwt>0</asrwt>
<pdfrwt beam="1">  1       21 0.12385207E-01 0.45310656E+03</pdfrwt>
<pdfrwt beam="2">  1       21 0.89623027E-01 0.45310656E+03</pdfrwt>
<totfact> 0.54049836E+04</totfact>
</mgrwt>
</event>
<event>
 7    0  0.4779893E-002  0.4554307E+03  0.7546771E-02  0.1026115E+00
         21   -1    0    0  502  501  0.00000000000E+00  0.00000000000E+00  0.14073252224E+03  0.14073252224E+03  0.00000000000E+00 0. -1.
         21   -1    0    0  501  502 -0.00000000000E+00 -0.00000000000E+00 -0.36845987354E+03  0.36845987354E+03  0.00000000000E+00 0. -1.
      99926    2    1    2    0    0  0.71054273576E-14  0.00000000000E+00 -0.22772735130E+03  0.50919239579E+03  0.45543072953E+03 0.  0.
      99925    2    3    3    0    0 -0.43566385983E+02 -0.99660913900E+02 -0.17984832016E+03  0.33665185716E+03  0.26298046870E+03 0.  0.
         25    1    3    3    0    0  0.43566385983E+02  0.99660913900E+02 -0.47879031141E+02  0.17254053863E+03  0.12509000000E+03 0.  0.
         25    1    4    4    0    0 -0.20888280025E+02 -0.82903742072E+01 -0.94205459857E+02  0.15819995990E+03  0.12509000000E+03 0.  0.
         25    1    4    4    0    0 -0.22678105958E+02 -0.91370539693E+02 -0.85642860301E+02  0.17845189726E+03  0.12509000000E+03 0.  0.
<mgrwt>
<rscale>  2 0.45543073E+03</rscale>
<asrwt>0</asrwt>
<pdfrwt beam="1">  1       21 0.20695959E-01 0.45543073E+03</pdfrwt>
<pdfrwt beam="2">  1       21 0.54185276E-01 0.45543073E+03</pdfrwt>
<totfact> 0.64409108E+04</totfact>
</mgrwt>
</event>
<event>
 7    0  0.4779893E-002  0.4623357E+03  0.7546771E-02  0.1024106E+00
         21   -1    0    0  502  501  0.00000000000E+00  0.00000000000E+00  0.11115737579E+03  0.11115737579E+03  0.00000000000E+00 0. -1.
         21   -1    0    0  501  502 -0.00000000000E+00 -0.00000000000E+00 -0.48074695193E+03  0.48074695193E+03  0.00000000000E+00 0. -1.
      99926    2    1    2    0    0 -0.17763568394E-14  0.14210854715E-13 -0.36958957614E+03  0.59190432771E+03  0.46233567716E+03 0.  0.
      99925    2    3    3    0    0 -0.12027933570E+02 -0.10304064469E+03 -0.15407105043E+03  0.32198250816E+03  0.26300722678E+03 0.  0.
         25    1    3    3    0    0  0.12027933570E+02  0.10304064469E+03 -0.21551852571E+03  0.26992181955E+03  0.12509000000E+03 0.  0.
         25    1    4    4    0    0 -0.27941141073E+02 -0.63029970311E+02 -0.42774239639E+02  0.14909939034E+03  0.12509000000E+03 0.  0.
         25    1    4    4    0    0  0.15913207502E+02 -0.40010674383E+02 -0.11129681079E+03  0.17288311783E+03  0.12509000000E+03 0.  0.
<mgrwt>
<rscale>  2 0.46233568E+03</rscale>
<asrwt>0</asrwt>
<pdfrwt beam="1">  1       21 0.16346673E-01 0.46233568E+03</pdfrwt>
<pdfrwt beam="2">  1       21 0.70698081E-01 0.46233568E+03</pdfrwt>
<totfact> 0.55869131E+04</totfact>
</mgrwt>
</event>
<event>
 7    0  0.4779893E-002  0.4548323E+03  0.7546771E-02  0.1026291E+00
         21   -1    0    0  502  501  0.00000000000E+00  0.00000000000E+00  0.21476237767E+04  0.21476237767E+04  0.00000000000E+00 0. -1.
         21   -1    0    0  501  502 -0.00000000000E+00 -0.00000000000E+00 -0.24081551213E+02  0.24081551213E+02  0.00000000000E+00 0. -1.
      99926    2    1    2    0    0  0.00000000000E+00  0.00000000000E+00  0.21235422255E+04  0.21717053279E+04  0.45483232939E+03 0.  0.
      99925    2    3    3    0    0 -0.71202222652E+02 -0.49750603486E+02  0.16828249622E+04  0.17054177629E+04  0.26268805347E+03 0.  0.
         25    1    4    4    0    0 -0.74867429743E+02 -0.28836788243E+02  0.98595763779E+03  0.99709410990E+03  0.12509000000E+03 0.  0.
         25    1    3    3    0    0  0.71202222652E+02  0.49750603486E+02  0.44071726325E+03  0.46628756501E+03  0.12509000000E+03 0.  0.
         25    1    4    4    0    0  0.36652070905E+01 -0.20913815244E+02  0.69686732446E+03  0.70832365301E+03  0.12509000000E+03 0.  0.
<mgrwt>
<rscale>  2 0.45483233E+03</rscale>
<asrwt>0</asrwt>
<pdfrwt beam="1">  1       21 0.31582690E+00 0.45483233E+03</pdfrwt>
<pdfrwt beam="2">  1       21 0.35414060E-02 0.45483233E+03</pdfrwt>
<totfact> 0.11118074E+04</totfact>
</mgrwt>
</event>
<event>
 7    0  0.4779893E-002  0.4497018E+03  0.7546771E-02  0.1027811E+00
         21   -1    0    0  502  501  0.00000000000E+00  0.00000000000E+00  0.50256240019E+02  0.50256240019E+02  0.00000000000E+00 0.  1.
         21   -1    0    0  501  502 -0.00000000000E+00 -0.00000000000E+00 -0.10060029498E+04  0.10060029498E+04  0.00000000000E+00 0.  1.
      99926    2    1    2    0    0 -0.14210854715E-13  0.00000000000E+00 -0.95574670977E+03  0.10562591898E+04  0.44970179321E+03 0.  0.
      99925    2    3    3    0    0 -0.95044499675E+02 -0.18479352177E+02 -0.71926335777E+03  0.77174763073E+03  0.26244939385E+03 0.  0.
         25    1    3    3    0    0  0.95044499675E+02  0.18479352177E+02 -0.23648335201E+03  0.28451155908E+03  0.12509000000E+03 0.  0.
         25    1    4    4    0    0 -0.27011862138E+02  0.22827594088E+02 -0.29667131537E+03  0.32390140044E+03  0.12509000000E+03 0.  0.
         25    1    4    4    0    0 -0.68032637537E+02 -0.41306946266E+02 -0.42259204240E+03  0.44784623028E+03  0.12509000000E+03 0.  0.
<mgrwt>
<rscale>  2 0.44970179E+03</rscale>
<asrwt>0</asrwt>
<pdfrwt beam="1">  1       21 0.73906246E-02 0.44970179E+03</pdfrwt>
<pdfrwt beam="2">  1       21 0.14794159E+00 0.44970179E+03</pdfrwt>
<totfact> 0.38621024E+04</totfact>
</mgrwt>
</event>
<event>
 7    0  0.4779893E-002  0.4532608E+03  0.7546771E-02  0.1026754E+00
         21   -1    0    0  502  501  0.00000000000E+00  0.00000000000E+00  0.12406810023E+04  0.12406810023E+04  0.00000000000E+00 0.  1.
         21   -1    0    0  501  502 -0.00000000000E+00 -0.00000000000E+00 -0.41397706928E+02  0.41397706928E+02  0.00000000000E+00 0.  1.
      99926    2    1    2    0    0  0.00000000000E+00 -0.14210854715E-13  0.11992832954E+04  0.12820787093E+04  0.45326084555E+03 0.  0.
      99925    2    3    3    0    0 -0.74322651421E+02 -0.78921326550E+02  0.67950679572E+03  0.73658118404E+03  0.26281157310E+03 0.  0.
         25    1    4    4    0    0 -0.36277909981E+02  0.24836990190E+01  0.31379688763E+03  0.33976204953E+03  0.12509000000E+03 0.  0.
         25    1    3    3    0    0  0.74322651421E+02  0.78921326550E+02  0.51977649970E+03  0.54549752523E+03  0.12509000000E+03 0.  0.
         25    1    4    4    0    0 -0.38044741440E+02 -0.81405025569E+02  0.36570990810E+03  0.39681913452E+03  0.12509000000E+03 0.  0.
<mgrwt>
<rscale>  2 0.45326085E+03</rscale>
<asrwt>0</asrwt>
<pdfrwt beam="1">  1       21 0.18245307E+00 0.45326085E+03</pdfrwt>
<pdfrwt beam="2">  1       21 0.60878989E-02 0.45326085E+03</pdfrwt>
<totfact> 0.30044124E+04</totfact>
</mgrwt>
</event>
<event>
 7    0  0.4779893E-002  0.4590668E+03  0.7546771E-02  0.1025052E+00
         21   -1    0    0  502  501  0.00000000000E+00  0.00000000000E+00  0.10277878343E+04  0.10277878343E+04  0.00000000000E+00 0. -1.
         21   -1    0    0  501  502 -0.00000000000E+00 -0.00000000000E+00 -0.51261151745E+02  0.51261151745E+02  0.00000000000E+00 0. -1.
      99926    2    1    2    0    0  0.14210854715E-13  0.00000000000E+00  0.97652668259E+03  0.10790489861E+04  0.45906682798E+03 0.  0.
      99925    2    3    3    0    0  0.99266287339E+02  0.41271623701E+02  0.72084524197E+03  0.77478323069E+03  0.26289550959E+03 0.  0.
         25    1    4    4    0    0  0.73340005913E+02  0.35817814022E+02  0.30303492116E+03  0.33784514768E+03  0.12509000000E+03 0.  0.
         25    1    3    3    0    0 -0.99266287339E+02 -0.41271623701E+02  0.25568144062E+03  0.30426575539E+03  0.12509000000E+03 0.  0.
         25    1    4    4    0    0  0.25926281426E+02  0.54538096790E+01  0.41781032081E+03  0.43693808301E+03  0.12509000000E+03 0.  0.
<mgrwt>
<rscale>  2 0.45906683E+03</rscale>
<asrwt>0</asrwt>
<pdfrwt beam="1">  1       21 0.15114526E+00 0.45906683E+03</pdfrwt>
<pdfrwt beam="2">  1       21 0.75384054E-02 0.45906683E+03</pdfrwt>
<totfact> 0.35102024E+04</totfact>
</mgrwt>
</event>
<event>
 7    0  0.4779893E-002  0.4511401E+03  0.7546771E-02  0.1027383E+00
         21   -1    0    0  502  501  0.00000000000E+00  0.00000000000E+00  0.14791737015E+03  0.14791737015E+03  0.00000000000E+00 0.  1.
         21   -1    0    0  501  502 -0.00000000000E+00 -0.00000000000E+00 -0.34398829650E+03  0.34398829650E+03  0.00000000000E+00 0.  1.
      99926    2    1    2    0    0  0.71054273576E-14 -0.71054273576E-14 -0.19607092635E+03  0.49190566665E+03  0.45114008547E+03 0.  0.
      99925    2    3    3    0    0 -0.43637445641E+02 -0.29865465412E+02 -0.19201995836E+02  0.26891172196E+03  0.26296126117E+03 0.  0.
         25    1    3    3    0    0  0.43637445641E+02  0.29865465412E+02 -0.17686893051E+03  0.22299394469E+03  0.12509000000E+03 0.  0.
         25    1    4    4    0    0 -0.55113363969E+02 -0.36436382710E+02  0.12584303785E+01  0.14147149755E+03  0.12509000000E+03 0.  0.
         25    1    4    4    0    0  0.11475918328E+02  0.65709172974E+01 -0.20460426214E+02  0.12744022441E+03  0.12509000000E+03 0.  0.
<mgrwt>
<rscale>  2 0.45114009E+03</rscale>
<asrwt>0</asrwt>
<pdfrwt beam="1">  1       21 0.21752554E-01 0.45114009E+03</pdfrwt>
<pdfrwt beam="2">  1       21 0.50586514E-01 0.45114009E+03</pdfrwt>
<totfact> 0.67900012E+04</totfact>
</mgrwt>
</event>
<event>
 7    0  0.4779893E-002  0.4547034E+03  0.7546771E-02  0.1026329E+00
         21   -1    0    0  502  501  0.00000000000E+00  0.00000000000E+00  0.10845739586E+03  0.10845739586E+03  0.00000000000E+00 0. -1.
         21   -1    0    0  501  502 -0.00000000000E+00 -0.00000000000E+00 -0.47658146990E+03  0.47658146990E+03  0.00000000000E+00 0. -1.
      99926    2    1    2    0    0  0.00000000000E+00  0.00000000000E+00 -0.36812407404E+03  0.58503886577E+03  0.45470335447E+03 0.  0.
      99925    2    3    3    0    0  0.99232494499E+02  0.15760458601E+02 -0.16749353478E+03  0.32814277509E+03  0.26368184737E+03 0.  0.
         25    1    4    4    0    0  0.25307558880E+02  0.14158792681E+02 -0.11868162717E+03  0.17485359783E+03  0.12509000000E+03 0.  0.
         25    1    4    4    0    0  0.73924935619E+02  0.16016659200E+01 -0.48811907611E+02  0.15328917726E+03  0.12509000000E+03 0.  0.
         25    1    3    3    0    0 -0.99232494499E+02 -0.15760458601E+02 -0.20063053926E+03  0.25689609067E+03  0.12509000000E+03 0.  0.
<mgrwt>
<rscale>  2 0.45470335E+03</rscale>
<asrwt>0</asrwt>
<pdfrwt beam="1">  1       21 0.15949617E-01 0.45470335E+03</pdfrwt>
<pdfrwt beam="2">  1       21 0.70085510E-01 0.45470335E+03</pdfrwt>
<totfact> 0.59748723E+04</totfact>
</mgrwt>
</event>
<event>
 7    0  0.4779893E-002  0.4572843E+03  0.7546771E-02  0.1025572E+00
         21   -1    0    0  502  501  0.00000000000E+00  0.00000000000E+00  0.56976701976E+03  0.56976701976E+03  0.00000000000E+00 0. -1.
         21   -1    0    0  501  502 -0.00000000000E+00 -0.00000000000E+00 -0.91751929440E+02  0.91751929440E+02  0.00000000000E+00 0. -1.
      99926    2    1    2    0    0  0.14210854715E-13  0.00000000000E+00  0.47801509032E+03  0.66151894920E+03  0.45728425905E+03 0.  0.
      99925    2    3    3    0    0 -0.11175696265E+03  0.14850068718E+02  0.33403589887E+03  0.43996160017E+03  0.26320350424E+03 0.  0.
         25    1    3    3    0    0  0.11175696265E+03 -0.14850068718E+02  0.14397919145E+03  0.22155734904E+03  0.12509000000E+03 0.  0.
         25    1    4    4    0    0 -0.15572533181E+02 -0.99002559874E+01  0.14019391351E+03  0.18879184395E+03  0.12509000000E+03 0.  0.
         25    1    4    4    0    0 -0.96184429469E+02  0.24750324705E+02  0.19384198537E+03  0.25116975621E+03  0.12509000000E+03 0.  0.
<mgrwt>
<rscale>  2 0.45728426E+03</rscale>
<asrwt>0</asrwt>
<pdfrwt beam="1">  1       21 0.83789266E-01 0.45728426E+03</pdfrwt>
<pdfrwt beam="2">  1       21 0.13492931E-01 0.45728426E+03</pdfrwt>
<totfact> 0.54061763E+04</totfact>
</mgrwt>
</event>
<event>
 7    0  0.4779893E-002  0.4520806E+03  0.7546771E-02  0.1027103E+00
         21   -1    0    0  502  501  0.00000000000E+00  0.00000000000E+00  0.19246420082E+03  0.19246420082E+03  0.00000000000E+00 0. -1.
         21   -1    0    0  501  502 -0.00000000000E+00 -0.00000000000E+00 -0.26547382491E+03  0.26547382491E+03  0.00000000000E+00 0. -1.
      99926    2    1    2    0    0  0.17763568394E-14  0.00000000000E+00 -0.73009624088E+02  0.45793802573E+03  0.45208055721E+03 0.  0.
      99925    2    3    3    0    0  0.15367171696E+02 -0.97607847308E+02 -0.96010312312E+02  0.29687908751E+03  0.26297484806E+03 0.  0.
         25    1    4    4    0    0 -0.24693547217E+02 -0.71406983338E+02 -0.38543452686E+02  0.15113515272E+03  0.12509000000E+03 0.  0.
         25    1    3    3    0    0 -0.15367171696E+02  0.97607847308E+02  0.23000688224E+02  0.16105893822E+03  0.12509000000E+03 0.  0.
         25    1    4    4    0    0  0.40060718913E+02 -0.26200863970E+02 -0.57466859626E+02  0.14574393479E+03  0.12509000000E+03 0.  0.
<mgrwt>
<rscale>  2 0.45208056E+03</rscale>
<asrwt>0</asrwt>
<pdfrwt beam="1">  1       21 0.28303559E-01 0.45208056E+03</pdfrwt>
<pdfrwt beam="2">  1       21 0.39040268E-01 0.45208056E+03</pdfrwt>
<totfact> 0.69945334E+04</totfact>
</mgrwt>
</event>
<event>
 7    0  0.4779893E-002  0.4541433E+03  0.7546771E-02  0.1026494E+00
         21   -1    0    0  502  501  0.00000000000E+00  0.00000000000E+00  0.16212747569E+03  0.16212747569E+03  0.00000000000E+00 0.  1.
         21   -1    0    0  501  502 -0.00000000000E+00 -0.00000000000E+00 -0.31803088614E+03  0.31803088614E+03  0.00000000000E+00 0.  1.
      99926    2    1    2    0    0  0.35527136788E-14  0.71054273576E-14 -0.15590341044E+03  0.48015836183E+03  0.45414334636E+03 0.  0.
      99925    2    3    3    0    0  0.63524980323E+01  0.35828876655E+02  0.14224883285E+02  0.26588002167E+03  0.26299387063E+03 0.  0.
         25    1    4    4    0    0 -0.31354820197E+02  0.25182338629E+02  0.27117906354E+02  0.13416468937E+03  0.12509000000E+03 0.  0.
         25    1    4    4    0    0  0.37707318230E+02  0.10646538026E+02 -0.12893023069E+02  0.13171533230E+03  0.12509000000E+03 0.  0.
         25    1    3    3    0    0 -0.63524980323E+01 -0.35828876655E+02 -0.17012829373E+03  0.21427834016E+03  0.12509000000E+03 0.  0.
<mgrwt>
<rscale>  2 0.45414335E+03</rscale>
<asrwt>0</asrwt>
<pdfrwt beam="1">  1       21 0.23842276E-01 0.45414335E+03</pdfrwt>
<pdfrwt beam="2">  1       21 0.46769247E-01 0.45414335E+03</pdfrwt>
<totfact> 0.67143976E+04</totfact>
</mgrwt>
</event>
<event>
 7    0  0.4779893E-002  0.4562947E+03  0.7546771E-02  0.1025861E+00
         21   -1    0    0  502  501  0.00000000000E+00  0.00000000000E+00  0.28073141395E+03  0.28073141395E+03  0.00000000000E+00 0.  1.
         21   -1    0    0  501  502 -0.00000000000E+00 -0.00000000000E+00 -0.18541285630E+03  0.18541285630E+03  0.00000000000E+00 0.  1.
      99926    2    1    2    0    0  0.71054273576E-14  0.00000000000E+00  0.95318557657E+02  0.46614427025E+03  0.45629470000E+03 0.  0.
      99925    2    3    3    0    0  0.61146424236E+02 -0.21213585625E+02  0.15616331988E+03  0.31272166891E+03  0.26309496065E+03 0.  0.
         25    1    4    4    0    0  0.32449937304E+02 -0.51424336295E+02  0.79176448439E+02  0.16004336563E+03  0.12509000000E+03 0.  0.
         25    1    3    3    0    0 -0.61146424236E+02  0.21213585625E+02 -0.60844762224E+02  0.15342260134E+03  0.12509000000E+03 0.  0.
         25    1    4    4    0    0  0.28696486931E+02  0.30210750670E+02  0.76986871442E+02  0.15267830328E+03  0.12509000000E+03 0.  0.
<mgrwt>
<rscale>  2 0.45629470E+03</rscale>
<asrwt>0</asrwt>
<pdfrwt beam="1">  1       21 0.41284031E-01 0.45629470E+03</pdfrwt>
<pdfrwt beam="2">  1       21 0.27266597E-01 0.45629470E+03</pdfrwt>
<totfact> 0.67032897E+04</totfact>
</mgrwt>
</event>
<event>
 7    0  0.4779893E-002  0.4472943E+03  0.7546771E-02  0.1028532E+00
         21   -1    0    0  502  501  0.00000000000E+00  0.00000000000E+00  0.11140608377E+03  0.11140608377E+03  0.00000000000E+00 0. -1.
         21   -1    0    0  501  502 -0.00000000000E+00 -0.00000000000E+00 -0.44897051998E+03  0.44897051998E+03  0.00000000000E+00 0. -1.
      99926    2    1    2    0    0  0.14210854715E-13  0.00000000000E+00 -0.33756443622E+03  0.56037660375E+03  0.44729429845E+03 0.  0.
      99925    2    3    3    0    0 -0.60795309958E+02 -0.39094149109E+02 -0.31025992557E+03  0.41334780858E+03  0.26338330857E+03 0.  0.
         25    1    4    4    0    0 -0.14904295761E+02 -0.60072499911E+01 -0.94426007935E+02  0.15755000527E+03  0.12509000000E+03 0.  0.
         25    1    3    3    0    0  0.60795309958E+02  0.39094149109E+02 -0.27304510646E+02  0.14702879517E+03  0.12509000000E+03 0.  0.
         25    1    4    4    0    0 -0.45891014197E+02 -0.33086899118E+02 -0.21583391764E+03  0.25579780331E+03  0.12509000000E+03 0.  0.
<mgrwt>
<rscale>  2 0.44729430E+03</rscale>
<asrwt>0</asrwt>
<pdfrwt beam="1">  1       21 0.16383247E-01 0.44729430E+03</pdfrwt>
<pdfrwt beam="2">  1       21 0.66025077E-01 0.44729430E+03</pdfrwt>
<totfact> 0.65061718E+04</totfact>
</mgrwt>
</event>
<event>
 7    0  0.4779893E-002  0.4546229E+03  0.7546771E-02  0.1026352E+00
         21   -1    0    0  502  501  0.00000000000E+00  0.00000000000E+00  0.92001713101E+02  0.92001713101E+02  0.00000000000E+00 0. -1.
         21   -1    0    0  501  502 -0.00000000000E+00 -0.00000000000E+00 -0.56162538945E+03  0.56162538945E+03  0.00000000000E+00 0. -1.
      99926    2    1    2    0    0  0.00000000000E+00  0.00000000000E+00 -0.46962367635E+03  0.65362710255E+03  0.45462291165E+03 0.  0.
      99925    2    3    3    0    0  0.71095904734E+02 -0.85856180217E+02 -0.32078030691E+03  0.42951157859E+03  0.26297201276E+03 0.  0.
         25    1    4    4    0    0  0.26343745994E+02 -0.13654212651E+02 -0.10481025897E+03  0.16587082010E+03  0.12509000000E+03 0.  0.
         25    1    4    4    0    0  0.44752158739E+02 -0.72201967566E+02 -0.21597004793E+03  0.26364075849E+03  0.12509000000E+03 0.  0.
         25    1    3    3    0    0 -0.71095904734E+02  0.85856180217E+02 -0.14884336944E+03  0.22411552396E+03  0.12509000000E+03 0.  0.
<mgrwt>
<rscale>  2 0.45462291E+03</rscale>
<asrwt>0</asrwt>
<pdfrwt beam="1">  1       21 0.13529664E-01 0.45462291E+03</pdfrwt>
<pdfrwt beam="2">  1       21 0.82591969E-01 0.45462291E+03</pdfrwt>
<totfact> 0.55658388E+04</totfact>
</mgrwt>
</event>
<event>
 7    0  0.4779893E-002  0.4465693E+03  0.7546771E-02  0.1028750E+00
         21   -1    0    0  502  501  0.00000000000E+00  0.00000000000E+00  0.53571610185E+03  0.53571610185E+03  0.00000000000E+00 0.  1.
         21   -1    0    0  501  502 -0.00000000000E+00 -0.00000000000E+00 -0.93064268016E+02  0.93064268016E+02  0.00000000000E+00 0.  1.
      99926    2    1    2    0    0  0.00000000000E+00  0.00000000000E+00  0.44265183383E+03  0.62878036987E+03  0.44656926398E+03 0.  0.
      99925    2    3    3    0    0 -0.46912824184E+02  0.29337280167E+02  0.40656285989E+03  0.48731867462E+03  0.26291565666E+03 0.  0.
         25    1    3    3    0    0  0.46912824184E+02 -0.29337280167E+02  0.36088973945E+02  0.14146169524E+03  0.12509000000E+03 0.  0.
         25    1    4    4    0    0 -0.16262298758E+02  0.54254357846E+02  0.21685705937E+03  0.25667584617E+03  0.12509000000E+03 0.  0.
         25    1    4    4    0    0 -0.30650525426E+02 -0.24917077679E+02  0.18970580051E+03  0.23064282845E+03  0.12509000000E+03 0.  0.
<mgrwt>
<rscale>  2 0.44656926E+03</rscale>
<asrwt>0</asrwt>
<pdfrwt beam="1">  1       21 0.78781778E-01 0.44656926E+03</pdfrwt>
<pdfrwt beam="2">  1       21 0.13685922E-01 0.44656926E+03</pdfrwt>
<totfact> 0.60893291E+04</totfact>
</mgrwt>
</event>
<event>
 7    0  0.4779893E-002  0.4529941E+03  0.7546771E-02  0.1026833E+00
         21   -1    0    0  502  501  0.00000000000E+00  0.00000000000E+00  0.86371264210E+03  0.86371264210E+03  0.00000000000E+00 0.  1.
         21   -1    0    0  501  502 -0.00000000000E+00 -0.00000000000E+00 -0.59395824829E+02  0.59395824829E+02  0.00000000000E+00 0.  1.
      99926    2    1    2    0    0  0.00000000000E+00  0.00000000000E+00  0.80431681727E+03  0.92310846693E+03  0.45299414916E+03 0.  0.
      99925    2    3    3    0    0 -0.22131128257E+02 -0.50329009299E+01  0.28721812569E+03  0.39061087833E+03  0.26375649682E+03 0.  0.
         25    1    4    4    0    0 -0.41320145253E+02  0.10595973911E+02  0.18405458355E+03  0.22659043866E+03  0.12509000000E+03 0.  0.
         25    1    3    3    0    0  0.22131128257E+02  0.50329009299E+01  0.51709869158E+03  0.53249758860E+03  0.12509000000E+03 0.  0.
         25    1    4    4    0    0  0.19189016996E+02 -0.15628874841E+02  0.10316354214E+03  0.16402043967E+03  0.12509000000E+03 0.  0.
<mgrwt>
<rscale>  2 0.45299415E+03</rscale>
<asrwt>0</asrwt>
<pdfrwt beam="1">  1       21 0.12701656E+00 0.45299415E+03</pdfrwt>
<pdfrwt beam="2">  1       21 0.87346807E-02 0.45299415E+03</pdfrwt>
<totfact> 0.42918857E+04</totfact>
</mgrwt>
</event>
<event>
 7    0  0.4779893E-002  0.4639769E+03  0.7546771E-02  0.1023634E+00
         21   -1    0    0  502  501  0.00000000000E+00  0.00000000000E+00  0.13419677835E+03  0.13419677835E+03  0.00000000000E+00 0. -1.
         21   -1    0    0  501  502 -0.00000000000E+00 -0.00000000000E+00 -0.40104274559E+03  0.40104274559E+03  0.00000000000E+00 0. -1.
      99926    2    1    2    0    0  0.71054273576E-14  0.00000000000E+00 -0.26684596724E+03  0.53523952394E+03  0.46397691511E+03 0.  0.
      99925    2    3    3    0    0 -0.51569489286E+02  0.35221599673E+02 -0.28670431291E+03  0.39402396070E+03  0.26297441940E+03 0.  0.
         25    1    4    4    0    0 -0.19969376820E+02  0.57869896760E+02 -0.15061047615E+03  0.20513099373E+03  0.12509000000E+03 0.  0.
         25    1    4    4    0    0 -0.31600112466E+02 -0.22648297087E+02 -0.13609383676E+03  0.18889296698E+03  0.12509000000E+03 0.  0.
         25    1    3    3    0    0  0.51569489286E+02 -0.35221599673E+02  0.19858345666E+02  0.14121556324E+03  0.12509000000E+03 0.  0.
<mgrwt>
<rscale>  2 0.46397692E+03</rscale>
<asrwt>0</asrwt>
<pdfrwt beam="1">  1       21 0.19734821E-01 0.46397692E+03</pdfrwt>
<pdfrwt beam="2">  1       21 0.58976874E-01 0.46397692E+03</pdfrwt>
<totfact> 0.58573371E+04</totfact>
</mgrwt>
</event>
<event>
 7    0  0.4779893E-002  0.4437742E+03  0.7546771E-02  0.1029595E+00
         21   -1    0    0  502  501  0.00000000000E+00  0.00000000000E+00  0.14142977923E+02  0.14142977923E+02  0.00000000000E+00 0. -1.
         21   -1    0    0  501  502 -0.00000000000E+00 -0.00000000000E+00 -0.34811539207E+04  0.34811539207E+04  0.00000000000E+00 0. -1.
      99926    2    1    2    0    0  0.00000000000E+00  0.71054273576E-14 -0.34670109428E+04  0.34952968986E+04  0.44377419053E+03 0.  0.
      99925    2    3    3    0    0 -0.93145924463E+02  0.36782185460E+02 -0.23789717072E+04  0.23955214767E+04  0.26265503852E+03 0.  0.
         25    1    4    4    0    0 -0.16622474200E+02 -0.73663410538E+00 -0.89548739194E+03  0.90433512953E+03  0.12509000000E+03 0.  0.
         25    1    3    3    0    0  0.93145924463E+02 -0.36782185460E+02 -0.10880392356E+04  0.10997754219E+04  0.12509000000E+03 0.  0.
         25    1    4    4    0    0 -0.76523450263E+02  0.37518819565E+02 -0.14834843153E+04  0.14911863472E+04  0.12509000000E+03 0.  0.
<mgrwt>
<rscale>  2 0.44377419E+03</rscale>
<asrwt>0</asrwt>
<pdfrwt beam="1">  1       21 0.20798505E-02 0.44377419E+03</pdfrwt>
<pdfrwt beam="2">  1       21 0.51193421E+00 0.44377419E+03</pdfrwt>
<totfact> 0.14201342E+03</totfact>
</mgrwt>
</event>
<event>
 7    0  0.4779893E-002  0.4534820E+03  0.7546771E-02  0.1026689E+00
         21   -1    0    0  502  501  0.00000000000E+00  0.00000000000E+00  0.41969224218E+03  0.41969224218E+03  0.00000000000E+00 0. -1.
         21   -1    0    0  501  502 -0.00000000000E+00 -0.00000000000E+00 -0.12249804390E+03  0.12249804390E+03  0.00000000000E+00 0. -1.
      99926    2    1    2    0    0  0.00000000000E+00  0.00000000000E+00  0.29719419828E+03  0.54219028609E+03  0.45348198954E+03 0.  0.
      99925    2    3    3    0    0  0.76247787927E+02  0.51678614825E+02  0.11154906362E+03  0.30012412051E+03  0.26295796190E+03 0.  0.
         25    1    4    4    0    0  0.10429148625E+02  0.71143820654E+01  0.24019952262E+02  0.12799940539E+03  0.12509000000E+03 0.  0.
         25    1    4    4    0    0  0.65818639302E+02  0.44564232759E+02  0.87529111362E+02  0.17212471512E+03  0.12509000000E+03 0.  0.
         25    1    3    3    0    0 -0.76247787927E+02 -0.51678614825E+02  0.18564513465E+03  0.24206616557E+03  0.12509000000E+03 0.  0.
<mgrwt>
<rscale>  2 0.45348199E+03</rscale>
<asrwt>0</asrwt>
<pdfrwt beam="1">  1       21 0.61719447E-01 0.45348199E+03</pdfrwt>
<pdfrwt beam="2">  1       21 0.18014418E-01 0.45348199E+03</pdfrwt>
<totfact> 0.63140632E+04</totfact>
</mgrwt>
</event>
<event>
 7    0  0.4779893E-002  0.4511164E+03  0.7546771E-02  0.1027390E+00
         21   -1    0    0  502  501  0.00000000000E+00  0.00000000000E+00  0.83353475178E+02  0.83353475178E+02  0.00000000000E+00 0.  1.
         21   -1    0    0  501  502 -0.00000000000E+00 -0.00000000000E+00 -0.61037057929E+03  0.61037057929E+03  0.00000000000E+00 0.  1.
      99926    2    1    2    0    0  0.00000000000E+00 -0.44408920985E-14 -0.52701710411E+03  0.69372405447E+03  0.45111643255E+03 0.  0.
      99925    2    3    3    0    0  0.98025482111E+02  0.69672650161E+01 -0.25846624815E+03  0.38159490129E+03  0.26296830481E+03 0.  0.
         25    1    4    4    0    0  0.39358493792E+02 -0.35998787695E+02 -0.12893465042E+03  0.18739438606E+03  0.12509000000E+03 0.  0.
         25    1    4    4    0    0  0.58666988320E+02  0.42966052711E+02 -0.12953159773E+03  0.19420051522E+03  0.12509000000E+03 0.  0.
         25    1    3    3    0    0 -0.98025482111E+02 -0.69672650161E+01 -0.26855085597E+03  0.31212915318E+03  0.12509000000E+03 0.  0.
<mgrwt>
<rscale>  2 0.45111643E+03</rscale>
<asrwt>0</asrwt>
<pdfrwt beam="1">  1       21 0.12257865E-01 0.45111643E+03</pdfrwt>
<pdfrwt beam="2">  1       21 0.89760374E-01 0.45111643E+03</pdfrwt>
<totfact> 0.54904225E+04</totfact>
</mgrwt>
</event>
<event>
 7    0  0.4779893E-002  0.4548324E+03  0.7546771E-02  0.1026291E+00
         21   -1    0    0  502  501  0.00000000000E+00  0.00000000000E+00  0.68831668911E+03  0.68831668911E+03  0.00000000000E+00 0.  1.
         21   -1    0    0  501  502 -0.00000000000E+00 -0.00000000000E+00 -0.75137106854E+02  0.75137106854E+02  0.00000000000E+00 0.  1.
      99926    2    1    2    0    0  0.00000000000E+00  0.00000000000E+00  0.61317958225E+03  0.76345379596E+03  0.45483238503E+03 0.  0.
      99925    2    3    3    0    0 -0.68254377763E+02  0.48792002925E+02  0.26199627336E+03  0.38133268403E+03  0.26407053797E+03 0.  0.
         25    1    3    3    0    0  0.68254377763E+02 -0.48792002925E+02  0.35118330889E+03  0.38212111193E+03  0.12509000000E+03 0.  0.
         25    1    4    4    0    0 -0.53906646217E+02 -0.11743686603E+02  0.14269657213E+03  0.19761999008E+03  0.12509000000E+03 0.  0.
         25    1    4    4    0    0 -0.14347731546E+02  0.60535689528E+02  0.11929970123E+03  0.18371269396E+03  0.12509000000E+03 0.  0.
<mgrwt>
<rscale>  2 0.45483239E+03</rscale>
<asrwt>0</asrwt>
<pdfrwt beam="1">  1       21 0.10122304E+00 0.45483239E+03</pdfrwt>
<pdfrwt beam="2">  1       21 0.11049575E-01 0.45483239E+03</pdfrwt>
<totfact> 0.49648340E+04</totfact>
</mgrwt>
</event>
<event>
 7    0  0.4779893E-002  0.4441601E+03  0.7546771E-02  0.1029478E+00
         21   -1    0    0  502  501  0.00000000000E+00  0.00000000000E+00  0.10551270072E+03  0.10551270072E+03  0.00000000000E+00 0. -1.
         21   -1    0    0  501  502 -0.00000000000E+00 -0.00000000000E+00 -0.46742759645E+03  0.46742759645E+03  0.00000000000E+00 0. -1.
      99926    2    1    2    0    0  0.14210854715E-13  0.00000000000E+00 -0.36191489572E+03  0.57294029717E+03  0.44416009768E+03 0.  0.
      99925    2    3    3    0    0 -0.73173764835E+02  0.21292894609E+02 -0.14127787282E+03  0.30810829155E+03  0.26298953355E+03 0.  0.
         25    1    4    4    0    0 -0.49948611356E+02  0.48272715269E+02 -0.84743373680E+02  0.16629511808E+03  0.12509000000E+03 0.  0.
         25    1    4    4    0    0 -0.23225153479E+02 -0.26979820660E+02 -0.56534499137E+02  0.14181317347E+03  0.12509000000E+03 0.  0.
         25    1    3    3    0    0  0.73173764835E+02 -0.21292894609E+02 -0.22063702291E+03  0.26483200561E+03  0.12509000000E+03 0.  0.
<mgrwt>
<rscale>  2 0.44416010E+03</rscale>
<asrwt>0</asrwt>
<pdfrwt beam="1">  1       21 0.15516574E-01 0.44416010E+03</pdfrwt>
<pdfrwt beam="2">  1       21 0.68739352E-01 0.44416010E+03</pdfrwt>
<totfact> 0.65839889E+04</totfact>
</mgrwt>
</event>
<event>
 7    0  0.4779893E-002  0.4542845E+03  0.7546771E-02  0.1026452E+00
         21   -1    0    0  502  501  0.00000000000E+00  0.00000000000E+00  0.29822310185E+02  0.29822310185E+02  0.00000000000E+00 0. -1.
         21   -1    0    0  501  502 -0.00000000000E+00 -0.00000000000E+00 -0.17300334423E+04  0.17300334423E+04  0.00000000000E+00 0. -1.
      99926    2    1    2    0    0 -0.14210854715E-13 -0.47184478547E-15 -0.17002111321E+04  0.17598557525E+04  0.45428446571E+03 0.  0.
      99925    2    3    3    0    0  0.11252233789E+03 -0.23839681714E+00 -0.10654050630E+04  0.11031308582E+04  0.26296084989E+03 0.  0.
         25    1    3    3    0    0 -0.11252233789E+03  0.23839681714E+00 -0.63480606910E+03  0.65672489433E+03  0.12509000000E+03 0.  0.
         25    1    4    4    0    0  0.81186161809E+02  0.26505642154E+02 -0.49151183816E+03  0.51432007260E+03  0.12509000000E+03 0.  0.
         25    1    4    4    0    0  0.31336176082E+02 -0.26744038971E+02 -0.57389322485E+03  0.58881078555E+03  0.12509000000E+03 0.  0.
<mgrwt>
<rscale>  2 0.45428447E+03</rscale>
<asrwt>0</asrwt>
<pdfrwt beam="1">  1       21 0.43856334E-02 0.45428447E+03</pdfrwt>
<pdfrwt beam="2">  1       21 0.25441671E+00 0.45428447E+03</pdfrwt>
<totfact> 0.18144306E+04</totfact>
</mgrwt>
</event>
<event>
 7    0  0.4779893E-002  0.4529416E+03  0.7546771E-02  0.1026848E+00
         21   -1    0    0  502  501  0.00000000000E+00  0.00000000000E+00  0.19295703594E+04  0.19295703594E+04  0.00000000000E+00 0.  1.
         21   -1    0    0  501  502 -0.00000000000E+00 -0.00000000000E+00 -0.26580535477E+02  0.26580535477E+02  0.00000000000E+00 0.  1.
      99926    2    1    2    0    0 -0.71054273576E-14  0.00000000000E+00  0.19029898239E+04  0.19561508949E+04  0.45294155646E+03 0.  0.
      99925    2    3    3    0    0 -0.47391149848E+02 -0.91212454230E+02  0.13832398263E+04  0.14117675731E+04  0.26300119872E+03 0.  0.
         25    1    3    3    0    0  0.47391149848E+02  0.91212454230E+02  0.51974999763E+03  0.54438332178E+03  0.12509000000E+03 0.  0.
         25    1    4    4    0    0 -0.38280174993E+02 -0.25771317526E+02  0.50987592641E+03  0.52702039907E+03  0.12509000000E+03 0.  0.
         25    1    4    4    0    0 -0.91109748553E+01 -0.65441136704E+02  0.87336389989E+03  0.88474717404E+03  0.12509000000E+03 0.  0.
<mgrwt>
<rscale>  2 0.45294156E+03</rscale>
<asrwt>0</asrwt>
<pdfrwt beam="1">  1       21 0.28376025E+00 0.45294156E+03</pdfrwt>
<pdfrwt beam="2">  1       21 0.39089036E-02 0.45294156E+03</pdfrwt>
<totfact> 0.14672268E+04</totfact>
</mgrwt>
</event>
<event>
 7    0  0.4779893E-002  0.4492758E+03  0.7546771E-02  0.1027938E+00
         21   -1    0    0  502  501  0.00000000000E+00  0.00000000000E+00  0.62420600929E+02  0.62420600929E+02  0.00000000000E+00 0. -1.
         21   -1    0    0  501  502 -0.00000000000E+00 -0.00000000000E+00 -0.80842205177E+03  0.80842205177E+03  0.00000000000E+00 0. -1.
      99926    2    1    2    0    0  0.14210854715E-13  0.71054273576E-14 -0.74600145084E+03  0.87084265270E+03  0.44927581852E+03 0.  0.
      99925    2    3    3    0    0  0.63975972508E+02  0.54443912706E+02 -0.34123847960E+03  0.43894262298E+03  0.26300163805E+03 0.  0.
         25    1    4    4    0    0  0.67554269799E+02  0.40983675346E+02 -0.15613901330E+03  0.21510495249E+03  0.12509000000E+03 0.  0.
         25    1    3    3    0    0 -0.63975972508E+02 -0.54443912706E+02 -0.40476297124E+03  0.43190002972E+03  0.12509000000E+03 0.  0.
         25    1    4    4    0    0 -0.35782972914E+01  0.13460237360E+02 -0.18509946631E+03  0.22383767049E+03  0.12509000000E+03 0.  0.
<mgrwt>
<rscale>  2 0.44927582E+03</rscale>
<asrwt>0</asrwt>
<pdfrwt beam="1">  1       21 0.91795006E-02 0.44927582E+03</pdfrwt>
<pdfrwt beam="2">  1       21 0.11888559E+00 0.44927582E+03</pdfrwt>
<totfact> 0.46571720E+04</totfact>
</mgrwt>
</event>
<event>
 7    0  0.4779893E-002  0.4666695E+03  0.7546771E-02  0.1022864E+00
         21   -1    0    0  502  501  0.00000000000E+00  0.00000000000E+00  0.73743916014E+03  0.73743916014E+03  0.00000000000E+00 0.  1.
         21   -1    0    0  501  502 -0.00000000000E+00 -0.00000000000E+00 -0.73829957396E+02  0.73829957396E+02  0.00000000000E+00 0.  1.
      99926    2    1    2    0    0 -0.22204460493E-15  0.00000000000E+00  0.66360920275E+03  0.81126911754E+03  0.46666948379E+03 0.  0.
      99925    2    3    3    0    0 -0.95985714420E+00  0.10484880383E+03  0.52783208901E+03  0.59895537398E+03  0.26295747344E+03 0.  0.
         25    1    3    3    0    0  0.95985714420E+00 -0.10484880383E+03  0.13577711374E+03  0.21231374356E+03  0.12509000000E+03 0.  0.
         25    1    4    4    0    0 -0.15822457791E+02  0.13334023077E+02  0.21764962538E+03  0.25188690691E+03  0.12509000000E+03 0.  0.
         25    1    4    4    0    0  0.14862600647E+02  0.91514780751E+02  0.31018246363E+03  0.34706846707E+03  0.12509000000E+03 0.  0.
<mgrwt>
<rscale>  2 0.46666948E+03</rscale>
<asrwt>0</asrwt>
<pdfrwt beam="1">  1       21 0.10844693E+00 0.46666948E+03</pdfrwt>
<pdfrwt beam="2">  1       21 0.10857347E-01 0.46666948E+03</pdfrwt>
<totfact> 0.43136692E+04</totfact>
</mgrwt>
</event>
<event>
 7    0  0.4779893E-002  0.4535136E+03  0.7546771E-02  0.1026679E+00
         21   -1    0    0  502  501  0.00000000000E+00  0.00000000000E+00  0.44511856292E+03  0.44511856292E+03  0.00000000000E+00 0.  1.
         21   -1    0    0  501  502 -0.00000000000E+00 -0.00000000000E+00 -0.11551676175E+03  0.11551676175E+03  0.00000000000E+00 0.  1.
      99926    2    1    2    0    0  0.00000000000E+00  0.71054273576E-14  0.32960180117E+03  0.56063532467E+03  0.45351363809E+03 0.  0.
      99925    2    3    3    0    0 -0.95850105175E+02 -0.56068972926E+02  0.22296134611E+03  0.36226529886E+03  0.26304640752E+03 0.  0.
         25    1    4    4    0    0 -0.32558757474E+02 -0.35278894797E+02  0.15563115391E+03  0.20536123605E+03  0.12509000000E+03 0.  0.
         25    1    3    3    0    0  0.95850105175E+02  0.56068972926E+02  0.10664045507E+03  0.19837002582E+03  0.12509000000E+03 0.  0.
         25    1    4    4    0    0 -0.63291347701E+02 -0.20790078128E+02  0.67330192197E+02  0.15690406280E+03  0.12509000000E+03 0.  0.
<mgrwt>
<rscale>  2 0.45351364E+03</rscale>
<asrwt>0</asrwt>
<pdfrwt beam="1">  1       21 0.65458612E-01 0.45351364E+03</pdfrwt>
<pdfrwt beam="2">  1       21 0.16987759E-01 0.45351364E+03</pdfrwt>
<totfact> 0.61893607E+04</totfact>
</mgrwt>
</event>
<event>
 7    0  0.4779893E-002  0.4534561E+03  0.7546771E-02  0.1026696E+00
         21   -1    0    0  502  501  0.00000000000E+00  0.00000000000E+00  0.18518630120E+03  0.18518630120E+03  0.00000000000E+00 0. -1.
         21   -1    0    0  501  502 -0.00000000000E+00 -0.00000000000E+00 -0.27758856089E+03  0.27758856089E+03  0.00000000000E+00 0. -1.
      99926    2    1    2    0    0  0.71054273576E-14  0.00000000000E+00 -0.92402259689E+02  0.46277486209E+03  0.45345605673E+03 0.  0.
      99925    2    3    3    0    0  0.61414141582E+02  0.66761136709E+02  0.79484943045E+01  0.27852902608E+03  0.26322327717E+03 0.  0.
         25    1    4    4    0    0  0.72535744635E+02  0.34997170333E+02  0.80318834563E+01  0.14899078976E+03  0.12509000000E+03 0.  0.
         25    1    3    3    0    0 -0.61414141582E+02 -0.66761136709E+02 -0.10035075399E+03  0.18424583601E+03  0.12509000000E+03 0.  0.
         25    1    4    4    0    0 -0.11121603053E+02  0.31763966376E+02 -0.83389151749E-01  0.12953823632E+03  0.12509000000E+03 0.  0.
<mgrwt>
<rscale>  2 0.45345606E+03</rscale>
<asrwt>0</asrwt>
<pdfrwt beam="1">  1       21 0.27233280E-01 0.45345606E+03</pdfrwt>
<pdfrwt beam="2">  1       21 0.40821847E-01 0.45345606E+03</pdfrwt>
<totfact> 0.68816478E+04</totfact>
</mgrwt>
</event>
<event>
 7    0  0.4779893E-002  0.4613886E+03  0.7546771E-02  0.1024379E+00
         21   -1    0    0  502  501  0.00000000000E+00  0.00000000000E+00  0.50064745317E+02  0.50064745317E+02  0.00000000000E+00 0. -1.
         21   -1    0    0  501  502 -0.00000000000E+00 -0.00000000000E+00 -0.10630204610E+04  0.10630204610E+04  0.00000000000E+00 0. -1.
      99926    2    1    2    0    0  0.00000000000E+00 -0.14210854715E-13 -0.10129557157E+04  0.11130852063E+04  0.46138855056E+03 0.  0.
      99925    2    3    3    0    0 -0.70793892934E+02  0.80251350609E+02 -0.75968418466E+03  0.81101562646E+03  0.26300994540E+03 0.  0.
         25    1    4    4    0    0 -0.17650790997E+02  0.59434943397E+02 -0.29413913665E+03  0.32559085172E+03  0.12509000000E+03 0.  0.
         25    1    4    4    0    0 -0.53143101937E+02  0.20816407211E+02 -0.46554504802E+03  0.48542477473E+03  0.12509000000E+03 0.  0.
         25    1    3    3    0    0  0.70793892934E+02 -0.80251350609E+02 -0.25327153102E+03  0.30206957986E+03  0.12509000000E+03 0.  0.
<mgrwt>
<rscale>  2 0.46138855E+03</rscale>
<asrwt>0</asrwt>
<pdfrwt beam="1">  1       21 0.73624633E-02 0.46138855E+03</pdfrwt>
<pdfrwt beam="2">  1       21 0.15632652E+00 0.46138855E+03</pdfrwt>
<totfact> 0.33346748E+04</totfact>
</mgrwt>
</event>
<event>
 6    0  0.4779893E-002  0.4486844E+03  0.7546771E-02  0.1028115E+00
         21   -1    0    0  502  501  0.00000000000E+00  0.00000000000E+00  0.95972136181E+02  0.95972136181E+02  0.00000000000E+00 0. -1.
         21   -1    0    0  501  502 -0.00000000000E+00 -0.00000000000E+00 -0.52441711732E+03  0.52441711732E+03  0.00000000000E+00 0. -1.
      99926    2    1    2    0    0  0.35527136788E-14  0.00000000000E+00 -0.42844498113E+03  0.62038925350E+03  0.44868443699E+03 0.  0.
         25    1    3    3    0    0  0.19320814430E+02  0.27788955038E+02 -0.25676221265E+02  0.13210713959E+03  0.12509000000E+03 0.  0.
         25    1    3    3    0    0 -0.26960950365E+02 -0.28448020904E+02 -0.29568201585E+03  0.32343708095E+03  0.12509000000E+03 0.  0.
         25    1    3    3    0    0  0.76401359355E+01  0.65906586550E+00 -0.10708674402E+03  0.16484503295E+03  0.12509000000E+03 0.  0.
<mgrwt>
<rscale>  2 0.44868444E+03</rscale>
<asrwt>0</asrwt>
<pdfrwt beam="1">  1       21 0.14113550E-01 0.44868444E+03</pdfrwt>
<pdfrwt beam="2">  1       21 0.77120162E-01 0.44868444E+03</pdfrwt>
<totfact> 0.60396479E+04</totfact>
</mgrwt>
</event>
<event>
 7    0  0.4779893E-002  0.4550951E+03  0.7546771E-02  0.1026213E+00
         21   -1    0    0  502  501  0.00000000000E+00  0.00000000000E+00  0.10505084866E+03  0.10505084866E+03  0.00000000000E+00 0. -1.
         21   -1    0    0  501  502 -0.00000000000E+00 -0.00000000000E+00 -0.49288394433E+03  0.49288394433E+03  0.00000000000E+00 0. -1.
      99926    2    1    2    0    0  0.00000000000E+00  0.17763568394E-14 -0.38783309566E+03  0.59793479299E+03  0.45509505224E+03 0.  0.
      99925    2    3    3    0    0  0.91101532584E+02 -0.12604501128E+02 -0.15728860366E+03  0.31998401752E+03  0.26304315985E+03 0.  0.
         25    1    4    4    0    0  0.59263270202E+02 -0.36728258529E+02 -0.10939041887E+03  0.18020785779E+03  0.12509000000E+03 0.  0.
         25    1    4    4    0    0  0.31838262382E+02  0.24123757401E+02 -0.47898184783E+02  0.13977615973E+03  0.12509000000E+03 0.  0.
         25    1    3    3    0    0 -0.91101532584E+02  0.12604501128E+02 -0.23054449201E+03  0.27795077547E+03  0.12509000000E+03 0.  0.
<mgrwt>
<rscale>  2 0.45509505E+03</rscale>
<asrwt>0</asrwt>
<pdfrwt beam="1">  1       21 0.15448655E-01 0.45509505E+03</pdfrwt>
<pdfrwt beam="2">  1       21 0.72482932E-01 0.45509505E+03</pdfrwt>
<totfact> 0.58761420E+04</totfact>
</mgrwt>
</event>
<event>
 7    0  0.4779893E-002  0.4534292E+03  0.7546771E-02  0.1026704E+00
         21   -1    0    0  502  501  0.00000000000E+00  0.00000000000E+00  0.18846707043E+03  0.18846707043E+03  0.00000000000E+00 0. -1.
         21   -1    0    0  501  502 -0.00000000000E+00 -0.00000000000E+00 -0.27272408188E+03  0.27272408188E+03  0.00000000000E+00 0. -1.
      99926    2    1    2    0    0 -0.71054273576E-14  0.00000000000E+00 -0.84257011453E+02  0.46119115231E+03  0.45342919512E+03 0.  0.
      99925    2    3    3    0    0 -0.49934491804E+02  0.80026478320E+02  0.76770380177E+01  0.27954020060E+03  0.26303250015E+03 0.  0.
         25    1    3    3    0    0  0.49934491804E+02 -0.80026478320E+02 -0.91934049471E+02  0.18165095171E+03  0.12509000000E+03 0.  0.
         25    1    4    4    0    0 -0.41541956021E+02  0.67149241814E+02 -0.23320267436E+02  0.14975345659E+03  0.12509000000E+03 0.  0.
         25    1    4    4    0    0 -0.83925357831E+01  0.12877236506E+02  0.30997305454E+02  0.12978674402E+03  0.12509000000E+03 0.  0.
<mgrwt>
<rscale>  2 0.45342920E+03</rscale>
<asrwt>0</asrwt>
<pdfrwt beam="1">  1       21 0.27715746E-01 0.45342920E+03</pdfrwt>
<pdfrwt beam="2">  1       21 0.40106483E-01 0.45342920E+03</pdfrwt>
<totfact> 0.68950785E+04</totfact>
</mgrwt>
</event>
<event>
 7    0  0.4779893E-002  0.4580512E+03  0.7546771E-02  0.1025348E+00
         21   -1    0    0  502  501  0.00000000000E+00  0.00000000000E+00  0.62636625996E+03  0.62636625996E+03  0.00000000000E+00 0. -1.
         21   -1    0    0  501  502 -0.00000000000E+00 -0.00000000000E+00 -0.83741302678E+02  0.83741302678E+02  0.00000000000E+00 0. -1.
      99926    2    1    2    0    0  0.66613381478E-15  0.00000000000E+00  0.54262495728E+03  0.71010756264E+03  0.45805120483E+03 0.  0.
      99925    2    3    3    0    0 -0.13856575890E+01 -0.10822268717E+03  0.40518683251E+03  0.49504753310E+03  0.26302399267E+03 0.  0.
         25    1    3    3    0    0  0.13856575890E+01  0.10822268717E+03  0.13743812477E+03  0.21506002954E+03  0.12509000000E+03 0.  0.
         25    1    4    4    0    0 -0.25773581663E+02 -0.31079682644E+02  0.14898150007E+03  0.19867868443E+03  0.12509000000E+03 0.  0.
         25    1    4    4    0    0  0.24387924074E+02 -0.77143004524E+02  0.25620533244E+03  0.29636884866E+03  0.12509000000E+03 0.  0.
<mgrwt>
<rscale>  2 0.45805120E+03</rscale>
<asrwt>0</asrwt>
<pdfrwt beam="1">  1       21 0.92112682E-01 0.45805120E+03</pdfrwt>
<pdfrwt beam="2">  1       21 0.12314898E-01 0.45805120E+03</pdfrwt>
<totfact> 0.51119359E+04</totfact>
</mgrwt>
</event>
<event>
 7    0  0.4779893E-002  0.4540637E+03  0.7546771E-02  0.1026517E+00
         21   -1    0    0  502  501  0.00000000000E+00  0.00000000000E+00  0.14524055352E+03  0.14524055352E+03  0.00000000000E+00 0. -1.
         21   -1    0    0  501  502 -0.00000000000E+00 -0.00000000000E+00 -0.35488333332E+03  0.35488333332E+03  0.00000000000E+00 0. -1.
      99926    2    1    2    0    0 -0.17763568394E-14  0.00000000000E+00 -0.20964277980E+03  0.50012388685E+03  0.45406365971E+03 0.  0.
      99925    2    3    3    0    0  0.15974581686E+02 -0.25209138883E+02 -0.12731470047E+02  0.26493830066E+03  0.26294395768E+03 0.  0.
         25    1    4    4    0    0  0.39447649189E+02  0.12387990392E+02 -0.11167155224E+02  0.13221873085E+03  0.12509000000E+03 0.  0.
         25    1    3    3    0    0 -0.15974581686E+02  0.25209138883E+02 -0.19691130976E+03  0.23518558619E+03  0.12509000000E+03 0.  0.
         25    1    4    4    0    0 -0.23473067503E+02 -0.37597129275E+02 -0.15643148229E+01  0.13271956980E+03  0.12509000000E+03 0.  0.
<mgrwt>
<rscale>  2 0.45406366E+03</rscale>
<asrwt>0</asrwt>
<pdfrwt beam="1">  1       21 0.21358905E-01 0.45406366E+03</pdfrwt>
<pdfrwt beam="2">  1       21 0.52188725E-01 0.45406366E+03</pdfrwt>
<totfact> 0.65749292E+04</totfact>
</mgrwt>
</event>
<event>
 7    0  0.4779893E-002  0.4879571E+03  0.7546771E-02  0.1016971E+00
         21   -1    0    0  502  501  0.00000000000E+00  0.00000000000E+00  0.41318344151E+02  0.41318344151E+02  0.00000000000E+00 0. -1.
         21   -1    0    0  501  502 -0.00000000000E+00 -0.00000000000E+00 -0.14406563301E+04  0.14406563301E+04  0.00000000000E+00 0. -1.
      99926    2    1    2    0    0  0.14210854715E-13 -0.71054273576E-14 -0.13993379859E+04  0.14819746742E+04  0.48795710487E+03 0.  0.
      99925    2    3    3    0    0  0.10862077931E+03 -0.41202089861E+02 -0.61086910531E+03  0.67523632153E+03  0.26322412539E+03 0.  0.
         25    1    4    4    0    0  0.17285877893E+02 -0.17679827273E+02 -0.22228183143E+03  0.25625787510E+03  0.12509000000E+03 0.  0.
         25    1    3    3    0    0 -0.10862077931E+03  0.41202089861E+02 -0.78846888061E+03  0.80673835268E+03  0.12509000000E+03 0.  0.
         25    1    4    4    0    0  0.91334901417E+02 -0.23522262588E+02 -0.38858727387E+03  0.41897844643E+03  0.12509000000E+03 0.  0.
<mgrwt>
<rscale>  2 0.48795710E+03</rscale>
<asrwt>0</asrwt>
<pdfrwt beam="1">  1       21 0.60762261E-02 0.48795710E+03</pdfrwt>
<pdfrwt beam="2">  1       21 0.21186126E+00 0.48795710E+03</pdfrwt>
<totfact> 0.18902269E+04</totfact>
</mgrwt>
</event>
<event>
 7    0  0.4779893E-002  0.4309433E+03  0.7546771E-02  0.1033562E+00
         21   -1    0    0  502  501  0.00000000000E+00  0.00000000000E+00  0.36991585429E+03  0.36991585429E+03  0.00000000000E+00 0.  1.
         21   -1    0    0  501  502 -0.00000000000E+00 -0.00000000000E+00 -0.12550969434E+03  0.12550969434E+03  0.00000000000E+00 0.  1.
      99926    2    1    2    0    0  0.00000000000E+00  0.00000000000E+00  0.24440615995E+03  0.49542554863E+03  0.43094327145E+03 0.  0.
      99925    2    3    3    0    0 -0.57335750153E+02 -0.52571441602E+02  0.20649268751E+03  0.34332004508E+03  0.26301763941E+03 0.  0.
         25    1    4    4    0    0 -0.60842139297E+02 -0.26624936991E+01  0.11448721670E+03  0.18017681780E+03  0.12509000000E+03 0.  0.
         25    1    4    4    0    0  0.35063891441E+01 -0.49908947903E+02  0.92005470815E+02  0.16314322727E+03  0.12509000000E+03 0.  0.
         25    1    3    3    0    0  0.57335750153E+02  0.52571441602E+02  0.37913472440E+02  0.15210550355E+03  0.12509000000E+03 0.  0.
<mgrwt>
<rscale>  2 0.43094327E+03</rscale>
<asrwt>0</asrwt>
<pdfrwt beam="1">  1       21 0.54399390E-01 0.43094327E+03</pdfrwt>
<pdfrwt beam="2">  1       21 0.18457308E-01 0.43094327E+03</pdfrwt>
<totfact> 0.79767259E+04</totfact>
</mgrwt>
</event>
<event>
 7    0  0.4779893E-002  0.4535855E+03  0.7546771E-02  0.1026658E+00
         21   -1    0    0  502  501  0.00000000000E+00  0.00000000000E+00  0.13851724128E+04  0.13851724128E+04  0.00000000000E+00 0.  1.
         21   -1    0    0  501  502 -0.00000000000E+00 -0.00000000000E+00 -0.37132522473E+02  0.37132522473E+02  0.00000000000E+00 0.  1.
      99926    2    1    2    0    0  0.17763568394E-14  0.00000000000E+00  0.13480398904E+04  0.14223049353E+04  0.45358547485E+03 0.  0.
      99925    2    3    3    0    0 -0.49948512301E+01 -0.35283903303E+02  0.51582112887E+03  0.57998345425E+03  0.26275362575E+03 0.  0.
         25    1    4    4    0    0 -0.37923065126E+02 -0.35277901266E+02  0.28006029713E+03  0.31106907162E+03  0.12509000000E+03 0.  0.
         25    1    4    4    0    0  0.32928213896E+02 -0.60020373862E-02  0.23576083174E+03  0.26891438264E+03  0.12509000000E+03 0.  0.
         25    1    3    3    0    0  0.49948512301E+01  0.35283903303E+02  0.83221876150E+03  0.84232148106E+03  0.12509000000E+03 0.  0.
<mgrwt>
<rscale>  2 0.45358547E+03</rscale>
<asrwt>0</asrwt>
<pdfrwt beam="1">  1       21 0.20370179E+00 0.45358547E+03</pdfrwt>
<pdfrwt beam="2">  1       21 0.54606660E-02 0.45358547E+03</pdfrwt>
<totfact> 0.26028572E+04</totfact>
</mgrwt>
</event>
<event>
 7    0  0.4779893E-002  0.4346029E+03  0.7546771E-02  0.1032416E+00
         21   -1    0    0  502  501  0.00000000000E+00  0.00000000000E+00  0.12809421517E+04  0.12809421517E+04  0.00000000000E+00 0. -1.
         21   -1    0    0  501  502 -0.00000000000E+00 -0.00000000000E+00 -0.36863424287E+02  0.36863424287E+02  0.00000000000E+00 0. -1.
      99926    2    1    2    0    0  0.00000000000E+00 -0.71054273576E-14  0.12440787274E+04  0.13178055760E+04  0.43460287171E+03 0.  0.
      99925    2    3    3    0    0 -0.44819267374E+02 -0.45743560434E+02  0.59496541792E+03  0.65365436075E+03  0.26301888668E+03 0.  0.
         25    1    4    4    0    0 -0.60837512639E+01 -0.30470390838E+02  0.38225756562E+03  0.40340279042E+03  0.12509000000E+03 0.  0.
         25    1    3    3    0    0  0.44819267374E+02  0.45743560434E+02  0.64911330946E+03  0.66415121522E+03  0.12509000000E+03 0.  0.
         25    1    4    4    0    0 -0.38735516110E+02 -0.15273169596E+02  0.21270785231E+03  0.25025157033E+03  0.12509000000E+03 0.  0.
<mgrwt>
<rscale>  2 0.43460287E+03</rscale>
<asrwt>0</asrwt>
<pdfrwt beam="1">  1       21 0.18837382E+00 0.43460287E+03</pdfrwt>
<pdfrwt beam="2">  1       21 0.54210926E-02 0.43460287E+03</pdfrwt>
<totfact> 0.33627753E+04</totfact>
</mgrwt>
</event>
<event>
 7    0  0.4779893E-002  0.4482995E+03  0.7546771E-02  0.1028230E+00
         21   -1    0    0  502  501  0.00000000000E+00  0.00000000000E+00  0.26666315773E+04  0.26666315773E+04  0.00000000000E+00 0. -1.
         21   -1    0    0  501  502 -0.00000000000E+00 -0.00000000000E+00 -0.18841415683E+02  0.18841415683E+02  0.00000000000E+00 0. -1.
      99926    2    1    2    0    0  0.00000000000E+00  0.00000000000E+00  0.26477901616E+04  0.26854729930E+04  0.44829951604E+03 0.  0.
      99925    2    3    3    0    0  0.43393202357E+02  0.92503147951E+02  0.14904036275E+04  0.15168708794E+04  0.26297241214E+03 0.  0.
         25    1    4    4    0    0  0.51582906772E+02  0.51883153595E+02  0.63123966878E+03  0.64766016199E+03  0.12509000000E+03 0.  0.
         25    1    4    4    0    0 -0.81897044154E+01  0.40619994357E+02  0.85916395869E+03  0.86921071739E+03  0.12509000000E+03 0.  0.
         25    1    3    3    0    0 -0.43393202357E+02 -0.92503147951E+02  0.11573865342E+04  0.11686021136E+04  0.12509000000E+03 0.  0.
<mgrwt>
<rscale>  2 0.44829952E+03</rscale>
<asrwt>0</asrwt>
<pdfrwt beam="1">  1       21 0.39215144E+00 0.44829952E+03</pdfrwt>
<pdfrwt beam="2">  1       21 0.27707983E-02 0.44829952E+03</pdfrwt>
<totfact> 0.57058502E+03</totfact>
</mgrwt>
</event>
<event>
 7    0  0.4779893E-002  0.4592964E+03  0.7546771E-02  0.1024985E+00
         21   -1    0    0  502  501  0.00000000000E+00  0.00000000000E+00  0.10069150747E+04  0.10069150747E+04  0.00000000000E+00 0. -1.
         21   -1    0    0  501  502 -0.00000000000E+00 -0.00000000000E+00 -0.52376107847E+02  0.52376107847E+02  0.00000000000E+00 0. -1.
      99926    2    1    2    0    0  0.00000000000E+00  0.00000000000E+00  0.95453896682E+03  0.10592911825E+04  0.45929638598E+03 0.  0.
      99925    2    3    3    0    0 -0.70487998646E+02 -0.24138630194E+02  0.80705833894E+03  0.85204911361E+03  0.26285604072E+03 0.  0.
         25    1    4    4    0    0 -0.39062338472E+00 -0.24385446095E+02  0.43612962935E+03  0.45436919379E+03  0.12509000000E+03 0.  0.
         25    1    4    4    0    0 -0.70097375261E+02  0.24681590154E+00  0.37092870959E+03  0.39767991983E+03  0.12509000000E+03 0.  0.
         25    1    3    3    0    0  0.70487998646E+02  0.24138630194E+02  0.14748062788E+03  0.20724206890E+03  0.12509000000E+03 0.  0.
<mgrwt>
<rscale>  2 0.45929639E+03</rscale>
<asrwt>0</asrwt>
<pdfrwt beam="1">  1       21 0.14807573E+00 0.45929639E+03</pdfrwt>
<pdfrwt beam="2">  1       21 0.77023694E-02 0.45929639E+03</pdfrwt>
<totfact> 0.35725275E+04</totfact>
</mgrwt>
</event>
<event>
 7    0  0.4779893E-002  0.4402606E+03  0.7546771E-02  0.1030667E+00
         21   -1    0    0  502  501  0.00000000000E+00  0.00000000000E+00  0.19393921185E+03  0.19393921185E+03  0.00000000000E+00 0. -1.
         21   -1    0    0  501  502 -0.00000000000E+00 -0.00000000000E+00 -0.24985842729E+03  0.24985842729E+03  0.00000000000E+00 0. -1.
      99926    2    1    2    0    0  0.14210854715E-13  0.00000000000E+00 -0.55919215438E+02  0.44379763915E+03  0.44026058858E+03 0.  0.
      99925    2    3    3    0    0  0.91834146785E+02 -0.36044876197E+02 -0.36455602594E+02  0.28330127177E+03  0.26305485362E+03 0.  0.
         25    1    3    3    0    0 -0.91834146785E+02  0.36044876197E+02 -0.19463612844E+02  0.16049636738E+03  0.12509000000E+03 0.  0.
         25    1    4    4    0    0  0.17178315698E+02 -0.16177549677E+02  0.13530875019E+02  0.12801328182E+03  0.12509000000E+03 0.  0.
         25    1    4    4    0    0  0.74655831088E+02 -0.19867326520E+02 -0.49986477613E+02  0.15528798995E+03  0.12509000000E+03 0.  0.
<mgrwt>
<rscale>  2 0.44026059E+03</rscale>
<asrwt>0</asrwt>
<pdfrwt beam="1">  1       21 0.28520472E-01 0.44026059E+03</pdfrwt>
<pdfrwt beam="2">  1       21 0.36743887E-01 0.44026059E+03</pdfrwt>
<totfact> 0.78170073E+04</totfact>
</mgrwt>
</event>
<event>
 7    0  0.4779893E-002  0.4600010E+03  0.7546771E-02  0.1024781E+00
         21   -1    0    0  502  501  0.00000000000E+00  0.00000000000E+00  0.47595096444E+03  0.47595096444E+03  0.00000000000E+00 0.  1.
         21   -1    0    0  501  502 -0.00000000000E+00 -0.00000000000E+00 -0.11114636924E+03  0.11114636924E+03  0.00000000000E+00 0.  1.
      99926    2    1    2    0    0  0.00000000000E+00 -0.35527136788E-14  0.36480459521E+03  0.58709733368E+03  0.46000096362E+03 0.  0.
      99925    2    3    3    0    0 -0.97022906608E+02  0.30193486776E+02  0.30392516658E+03  0.41482167091E+03  0.26340353212E+03 0.  0.
         25    1    4    4    0    0 -0.61712212098E+02  0.53522915821E+02  0.17748411611E+03  0.23199400684E+03  0.12509000000E+03 0.  0.
         25    1    4    4    0    0 -0.35310694510E+02 -0.23329429045E+02  0.12644105047E+03  0.18282766407E+03  0.12509000000E+03 0.  0.
         25    1    3    3    0    0  0.97022906608E+02 -0.30193486776E+02  0.60879428631E+02  0.17227566276E+03  0.12509000000E+03 0.  0.
<mgrwt>
<rscale>  2 0.46000096E+03</rscale>
<asrwt>0</asrwt>
<pdfrwt beam="1">  1       21 0.69992788E-01 0.46000096E+03</pdfrwt>
<pdfrwt beam="2">  1       21 0.16345054E-01 0.46000096E+03</pdfrwt>
<totfact> 0.57185334E+04</totfact>
</mgrwt>
</event>
<event>
 7    0  0.4779893E-002  0.4524274E+03  0.7546771E-02  0.1027001E+00
         21   -1    0    0  502  501  0.00000000000E+00  0.00000000000E+00  0.87219207270E+03  0.87219207270E+03  0.00000000000E+00 0. -1.
         21   -1    0    0  501  502 -0.00000000000E+00 -0.00000000000E+00 -0.58671292494E+02  0.58671292494E+02  0.00000000000E+00 0. -1.
      99926    2    1    2    0    0  0.00000000000E+00  0.00000000000E+00  0.81352078020E+03  0.93086336519E+03  0.45242739178E+03 0.  0.
      99925    2    3    3    0    0  0.65465812618E+02  0.78820941460E+02  0.42885648154E+03  0.51359529285E+03  0.26336994824E+03 0.  0.
         25    1    3    3    0    0 -0.65465812618E+02 -0.78820941460E+02  0.38466429866E+03  0.41726807234E+03  0.12509000000E+03 0.  0.
         25    1    4    4    0    0 -0.15101236154E+01  0.24917499860E+02  0.15752381515E+03  0.20269292714E+03  0.12509000000E+03 0.  0.
         25    1    4    4    0    0  0.66975936233E+02  0.53903441601E+02  0.27133266639E+03  0.31090236571E+03  0.12509000000E+03 0.  0.
<mgrwt>
<rscale>  2 0.45242739E+03</rscale>
<asrwt>0</asrwt>
<pdfrwt beam="1">  1       21 0.12826353E+00 0.45242739E+03</pdfrwt>
<pdfrwt beam="2">  1       21 0.86281318E-02 0.45242739E+03</pdfrwt>
<totfact> 0.42779925E+04</totfact>
</mgrwt>
</event>
<event>
 7    0  0.4779893E-002  0.4548607E+03  0.7546771E-02  0.1026282E+00
         21   -1    0    0  502  501  0.00000000000E+00  0.00000000000E+00  0.78634641201E+02  0.78634641201E+02  0.00000000000E+00 0.  1.
         21   -1    0    0  501  502 -0.00000000000E+00 -0.00000000000E+00 -0.65778333585E+03  0.65778333585E+03  0.00000000000E+00 0.  1.
      99926    2    1    2    0    0  0.00000000000E+00 -0.35527136788E-14 -0.57914869464E+03  0.73641797705E+03  0.45486066703E+03 0.  0.
      99925    2    3    3    0    0 -0.10840929946E+03 -0.31128223456E+02 -0.36722772519E+03  0.46571602305E+03  0.26327489335E+03 0.  0.
         25    1    4    4    0    0 -0.43449239322E+02  0.24626228230E+02 -0.18027744536E+03  0.22503722563E+03  0.12509000000E+03 0.  0.
         25    1    4    4    0    0 -0.64960060140E+02 -0.55754451686E+02 -0.18695027983E+03  0.24067879742E+03  0.12509000000E+03 0.  0.
         25    1    3    3    0    0  0.10840929946E+03  0.31128223456E+02 -0.21192096945E+03  0.27070195400E+03  0.12509000000E+03 0.  0.
<mgrwt>
<rscale>  2 0.45486067E+03</rscale>
<asrwt>0</asrwt>
<pdfrwt beam="1">  1       21 0.11563917E-01 0.45486067E+03</pdfrwt>
<pdfrwt beam="2">  1       21 0.96732847E-01 0.45486067E+03</pdfrwt>
<totfact> 0.51025786E+04</totfact>
</mgrwt>
</event>
<event>
 7    0  0.4779893E-002  0.4544949E+03  0.7546771E-02  0.1026390E+00
         21   -1    0    0  502  501  0.00000000000E+00  0.00000000000E+00  0.24691421412E+04  0.24691421412E+04  0.00000000000E+00 0. -1.
         21   -1    0    0  501  502 -0.00000000000E+00 -0.00000000000E+00 -0.20914713528E+02  0.20914713528E+02  0.00000000000E+00 0. -1.
      99926    2    1    2    0    0  0.00000000000E+00  0.00000000000E+00  0.24482274277E+04  0.24900568547E+04  0.45449488685E+03 0.  0.
      99925    2    3    3    0    0  0.18529899916E+02  0.66803773256E+02  0.20279294920E+04  0.20460929326E+04  0.26304403251E+03 0.  0.
         25    1    4    4    0    0  0.21187014467E+02  0.15395261308E+02  0.12473062954E+04  0.12538366745E+04  0.12509000000E+03 0.  0.
         25    1    4    4    0    0 -0.26571145513E+01  0.51408511948E+02  0.78062319661E+03  0.79225625813E+03  0.12509000000E+03 0.  0.
         25    1    3    3    0    0 -0.18529899916E+02 -0.66803773256E+02  0.42029793565E+03  0.44396392210E+03  0.12509000000E+03 0.  0.
<mgrwt>
<rscale>  2 0.45449489E+03</rscale>
<asrwt>0</asrwt>
<pdfrwt beam="1">  1       21 0.36310894E+00 0.45449489E+03</pdfrwt>
<pdfrwt beam="2">  1       21 0.30756949E-02 0.45449489E+03</pdfrwt>
<totfact> 0.72625456E+03</totfact>
</mgrwt>
</event>
<event>
 7    0  0.4779893E-002  0.4358143E+03  0.7546771E-02  0.1032039E+00
         21   -1    0    0  502  501  0.00000000000E+00  0.00000000000E+00  0.71396423176E+02  0.71396423176E+02  0.00000000000E+00 0.  1.
         21   -1    0    0  501  502 -0.00000000000E+00 -0.00000000000E+00 -0.66506866047E+03  0.66506866047E+03  0.00000000000E+00 0.  1.
      99926    2    1    2    0    0  0.00000000000E+00  0.71054273576E-14 -0.59367223730E+03  0.73646508365E+03  0.43581428854E+03 0.  0.
      99925    2    3    3    0    0 -0.79655691737E+02  0.48992935087E+02 -0.39809432981E+03  0.48617812252E+03  0.26295386378E+03 0.  0.
         25    1    4    4    0    0 -0.46721981507E+02  0.65422070886E+02 -0.21216091540E+03  0.25908059179E+03  0.12509000000E+03 0.  0.
         25    1    4    4    0    0 -0.32933710230E+02 -0.16429135798E+02 -0.18593341440E+03  0.22709753073E+03  0.12509000000E+03 0.  0.
         25    1    3    3    0    0  0.79655691737E+02 -0.48992935087E+02 -0.19557790749E+03  0.25028696113E+03  0.12509000000E+03 0.  0.
<mgrwt>
<rscale>  2 0.43581429E+03</rscale>
<asrwt>0</asrwt>
<pdfrwt beam="1">  1       21 0.10499474E-01 0.43581429E+03</pdfrwt>
<pdfrwt beam="2">  1       21 0.97804214E-01 0.43581429E+03</pdfrwt>
<totfact> 0.59438515E+04</totfact>
</mgrwt>
</event>
<event>
 7    0  0.4779893E-002  0.4126089E+03  0.7546771E-02  0.1039499E+00
         21   -1    0    0  502  501  0.00000000000E+00  0.00000000000E+00  0.16270207923E+03  0.16270207923E+03  0.00000000000E+00 0. -1.
         21   -1    0    0  501  502 -0.00000000000E+00 -0.00000000000E+00 -0.26159176968E+03  0.26159176968E+03  0.00000000000E+00 0. -1.
      99926    2    1    2    0    0  0.35527136788E-14  0.00000000000E+00 -0.98889690449E+02  0.42429384891E+03  0.41260889392E+03 0.  0.
      99925    2    3    3    0    0  0.90918338313E+01  0.40816326822E+02 -0.12481651049E+02  0.26661540602E+03  0.26301967443E+03 0.  0.
         25    1    3    3    0    0 -0.90918338313E+01 -0.40816326822E+02 -0.86408039400E+02  0.15767844288E+03  0.12509000000E+03 0.  0.
         25    1    4    4    0    0  0.31466283709E+02  0.29542541510E+01 -0.31107109341E+02  0.13271780204E+03  0.12509000000E+03 0.  0.
         25    1    4    4    0    0 -0.22374449878E+02  0.37862072671E+02  0.18625458292E+02  0.13389760398E+03  0.12509000000E+03 0.  0.
<mgrwt>
<rscale>  2 0.41260889E+03</rscale>
<asrwt>0</asrwt>
<pdfrwt beam="1">  1       21 0.23926777E-01 0.41260889E+03</pdfrwt>
<pdfrwt beam="2">  1       21 0.38469377E-01 0.41260889E+03</pdfrwt>
<totfact> 0.10087092E+05</totfact>
</mgrwt>
</event>
<event>
 7    0  0.4779893E-002  0.4431936E+03  0.7546771E-02  0.1029771E+00
         21   -1    0    0  502  501  0.00000000000E+00  0.00000000000E+00  0.36200649770E+03  0.36200649770E+03  0.00000000000E+00 0.  1.
         21   -1    0    0  501  502 -0.00000000000E+00 -0.00000000000E+00 -0.13564711917E+03  0.13564711917E+03  0.00000000000E+00 0.  1.
      99926    2    1    2    0    0  0.14210854715E-13 -0.71054273576E-14  0.22635937852E+03  0.49765361687E+03  0.44319358539E+03 0.  0.
      99925    2    3    3    0    0  0.95660882446E+02 -0.34068210378E+02  0.14633408456E+03  0.31775585934E+03  0.26314154832E+03 0.  0.
         25    1    4    4    0    0  0.71446985264E+02 -0.23864748530E+02  0.39762976034E+02  0.15133671164E+03  0.12509000000E+03 0.  0.
         25    1    4    4    0    0  0.24213897183E+02 -0.10203461848E+02  0.10657110852E+03  0.16641914770E+03  0.12509000000E+03 0.  0.
         25    1    3    3    0    0 -0.95660882446E+02  0.34068210378E+02  0.80025293966E+02  0.17989775753E+03  0.12509000000E+03 0.  0.
<mgrwt>
<rscale>  2 0.44319359E+03</rscale>
<asrwt>0</asrwt>
<pdfrwt beam="1">  1       21 0.53236249E-01 0.44319359E+03</pdfrwt>
<pdfrwt beam="2">  1       21 0.19948106E-01 0.44319359E+03</pdfrwt>
<totfact> 0.71945186E+04</totfact>
</mgrwt>
</event>
<event>
 7    0  0.4779893E-002  0.4478149E+03  0.7546771E-02  0.1028376E+00
         21   -1    0    0  502  501  0.00000000000E+00  0.00000000000E+00  0.87718796611E+02  0.87718796611E+02  0.00000000000E+00 0. -1.
         21   -1    0    0  501  502 -0.00000000000E+00 -0.00000000000E+00 -0.57153707476E+03  0.57153707476E+03  0.00000000000E+00 0. -1.
      99926    2    1    2    0    0  0.88817841970E-15  0.00000000000E+00 -0.48381827815E+03  0.65925587137E+03  0.44781489219E+03 0.  0.
      99925    2    3    3    0    0  0.49693738761E+01 -0.10500182757E+03 -0.28261975422E+03  0.40006784580E+03  0.26292637239E+03 0.  0.
         25    1    4    4    0    0 -0.32454132164E+02 -0.55146948994E+02 -0.17019722145E+03  0.22070128900E+03  0.12509000000E+03 0.  0.
         25    1    4    4    0    0  0.37423506040E+02 -0.49854878573E+02 -0.11242253276E+03  0.17936655679E+03  0.12509000000E+03 0.  0.
         25    1    3    3    0    0 -0.49693738761E+01  0.10500182757E+03 -0.20119852393E+03  0.25918802558E+03  0.12509000000E+03 0.  0.
<mgrwt>
<rscale>  2 0.44781489E+03</rscale>
<asrwt>0</asrwt>
<pdfrwt beam="1">  1       21 0.12899823E-01 0.44781489E+03</pdfrwt>
<pdfrwt beam="2">  1       21 0.84049568E-01 0.44781489E+03</pdfrwt>
<totfact> 0.58410612E+04</totfact>
</mgrwt>
</event>
<event>
 7    0  0.4779893E-002  0.4552513E+03  0.7546771E-02  0.1026168E+00
         21   -1    0    0  502  501  0.00000000000E+00  0.00000000000E+00  0.14793258162E+03  0.14793258162E+03  0.00000000000E+00 0.  1.
         21   -1    0    0  501  502 -0.00000000000E+00 -0.00000000000E+00 -0.35025029092E+03  0.35025029092E+03  0.00000000000E+00 0.  1.
      99926    2    1    2    0    0  0.88817841970E-15  0.00000000000E+00 -0.20231770931E+03  0.49818287254E+03  0.45525127017E+03 0.  0.
      99925    2    3    3    0    0 -0.64799000151E+01  0.11279939425E+03 -0.13669506598E+03  0.31729746167E+03  0.26310918964E+03 0.  0.
         25    1    4    4    0    0 -0.31882612273E+02  0.82710556179E+02 -0.91735942048E+02  0.17866316977E+03  0.12509000000E+03 0.  0.
         25    1    4    4    0    0  0.25402712258E+02  0.30088838067E+02 -0.44959123934E+02  0.13863429190E+03  0.12509000000E+03 0.  0.
         25    1    3    3    0    0  0.64799000151E+01 -0.11279939425E+03 -0.65622643324E+02  0.18088541086E+03  0.12509000000E+03 0.  0.
<mgrwt>
<rscale>  2 0.45525127E+03</rscale>
<asrwt>0</asrwt>
<pdfrwt beam="1">  1       21 0.21754792E-01 0.45525127E+03</pdfrwt>
<pdfrwt beam="2">  1       21 0.51507395E-01 0.45525127E+03</pdfrwt>
<totfact> 0.65268223E+04</totfact>
</mgrwt>
</event>
<event>
 7    0  0.4779893E-002  0.4535746E+03  0.7546771E-02  0.1026661E+00
         21   -1    0    0  502  501  0.00000000000E+00  0.00000000000E+00  0.10675770225E+03  0.10675770225E+03  0.00000000000E+00 0.  1.
         21   -1    0    0  501  502 -0.00000000000E+00 -0.00000000000E+00 -0.48176825985E+03  0.48176825985E+03  0.00000000000E+00 0.  1.
      99926    2    1    2    0    0 -0.14210854715E-13 -0.35527136788E-14 -0.37501055760E+03  0.58852596210E+03  0.45357456912E+03 0.  0.
      99925    2    3    3    0    0  0.86959920144E+02  0.25897617044E+02 -0.15171522610E+03  0.31697297012E+03  0.26310005640E+03 0.  0.
         25    1    4    4    0    0  0.77240243475E+02 -0.59635097919E+01 -0.98208873242E+02  0.17690141193E+03  0.12509000000E+03 0.  0.
         25    1    3    3    0    0 -0.86959920144E+02 -0.25897617044E+02 -0.22329533150E+03  0.27155299198E+03  0.12509000000E+03 0.  0.
         25    1    4    4    0    0  0.97196766693E+01  0.31861126836E+02 -0.53506352855E+02  0.14007155819E+03  0.12509000000E+03 0.  0.
<mgrwt>
<rscale>  2 0.45357457E+03</rscale>
<asrwt>0</asrwt>
<pdfrwt beam="1">  1       21 0.15699662E-01 0.45357457E+03</pdfrwt>
<pdfrwt beam="2">  1       21 0.70848274E-01 0.45357457E+03</pdfrwt>
<totfact> 0.60063984E+04</totfact>
</mgrwt>
</event>
<event>
 7    0  0.4779893E-002  0.4587386E+03  0.7546771E-02  0.1025148E+00
         21   -1    0    0  502  501  0.00000000000E+00  0.00000000000E+00  0.15141421148E+04  0.15141421148E+04  0.00000000000E+00 0.  1.
         21   -1    0    0  501  502 -0.00000000000E+00 -0.00000000000E+00 -0.34745931619E+02  0.34745931619E+02  0.00000000000E+00 0.  1.
      99926    2    1    2    0    0  0.35527136788E-14 -0.17763568394E-14  0.14793961832E+04  0.15488880464E+04  0.45873861133E+03 0.  0.
      99925    2    3    3    0    0  0.10707884347E+02 -0.11229057374E+02  0.13181563937E+04  0.13442260608E+04  0.26299557782E+03 0.  0.
         25    1    4    4    0    0  0.27806317751E+02 -0.16636477896E+02  0.50300072547E+03  0.51933342048E+03  0.12509000000E+03 0.  0.
         25    1    4    4    0    0 -0.17098433404E+02  0.54074205228E+01  0.81515566821E+03  0.82489264037E+03  0.12509000000E+03 0.  0.
         25    1    3    3    0    0 -0.10707884347E+02  0.11229057374E+02  0.16123978947E+03  0.20466198554E+03  0.12509000000E+03 0.  0.
<mgrwt>
<rscale>  2 0.45873861E+03</rscale>
<asrwt>0</asrwt>
<pdfrwt beam="1">  1       21 0.22266791E+00 0.45873861E+03</pdfrwt>
<pdfrwt beam="2">  1       21 0.51096968E-02 0.45873861E+03</pdfrwt>
<totfact> 0.21961410E+04</totfact>
</mgrwt>
</event>
<event>
 7    0  0.4779893E-002  0.4605501E+03  0.7546771E-02  0.1024622E+00
         21   -1    0    0  502  501  0.00000000000E+00  0.00000000000E+00  0.34333567171E+03  0.34333567171E+03  0.00000000000E+00 0. -1.
         21   -1    0    0  501  502 -0.00000000000E+00 -0.00000000000E+00 -0.15444538506E+03  0.15444538506E+03  0.00000000000E+00 0. -1.
      99926    2    1    2    0    0  0.00000000000E+00  0.00000000000E+00  0.18889028665E+03  0.49778105677E+03  0.46055014938E+03 0.  0.
      99925    2    3    3    0    0  0.90497861285E+02 -0.43250207822E+02  0.51209961050E+02  0.28644288338E+03  0.26337543917E+03 0.  0.
         25    1    4    4    0    0  0.53497436531E+02 -0.47502937883E+02 -0.53370725984E+01  0.14420297246E+03  0.12509000000E+03 0.  0.
         25    1    4    4    0    0  0.37000424755E+02  0.42527300608E+01  0.56547033649E+02  0.14223991092E+03  0.12509000000E+03 0.  0.
         25    1    3    3    0    0 -0.90497861285E+02  0.43250207822E+02  0.13768032560E+03  0.21133817339E+03  0.12509000000E+03 0.  0.
<mgrwt>
<rscale>  2 0.46055015E+03</rscale>
<asrwt>0</asrwt>
<pdfrwt beam="1">  1       21 0.50490540E-01 0.46055015E+03</pdfrwt>
<pdfrwt beam="2">  1       21 0.22712557E-01 0.46055015E+03</pdfrwt>
<totfact> 0.62621888E+04</totfact>
</mgrwt>
</event>
<event>
 7    0  0.4779893E-002  0.4634936E+03  0.7546771E-02  0.1023773E+00
         21   -1    0    0  502  501  0.00000000000E+00  0.00000000000E+00  0.77164039228E+03  0.77164039228E+03  0.00000000000E+00 0.  1.
         21   -1    0    0  501  502 -0.00000000000E+00 -0.00000000000E+00 -0.69600542787E+02  0.69600542787E+02  0.00000000000E+00 0.  1.
      99926    2    1    2    0    0  0.00000000000E+00  0.00000000000E+00  0.70203984949E+03  0.84124093507E+03  0.46349364673E+03 0.  0.
      99925    2    3    3    0    0  0.47190587208E+02 -0.11104711327E+03  0.45516492468E+03  0.53932513639E+03  0.26294121244E+03 0.  0.
         25    1    4    4    0    0  0.52256826083E+02 -0.26259282961E+02  0.21998858121E+03  0.25973603865E+03  0.12509000000E+03 0.  0.
         25    1    4    4    0    0 -0.50662388742E+01 -0.84787830314E+02  0.23517634347E+03  0.27958909774E+03  0.12509000000E+03 0.  0.
         25    1    3    3    0    0 -0.47190587208E+02  0.11104711327E+03  0.24687492481E+03  0.30191579867E+03  0.12509000000E+03 0.  0.
<mgrwt>
<rscale>  2 0.46349365E+03</rscale>
<asrwt>0</asrwt>
<pdfrwt beam="1">  1       21 0.11347652E+00 0.46349365E+03</pdfrwt>
<pdfrwt beam="2">  1       21 0.10235374E-01 0.46349365E+03</pdfrwt>
<totfact> 0.42902661E+04</totfact>
</mgrwt>
</event>
<event>
 7    0  0.4779893E-002  0.4654650E+03  0.7546771E-02  0.1023208E+00
         21   -1    0    0  502  501  0.00000000000E+00  0.00000000000E+00  0.50794896906E+03  0.50794896906E+03  0.00000000000E+00 0.  1.
         21   -1    0    0  501  502 -0.00000000000E+00 -0.00000000000E+00 -0.10663359771E+03  0.10663359771E+03  0.00000000000E+00 0.  1.
      99926    2    1    2    0    0  0.00000000000E+00  0.35527136788E-14  0.40131537135E+03  0.61458256677E+03  0.46546504068E+03 0.  0.
      99925    2    3    3    0    0  0.88947837823E+02  0.20283723970E+02  0.35880401317E+03  0.45402768212E+03  0.26282630947E+03 0.  0.
         25    1    3    3    0    0 -0.88947837823E+02 -0.20283723970E+02  0.42511358175E+02  0.16055488465E+03  0.12509000000E+03 0.  0.
         25    1    4    4    0    0  0.56471111494E+02 -0.15509236992E+02  0.13509478508E+03  0.19320360225E+03  0.12509000000E+03 0.  0.
         25    1    4    4    0    0  0.32476726330E+02  0.35792960962E+02  0.22370922809E+03  0.26082407987E+03  0.12509000000E+03 0.  0.
<mgrwt>
<rscale>  2 0.46546504E+03</rscale>
<asrwt>0</asrwt>
<pdfrwt beam="1">  1       21 0.74698377E-01 0.46546504E+03</pdfrwt>
<pdfrwt beam="2">  1       21 0.15681412E-01 0.46546504E+03</pdfrwt>
<totfact> 0.53249713E+04</totfact>
</mgrwt>
</event>
<event>
 7    0  0.4779893E-002  0.4382787E+03  0.7546771E-02  0.1031276E+00
         21   -1    0    0  502  501  0.00000000000E+00  0.00000000000E+00  0.11719628976E+03  0.11719628976E+03  0.00000000000E+00 0. -1.
         21   -1    0    0  501  502 -0.00000000000E+00 -0.00000000000E+00 -0.40975743556E+03  0.40975743556E+03  0.00000000000E+00 0. -1.
      99926    2    1    2    0    0  0.00000000000E+00  0.00000000000E+00 -0.29256114579E+03  0.52695372532E+03  0.43827868371E+03 0.  0.
      99925    2    3    3    0    0  0.79522161111E+02 -0.47031185759E+02 -0.15305542292E+03  0.31803972063E+03  0.26303534909E+03 0.  0.
         25    1    4    4    0    0  0.28565550404E+02 -0.61856336211E+02 -0.87505881791E+02  0.16717351599E+03  0.12509000000E+03 0.  0.
         25    1    3    3    0    0 -0.79522161111E+02  0.47031185759E+02 -0.13950572287E+03  0.20891400469E+03  0.12509000000E+03 0.  0.
         25    1    4    4    0    0  0.50956610707E+02  0.14825150452E+02 -0.65549541133E+02  0.15086620464E+03  0.12509000000E+03 0.  0.
<mgrwt>
<rscale>  2 0.43827868E+03</rscale>
<asrwt>0</asrwt>
<pdfrwt beam="1">  1       21 0.17234749E-01 0.43827868E+03</pdfrwt>
<pdfrwt beam="2">  1       21 0.60258446E-01 0.43827868E+03</pdfrwt>
<totfact> 0.72553200E+04</totfact>
</mgrwt>
</event>
<event>
 7    0  0.4779893E-002  0.4523713E+03  0.7546771E-02  0.1027017E+00
         21   -1    0    0  502  501  0.00000000000E+00  0.00000000000E+00  0.35157002348E+03  0.35157002348E+03  0.00000000000E+00 0. -1.
         21   -1    0    0  501  502 -0.00000000000E+00 -0.00000000000E+00 -0.14551851988E+03  0.14551851988E+03  0.00000000000E+00 0. -1.
      99926    2    1    2    0    0  0.00000000000E+00  0.00000000000E+00  0.20605150360E+03  0.49708854336E+03  0.45237130524E+03 0.  0.
      99925    2    3    3    0    0 -0.91405293488E+02 -0.55270279974E+02  0.16192946997E+03  0.32678295485E+03  0.26297569243E+03 0.  0.
         25    1    4    4    0    0 -0.54096850772E+02 -0.64152513278E+02  0.65526826703E+02  0.16426590438E+03  0.12509000000E+03 0.  0.
         25    1    3    3    0    0  0.91405293488E+02  0.55270279974E+02  0.44122033629E+02  0.17030558851E+03  0.12509000000E+03 0.  0.
         25    1    4    4    0    0 -0.37308442716E+02  0.88822333039E+01  0.96402643264E+02  0.16251705047E+03  0.12509000000E+03 0.  0.
<mgrwt>
<rscale>  2 0.45237131E+03</rscale>
<asrwt>0</asrwt>
<pdfrwt beam="1">  1       21 0.51701474E-01 0.45237131E+03</pdfrwt>
<pdfrwt beam="2">  1       21 0.21399782E-01 0.45237131E+03</pdfrwt>
<totfact> 0.66860008E+04</totfact>
</mgrwt>
</event>
<event>
 7    0  0.4779893E-002  0.4477619E+03  0.7546771E-02  0.1028392E+00
         21   -1    0    0  502  501  0.00000000000E+00  0.00000000000E+00  0.29596897335E+04  0.29596897335E+04  0.00000000000E+00 0. -1.
         21   -1    0    0  501  502 -0.00000000000E+00 -0.00000000000E+00 -0.16935115060E+02  0.16935115060E+02  0.00000000000E+00 0. -1.
      99926    2    1    2    0    0  0.00000000000E+00  0.00000000000E+00  0.29427546184E+04  0.29766248485E+04  0.44776192860E+03 0.  0.
      99925    2    3    3    0    0 -0.10974030859E+02  0.24310943844E+02  0.11804618742E+04  0.12096968150E+04  0.26299181811E+03 0.  0.
         25    1    4    4    0    0  0.63368473920E+01 -0.41715071955E+01  0.74256262372E+03  0.75306328775E+03  0.12509000000E+03 0.  0.
         25    1    4    4    0    0 -0.17310878251E+02  0.28482451040E+02  0.43789925050E+03  0.45663352725E+03  0.12509000000E+03 0.  0.
         25    1    3    3    0    0  0.10974030859E+02 -0.24310943844E+02  0.17622927442E+04  0.17669280335E+04  0.12509000000E+03 0.  0.
<mgrwt>
<rscale>  2 0.44776193E+03</rscale>
<asrwt>0</asrwt>
<pdfrwt beam="1">  1       21 0.43524813E+00 0.44776193E+03</pdfrwt>
<pdfrwt beam="2">  1       21 0.24904601E-02 0.44776193E+03</pdfrwt>
<totfact> 0.35767218E+03</totfact>
</mgrwt>
</event>
<event>
 7    0  0.4779893E-002  0.4621331E+03  0.7546771E-02  0.1024164E+00
         21   -1    0    0  502  501  0.00000000000E+00  0.00000000000E+00  0.15444792763E+03  0.15444792763E+03  0.00000000000E+00 0.  1.
         21   -1    0    0  501  502 -0.00000000000E+00 -0.00000000000E+00 -0.34569411111E+03  0.34569411111E+03  0.00000000000E+00 0.  1.
      99926    2    1    2    0    0  0.00000000000E+00  0.00000000000E+00 -0.19124618348E+03  0.50014203873E+03  0.46213305033E+03 0.  0.
      99925    2    3    3    0    0  0.65269280290E+02  0.97903305298E+02 -0.94703739148E+02  0.30313166389E+03  0.26282098719E+03 0.  0.
         25    1    4    4    0    0  0.12429337351E+02  0.82603378164E+02 -0.37717379619E+02  0.15507390282E+03  0.12509000000E+03 0.  0.
         25    1    4    4    0    0  0.52839942939E+02  0.15299927134E+02 -0.56986359530E+02  0.14805776107E+03  0.12509000000E+03 0.  0.
         25    1    3    3    0    0 -0.65269280290E+02 -0.97903305298E+02 -0.96542444332E+02  0.19701037484E+03  0.12509000000E+03 0.  0.
<mgrwt>
<rscale>  2 0.46213305E+03</rscale>
<asrwt>0</asrwt>
<pdfrwt beam="1">  1       21 0.22712931E-01 0.46213305E+03</pdfrwt>
<pdfrwt beam="2">  1       21 0.50837369E-01 0.46213305E+03</pdfrwt>
<totfact> 0.61692618E+04</totfact>
</mgrwt>
</event>
<event>
 7    0  0.4779893E-002  0.4555567E+03  0.7546771E-02  0.1026078E+00
         21   -1    0    0  502  501  0.00000000000E+00  0.00000000000E+00  0.63416477884E+02  0.63416477884E+02  0.00000000000E+00 0.  1.
         21   -1    0    0  501  502 -0.00000000000E+00 -0.00000000000E+00 -0.81813088984E+03  0.81813088984E+03  0.00000000000E+00 0.  1.
      99926    2    1    2    0    0  0.22204460493E-14  0.00000000000E+00 -0.75471441195E+03  0.88154736772E+03  0.45555671209E+03 0.  0.
      99925    2    3    3    0    0 -0.30919104001E+01  0.11367383714E+03 -0.47406479619E+03  0.55391492719E+03  0.26296960740E+03 0.  0.
         25    1    3    3    0    0  0.30919104001E+01 -0.11367383714E+03 -0.28064961576E+03  0.32763244053E+03  0.12509000000E+03 0.  0.
         25    1    4    4    0    0 -0.32731094149E+02  0.34163796749E+02 -0.25197060604E+03  0.28526335892E+03  0.12509000000E+03 0.  0.
         25    1    4    4    0    0  0.29639183749E+02  0.79510040395E+02 -0.22209419015E+03  0.26865156827E+03  0.12509000000E+03 0.  0.
<mgrwt>
<rscale>  2 0.45555671E+03</rscale>
<asrwt>0</asrwt>
<pdfrwt beam="1">  1       21 0.93259538E-02 0.45555671E+03</pdfrwt>
<pdfrwt beam="2">  1       21 0.12031335E+00 0.45555671E+03</pdfrwt>
<totfact> 0.43849666E+04</totfact>
</mgrwt>
</event>
<event>
 7    0  0.4779893E-002  0.4584022E+03  0.7546771E-02  0.1025246E+00
         21   -1    0    0  502  501  0.00000000000E+00  0.00000000000E+00  0.17126690917E+03  0.17126690917E+03  0.00000000000E+00 0. -1.
         21   -1    0    0  501  502 -0.00000000000E+00 -0.00000000000E+00 -0.30673261088E+03  0.30673261088E+03  0.00000000000E+00 0. -1.
      99926    2    1    2    0    0 -0.14210854715E-13 -0.71054273576E-14 -0.13546570171E+03  0.47799952005E+03  0.45840220857E+03 0.  0.
      99925    2    3    3    0    0 -0.76228875130E+02 -0.43273128446E+02 -0.55971505374E+01  0.27750823911E+03  0.26324150438E+03 0.  0.
         25    1    4    4    0    0  0.47762620938E+00 -0.10982739740E+02 -0.17523670138E+02  0.12678894200E+03  0.12509000000E+03 0.  0.
         25    1    3    3    0    0  0.76228875130E+02  0.43273128446E+02 -0.12986855117E+03  0.20049128094E+03  0.12509000000E+03 0.  0.
         25    1    4    4    0    0 -0.76706501340E+02 -0.32290388706E+02  0.11926519600E+02  0.15071929711E+03  0.12509000000E+03 0.  0.
<mgrwt>
<rscale>  2 0.45840221E+03</rscale>
<asrwt>0</asrwt>
<pdfrwt beam="1">  1       21 0.25186310E-01 0.45840221E+03</pdfrwt>
<pdfrwt beam="2">  1       21 0.45107736E-01 0.45840221E+03</pdfrwt>
<totfact> 0.65071219E+04</totfact>
</mgrwt>
</event>
<event>
 7    0  0.4779893E-002  0.4440149E+03  0.7546771E-02  0.1029522E+00
         21   -1    0    0  502  501  0.00000000000E+00  0.00000000000E+00  0.12408586839E+03  0.12408586839E+03  0.00000000000E+00 0. -1.
         21   -1    0    0  501  502 -0.00000000000E+00 -0.00000000000E+00 -0.39720325257E+03  0.39720325257E+03  0.00000000000E+00 0. -1.
      99926    2    1    2    0    0 -0.71054273576E-14  0.14210854715E-13 -0.27311738417E+03  0.52128912096E+03  0.44401491202E+03 0.  0.
      99925    2    3    3    0    0 -0.44601026677E+02  0.76431454218E+02 -0.11269195763E+03  0.29944493159E+03  0.26293872093E+03 0.  0.
         25    1    4    4    0    0  0.16822492429E+02  0.42574586985E+02 -0.65751103001E+02  0.14854732362E+03  0.12509000000E+03 0.  0.
         25    1    3    3    0    0  0.44601026677E+02 -0.76431454218E+02 -0.16042542655E+03  0.22184418937E+03  0.12509000000E+03 0.  0.
         25    1    4    4    0    0 -0.61423519106E+02  0.33856867233E+02 -0.46940854625E+02  0.15089760797E+03  0.12509000000E+03 0.  0.
<mgrwt>
<rscale>  2 0.44401491E+03</rscale>
<asrwt>0</asrwt>
<pdfrwt beam="1">  1       21 0.18247922E-01 0.44401491E+03</pdfrwt>
<pdfrwt beam="2">  1       21 0.58412242E-01 0.44401491E+03</pdfrwt>
<totfact> 0.69669177E+04</totfact>
</mgrwt>
</event>
<event>
 7    0  0.4779893E-002  0.4491246E+03  0.7546771E-02  0.1027983E+00
         21   -1    0    0  502  501  0.00000000000E+00  0.00000000000E+00  0.44335865941E+02  0.44335865941E+02  0.00000000000E+00 0. -1.
         21   -1    0    0  501  502 -0.00000000000E+00 -0.00000000000E+00 -0.11374135769E+04  0.11374135769E+04  0.00000000000E+00 0. -1.
      99926    2    1    2    0    0  0.00000000000E+00  0.00000000000E+00 -0.10930777109E+04  0.11817494428E+04  0.44912455228E+03 0.  0.
      99925    2    3    3    0    0  0.48400499396E+02 -0.96417020424E+02 -0.72302817144E+03  0.77650504749E+03  0.26182341741E+03 0.  0.
         25    1    4    4    0    0  0.10068904520E+02 -0.84424913379E+02 -0.36271250453E+03  0.39298450082E+03  0.12509000000E+03 0.  0.
         25    1    3    3    0    0 -0.48400499396E+02  0.96417020424E+02 -0.37004953949E+03  0.40524439533E+03  0.12509000000E+03 0.  0.
         25    1    4    4    0    0  0.38331594875E+02 -0.11992107045E+02 -0.36031566691E+03  0.38352054667E+03  0.12509000000E+03 0.  0.
<mgrwt>
<rscale>  2 0.44912455E+03</rscale>
<asrwt>0</asrwt>
<pdfrwt beam="1">  1       21 0.65199807E-02 0.44912455E+03</pdfrwt>
<pdfrwt beam="2">  1       21 0.16726669E+00 0.44912455E+03</pdfrwt>
<totfact> 0.34282485E+04</totfact>
</mgrwt>
</event>
<event>
 7    0  0.4779893E-002  0.4541474E+03  0.7546771E-02  0.1026492E+00
         21   -1    0    0  502  501  0.00000000000E+00  0.00000000000E+00  0.15409329373E+02  0.15409329373E+02  0.00000000000E+00 0. -1.
         21   -1    0    0  501  502 -0.00000000000E+00 -0.00000000000E+00 -0.33461854559E+04  0.33461854559E+04  0.00000000000E+00 0. -1.
      99926    2    1    2    0    0  0.14210854715E-13  0.13322676296E-14 -0.33307761265E+04  0.33615947853E+04  0.45414743788E+03 0.  0.
      99925    2    3    3    0    0 -0.11183875636E+03  0.89215430910E+00 -0.21798177454E+04  0.21984690799E+04  0.26296803733E+03 0.  0.
         25    1    3    3    0    0  0.11183875636E+03 -0.89215430910E+00 -0.11509583811E+04  0.11631257054E+04  0.12509000000E+03 0.  0.
         25    1    4    4    0    0 -0.90450777035E+02  0.18952530057E+02 -0.10624626568E+04  0.10737853355E+04  0.12509000000E+03 0.  0.
         25    1    4    4    0    0 -0.21387979326E+02 -0.18060375748E+02 -0.11173550886E+04  0.11246837444E+04  0.12509000000E+03 0.  0.
<mgrwt>
<rscale>  2 0.45414744E+03</rscale>
<asrwt>0</asrwt>
<pdfrwt beam="1">  1       21 0.22660756E-02 0.45414744E+03</pdfrwt>
<pdfrwt beam="2">  1       21 0.49208659E+00 0.45414744E+03</pdfrwt>
<totfact> 0.16972599E+03</totfact>
</mgrwt>
</event>
<event>
 7    0  0.4779893E-002  0.4455264E+03  0.7546771E-02  0.1029065E+00
         21   -1    0    0  502  501  0.00000000000E+00  0.00000000000E+00  0.34069024017E+02  0.34069024017E+02  0.00000000000E+00 0. -1.
         21   -1    0    0  501  502 -0.00000000000E+00 -0.00000000000E+00 -0.14565561609E+04  0.14565561609E+04  0.00000000000E+00 0. -1.
      99926    2    1    2    0    0  0.00000000000E+00  0.00000000000E+00 -0.14224871369E+04  0.14906251849E+04  0.44552641596E+03 0.  0.
      99925    2    3    3    0    0  0.45199685622E+02  0.93065684597E+02 -0.87037859518E+03  0.91514661612E+03  0.26311631803E+03 0.  0.
         25    1    3    3    0    0 -0.45199685622E+02 -0.93065684597E+02 -0.55210854173E+03  0.57547856883E+03  0.12509000000E+03 0.  0.
         25    1    4    4    0    0  0.55808691384E+02  0.73116517597E+02 -0.45600069486E+03  0.48171026249E+03  0.12509000000E+03 0.  0.
         25    1    4    4    0    0 -0.10609005762E+02  0.19949166999E+02 -0.41437790033E+03  0.43343635363E+03  0.12509000000E+03 0.  0.
<mgrwt>
<rscale>  2 0.44552642E+03</rscale>
<asrwt>0</asrwt>
<pdfrwt beam="1">  1       21 0.50101507E-02 0.44552642E+03</pdfrwt>
<pdfrwt beam="2">  1       21 0.21419943E+00 0.44552642E+03</pdfrwt>
<totfact> 0.25861193E+04</totfact>
</mgrwt>
</event>
<event>
 7    0  0.4779893E-002  0.4601523E+03  0.7546771E-02  0.1024737E+00
         21   -1    0    0  502  501  0.00000000000E+00  0.00000000000E+00  0.10263529393E+03  0.10263529393E+03  0.00000000000E+00 0.  1.
         21   -1    0    0  501  502 -0.00000000000E+00 -0.00000000000E+00 -0.51575855280E+03  0.51575855280E+03  0.00000000000E+00 0.  1.
      99926    2    1    2    0    0  0.00000000000E+00  0.00000000000E+00 -0.41312325887E+03  0.61839384672E+03  0.46015228202E+03 0.  0.
      99925    2    3    3    0    0  0.79611381738E+02  0.78063297957E+02 -0.20696530295E+03  0.35272401125E+03  0.26295958035E+03 0.  0.
         25    1    4    4    0    0  0.42789819560E+02  0.35807137069E+02 -0.53739621931E+02  0.14713454655E+03  0.12509000000E+03 0.  0.
         25    1    4    4    0    0  0.36821562179E+02  0.42256160888E+02 -0.15322568101E+03  0.20558946470E+03  0.12509000000E+03 0.  0.
         25    1    3    3    0    0 -0.79611381738E+02 -0.78063297957E+02 -0.20615795592E+03  0.26566983547E+03  0.12509000000E+03 0.  0.
<mgrwt>
<rscale>  2 0.46015228E+03</rscale>
<asrwt>0</asrwt>
<pdfrwt beam="1">  1       21 0.15093426E-01 0.46015228E+03</pdfrwt>
<pdfrwt beam="2">  1       21 0.75846845E-01 0.46015228E+03</pdfrwt>
<totfact> 0.55276446E+04</totfact>
</mgrwt>
</event>
<event>
 7    0  0.4779893E-002  0.4483710E+03  0.7546771E-02  0.1028209E+00
         21   -1    0    0  502  501  0.00000000000E+00  0.00000000000E+00  0.74563770270E+02  0.74563770270E+02  0.00000000000E+00 0. -1.
         21   -1    0    0  501  502 -0.00000000000E+00 -0.00000000000E+00 -0.67404237541E+03  0.67404237541E+03  0.00000000000E+00 0. -1.
      99926    2    1    2    0    0 -0.35527136788E-14  0.35527136788E-14 -0.59947860514E+03  0.74860614568E+03  0.44837101081E+03 0.  0.
      99925    2    3    3    0    0  0.11737705166E+02 -0.30510068592E+02 -0.20967206598E+03  0.33791735343E+03  0.26297742201E+03 0.  0.
         25    1    4    4    0    0 -0.16516659212E+02  0.15340945801E+02 -0.82140335806E+02  0.15133633905E+03  0.12509000000E+03 0.  0.
         25    1    3    3    0    0 -0.11737705166E+02  0.30510068592E+02 -0.38980653917E+03  0.41068879226E+03  0.12509000000E+03 0.  0.
         25    1    4    4    0    0  0.28254364378E+02 -0.45851014393E+02 -0.12753173017E+03  0.18658101438E+03  0.12509000000E+03 0.  0.
<mgrwt>
<rscale>  2 0.44837101E+03</rscale>
<asrwt>0</asrwt>
<pdfrwt beam="1">  1       21 0.10965260E-01 0.44837101E+03</pdfrwt>
<pdfrwt beam="2">  1       21 0.99123885E-01 0.44837101E+03</pdfrwt>
<totfact> 0.53052710E+04</totfact>
</mgrwt>
</event>
<event>
 7    0  0.4779893E-002  0.4500114E+03  0.7546771E-02  0.1027719E+00
         21   -1    0    0  502  501  0.00000000000E+00  0.00000000000E+00  0.11346746832E+04  0.11346746832E+04  0.00000000000E+00 0. -1.
         21   -1    0    0  501  502 -0.00000000000E+00 -0.00000000000E+00 -0.44618580477E+02  0.44618580477E+02  0.00000000000E+00 0. -1.
      99926    2    1    2    0    0  0.00000000000E+00  0.14210854715E-13  0.10900561028E+04  0.11792932637E+04  0.45001143838E+03 0.  0.
      99925    2    3    3    0    0 -0.35360548485E+02  0.10210528999E+03  0.71177376358E+03  0.76647260669E+03  0.26302567869E+03 0.  0.
         25    1    4    4    0    0 -0.83882021948E+01  0.75133873989E+02  0.46148117159E+03  0.48407421000E+03  0.12509000000E+03 0.  0.
         25    1    4    4    0    0 -0.26972346290E+02  0.26971415997E+02  0.25029259199E+03  0.28239839668E+03  0.12509000000E+03 0.  0.
         25    1    3    3    0    0  0.35360548485E+02 -0.10210528999E+03  0.37828233918E+03  0.41282065703E+03  0.12509000000E+03 0.  0.
<mgrwt>
<rscale>  2 0.45001144E+03</rscale>
<asrwt>0</asrwt>
<pdfrwt beam="1">  1       21 0.16686390E+00 0.45001144E+03</pdfrwt>
<pdfrwt beam="2">  1       21 0.65615567E-02 0.45001144E+03</pdfrwt>
<totfact> 0.34126498E+04</totfact>
</mgrwt>
</event>
<event>
 7    0  0.4779893E-002  0.4606360E+03  0.7546771E-02  0.1024597E+00
         21   -1    0    0  502  501  0.00000000000E+00  0.00000000000E+00  0.36213183284E+03  0.36213183284E+03  0.00000000000E+00 0. -1.
         21   -1    0    0  501  502 -0.00000000000E+00 -0.00000000000E+00 -0.14648359883E+03  0.14648359883E+03  0.00000000000E+00 0. -1.
      99926    2    1    2    0    0  0.00000000000E+00  0.17763568394E-14  0.21564823401E+03  0.50861543167E+03  0.46063596961E+03 0.  0.
      99925    2    3    3    0    0  0.99972588007E+02 -0.13156480855E+02  0.64850949115E+02  0.28826357537E+03  0.26215001801E+03 0.  0.
         25    1    4    4    0    0  0.53451866255E+02  0.15846542546E+02 -0.28263819125E+00  0.13695182694E+03  0.12509000000E+03 0.  0.
         25    1    4    4    0    0  0.46520721752E+02 -0.29003023400E+02  0.65133587306E+02  0.15131174843E+03  0.12509000000E+03 0.  0.
         25    1    3    3    0    0 -0.99972588007E+02  0.13156480855E+02  0.15079728490E+03  0.22035185630E+03  0.12509000000E+03 0.  0.
<mgrwt>
<rscale>  2 0.46063597E+03</rscale>
<asrwt>0</asrwt>
<pdfrwt beam="1">  1       21 0.53254681E-01 0.46063597E+03</pdfrwt>
<pdfrwt beam="2">  1       21 0.21541706E-01 0.46063597E+03</pdfrwt>
<totfact> 0.61855832E+04</totfact>
</mgrwt>
</event>
<event>
 7    0  0.4779893E-002  0.4542108E+03  0.7546771E-02  0.1026474E+00
         21   -1    0    0  502  501  0.00000000000E+00  0.00000000000E+00  0.54935951311E+03  0.54935951311E+03  0.00000000000E+00 0. -1.
         21   -1    0    0  501  502 -0.00000000000E+00 -0.00000000000E+00 -0.93885461726E+02  0.93885461726E+02  0.00000000000E+00 0. -1.
      99926    2    1    2    0    0  0.00000000000E+00  0.00000000000E+00  0.45547405138E+03  0.64324497483E+03  0.45421083889E+03 0.  0.
      99925    2    3    3    0    0  0.55697568324E+02 -0.74228366228E+01  0.14855587975E+03  0.30708490909E+03  0.26282118325E+03 0.  0.
         25    1    3    3    0    0 -0.55697568324E+02  0.74228366228E+01  0.30691817164E+03  0.33616006574E+03  0.12509000000E+03 0.  0.
         25    1    4    4    0    0  0.16431544237E+02 -0.18690027470E+01  0.28787915622E+02  0.12942079046E+03  0.12509000000E+03 0.  0.
         25    1    4    4    0    0  0.39266024087E+02 -0.55538338758E+01  0.11976796412E+03  0.17766411863E+03  0.12509000000E+03 0.  0.
<mgrwt>
<rscale>  2 0.45421084E+03</rscale>
<asrwt>0</asrwt>
<pdfrwt beam="1">  1       21 0.80788162E-01 0.45421084E+03</pdfrwt>
<pdfrwt beam="2">  1       21 0.13806686E-01 0.45421084E+03</pdfrwt>
<totfact> 0.56442981E+04</totfact>
</mgrwt>
</event>
<event>
 7    0  0.4779893E-002  0.4547395E+03  0.7546771E-02  0.1026318E+00
         21   -1    0    0  502  501  0.00000000000E+00  0.00000000000E+00  0.14550592336E+03  0.14550592336E+03  0.00000000000E+00 0.  1.
         21   -1    0    0  501  502 -0.00000000000E+00 -0.00000000000E+00 -0.35529144973E+03  0.35529144973E+03  0.00000000000E+00 0.  1.
      99926    2    1    2    0    0  0.00000000000E+00  0.00000000000E+00 -0.20978552638E+03  0.50079737309E+03  0.45473953184E+03 0.  0.
      99925    2    3    3    0    0 -0.19372447646E+02  0.60794129856E+02 -0.29247519168E+02  0.27207767980E+03  0.26286808196E+03 0.  0.
         25    1    4    4    0    0 -0.18666121080E+02  0.25508110230E+02 -0.53828433154E+02  0.13980020057E+03  0.12509000000E+03 0.  0.
         25    1    4    4    0    0 -0.70632656591E+00  0.35286019626E+02  0.24580913986E+02  0.13227747923E+03  0.12509000000E+03 0.  0.
         25    1    3    3    0    0  0.19372447646E+02 -0.60794129856E+02 -0.18053800721E+03  0.22871969329E+03  0.12509000000E+03 0.  0.
<mgrwt>
<rscale>  2 0.45473953E+03</rscale>
<asrwt>0</asrwt>
<pdfrwt beam="1">  1       21 0.21397930E-01 0.45473953E+03</pdfrwt>
<pdfrwt beam="2">  1       21 0.52248743E-01 0.45473953E+03</pdfrwt>
<totfact> 0.65349691E+04</totfact>
</mgrwt>
</event>
<event>
 7    0  0.4779893E-002  0.4608446E+03  0.7546771E-02  0.1024537E+00
         21   -1    0    0  502  501  0.00000000000E+00  0.00000000000E+00  0.18677951030E+03  0.18677951030E+03  0.00000000000E+00 0. -1.
         21   -1    0    0  501  502 -0.00000000000E+00 -0.00000000000E+00 -0.28426269629E+03  0.28426269629E+03  0.00000000000E+00 0. -1.
      99926    2    1    2    0    0  0.00000000000E+00  0.88817841970E-15 -0.97483185994E+02  0.47104220659E+03  0.46084464719E+03 0.  0.
      99925    2    3    3    0    0 -0.11089111092E+03 -0.32797732145E+01 -0.18255104174E+02  0.28602276858E+03  0.26299844092E+03 0.  0.
         25    1    4    4    0    0 -0.27636740396E+02 -0.14235011282E+02  0.20356182042E+02  0.13049255616E+03  0.12509000000E+03 0.  0.
         25    1    3    3    0    0  0.11089111092E+03  0.32797732145E+01 -0.79228081820E+02  0.18501943801E+03  0.12509000000E+03 0.  0.
         25    1    4    4    0    0 -0.83254370524E+02  0.10955238067E+02 -0.38611286216E+02  0.15553021242E+03  0.12509000000E+03 0.  0.
<mgrwt>
<rscale>  2 0.46084465E+03</rscale>
<asrwt>0</asrwt>
<pdfrwt beam="1">  1       21 0.27467575E-01 0.46084465E+03</pdfrwt>
<pdfrwt beam="2">  1       21 0.41803338E-01 0.46084465E+03</pdfrwt>
<totfact> 0.64323355E+04</totfact>
</mgrwt>
</event>
<event>
 7    0  0.4779893E-002  0.4427393E+03  0.7546771E-02  0.1029910E+00
         21   -1    0    0  502  501  0.00000000000E+00  0.00000000000E+00  0.51161271400E+03  0.51161271400E+03  0.00000000000E+00 0. -1.
         21   -1    0    0  501  502 -0.00000000000E+00 -0.00000000000E+00 -0.95784393983E+02  0.95784393983E+02  0.00000000000E+00 0. -1.
      99926    2    1    2    0    0  0.00000000000E+00  0.00000000000E+00  0.41582832001E+03  0.60739710798E+03  0.44273926306E+03 0.  0.
      99925    2    3    3    0    0  0.97461121390E+02  0.27277803849E+02  0.25710554457E+03  0.38138123174E+03  0.26287950493E+03 0.  0.
         25    1    4    4    0    0  0.17253008378E+02  0.89602957405E+01  0.81247688108E+02  0.15042156800E+03  0.12509000000E+03 0.  0.
         25    1    3    3    0    0 -0.97461121390E+02 -0.27277803849E+02  0.15872277545E+03  0.22601587624E+03  0.12509000000E+03 0.  0.
         25    1    4    4    0    0  0.80208113011E+02  0.18317508109E+02  0.17585785646E+03  0.23095966374E+03  0.12509000000E+03 0.  0.
<mgrwt>
<rscale>  2 0.44273926E+03</rscale>
<asrwt>0</asrwt>
<pdfrwt beam="1">  1       21 0.75237163E-01 0.44273926E+03</pdfrwt>
<pdfrwt beam="2">  1       21 0.14085941E-01 0.44273926E+03</pdfrwt>
<totfact> 0.64222723E+04</totfact>
</mgrwt>
</event>
<event>
 7    0  0.4779893E-002  0.4608604E+03  0.7546771E-02  0.1024532E+00
         21   -1    0    0  502  501  0.00000000000E+00  0.00000000000E+00  0.60999685771E+03  0.60999685771E+03  0.00000000000E+00 0. -1.
         21   -1    0    0  501  502 -0.00000000000E+00 -0.00000000000E+00 -0.87046460369E+02  0.87046460369E+02  0.00000000000E+00 0. -1.
      99926    2    1    2    0    0  0.00000000000E+00  0.00000000000E+00  0.52295039734E+03  0.69704331807E+03  0.46086035759E+03 0.  0.
      99925    2    3    3    0    0  0.26550488525E+02 -0.10494860528E+03  0.25399712567E+03  0.38128627756E+03  0.26295540956E+03 0.  0.
         25    1    4    4    0    0  0.50200378104E+02 -0.46778584247E+02  0.10722249227E+03  0.17847264456E+03  0.12509000000E+03 0.  0.
         25    1    3    3    0    0 -0.26550488525E+02  0.10494860528E+03  0.26895327167E+03  0.31575704051E+03  0.12509000000E+03 0.  0.
         25    1    4    4    0    0 -0.23649889579E+02 -0.58170021037E+02  0.14677463340E+03  0.20281363301E+03  0.12509000000E+03 0.  0.
<mgrwt>
<rscale>  2 0.46086036E+03</rscale>
<asrwt>0</asrwt>
<pdfrwt beam="1">  1       21 0.89705418E-01 0.46086036E+03</pdfrwt>
<pdfrwt beam="2">  1       21 0.12800950E-01 0.46086036E+03</pdfrwt>
<totfact> 0.50685191E+04</totfact>
</mgrwt>
</event>
<event>
 7    0  0.4779893E-002  0.4585320E+03  0.7546771E-02  0.1025208E+00
         21   -1    0    0  502  501  0.00000000000E+00  0.00000000000E+00  0.87122550205E+02  0.87122550205E+02  0.00000000000E+00 0. -1.
         21   -1    0    0  501  502 -0.00000000000E+00 -0.00000000000E+00 -0.60332134772E+03  0.60332134772E+03  0.00000000000E+00 0. -1.
      99926    2    1    2    0    0  0.00000000000E+00 -0.17763568394E-14 -0.51619879751E+03  0.69044389792E+03  0.45853198103E+03 0.  0.
      99925    2    3    3    0    0  0.24702903752E+02  0.15944060017E+02 -0.15423231847E+03  0.30634536036E+03  0.26305023333E+03 0.  0.
         25    1    4    4    0    0  0.38454499154E+01  0.37697138569E+02 -0.10823969837E+03  0.16970327676E+03  0.12509000000E+03 0.  0.
         25    1    4    4    0    0  0.20857453836E+02 -0.21753078552E+02 -0.45992620102E+02  0.13664208360E+03  0.12509000000E+03 0.  0.
         25    1    3    3    0    0 -0.24702903752E+02 -0.15944060017E+02 -0.36196647904E+03  0.38409853756E+03  0.12509000000E+03 0.  0.
<mgrwt>
<rscale>  2 0.45853198E+03</rscale>
<asrwt>0</asrwt>
<pdfrwt beam="1">  1       21 0.12812140E-01 0.45853198E+03</pdfrwt>
<pdfrwt beam="2">  1       21 0.88723728E-01 0.45853198E+03</pdfrwt>
<totfact> 0.51965004E+04</totfact>
</mgrwt>
</event>
<event>
 7    0  0.4779893E-002  0.4599141E+03  0.7546771E-02  0.1024806E+00
         21   -1    0    0  502  501  0.00000000000E+00  0.00000000000E+00  0.33748219561E+02  0.33748219561E+02  0.00000000000E+00 0.  1.
         21   -1    0    0  501  502 -0.00000000000E+00 -0.00000000000E+00 -0.15669048297E+04  0.15669048297E+04  0.00000000000E+00 0.  1.
      99926    2    1    2    0    0  0.00000000000E+00  0.00000000000E+00 -0.15331566102E+04  0.16006530493E+04  0.45991411470E+03 0.  0.
      99925    2    3    3    0    0 -0.61423485639E+02 -0.94300439554E+02 -0.10835612839E+04  0.11206021322E+04  0.26263789761E+03 0.  0.
         25    1    4    4    0    0 -0.44753831627E+02 -0.10520040064E+02 -0.46090054934E+03  0.47978161821E+03  0.12509000000E+03 0.  0.
         25    1    4    4    0    0 -0.16669654012E+02 -0.83780399490E+02 -0.62266073453E+03  0.64082051397E+03  0.12509000000E+03 0.  0.
         25    1    3    3    0    0  0.61423485639E+02  0.94300439554E+02 -0.44959532630E+03  0.48005091711E+03  0.12509000000E+03 0.  0.
<mgrwt>
<rscale>  2 0.45991411E+03</rscale>
<asrwt>0</asrwt>
<pdfrwt beam="1">  1       21 0.49629721E-02 0.45991411E+03</pdfrwt>
<pdfrwt beam="2">  1       21 0.23042725E+00 0.45991411E+03</pdfrwt>
<totfact> 0.20617042E+04</totfact>
</mgrwt>
</event>
<event>
 7    0  0.4779893E-002  0.4413084E+03  0.7546771E-02  0.1030346E+00
         21   -1    0    0  502  501  0.00000000000E+00  0.00000000000E+00  0.58190074192E+02  0.58190074192E+02  0.00000000000E+00 0. -1.
         21   -1    0    0  501  502 -0.00000000000E+00 -0.00000000000E+00 -0.83671110689E+03  0.83671110689E+03  0.00000000000E+00 0. -1.
      99926    2    1    2    0    0  0.00000000000E+00 -0.13322676296E-14 -0.77852103270E+03  0.89490118108E+03  0.44130842451E+03 0.  0.
      99925    2    3    3    0    0  0.91799725492E+02 -0.28578990555E+01 -0.41764608219E+03  0.50207348961E+03  0.26308588295E+03 0.  0.
         25    1    3    3    0    0 -0.91799725492E+02  0.28578990555E+01 -0.36087495051E+03  0.39282769148E+03  0.12509000000E+03 0.  0.
         25    1    4    4    0    0  0.58086689042E+02 -0.18751106282E+02 -0.15204389478E+03  0.20613229119E+03  0.12509000000E+03 0.  0.
         25    1    4    4    0    0  0.33713036451E+02  0.15893207227E+02 -0.26560218741E+03  0.29594119842E+03  0.12509000000E+03 0.  0.
<mgrwt>
<rscale>  2 0.44130842E+03</rscale>
<asrwt>0</asrwt>
<pdfrwt beam="1">  1       21 0.85573651E-02 0.44130842E+03</pdfrwt>
<pdfrwt beam="2">  1       21 0.12304573E+00 0.44130842E+03</pdfrwt>
<totfact> 0.48441178E+04</totfact>
</mgrwt>
</event>
<event>
 7    0  0.4779893E-002  0.4604249E+03  0.7546771E-02  0.1024658E+00
         21   -1    0    0  502  501  0.00000000000E+00  0.00000000000E+00  0.17371350478E+03  0.17371350478E+03  0.00000000000E+00 0. -1.
         21   -1    0    0  501  502 -0.00000000000E+00 -0.00000000000E+00 -0.30508725204E+03  0.30508725204E+03  0.00000000000E+00 0. -1.
      99926    2    1    2    0    0 -0.14210854715E-13 -0.17763568394E-14 -0.13137374726E+03  0.47880075682E+03  0.46042491598E+03 0.  0.
      99925    2    3    3    0    0  0.87586566782E+02  0.13281789195E+02 -0.10770501563E+01  0.27762285052E+03  0.26310734404E+03 0.  0.
         25    1    3    3    0    0 -0.87586566782E+02 -0.13281789195E+02 -0.13029669710E+03  0.20117790629E+03  0.12509000000E+03 0.  0.
         25    1    4    4    0    0  0.70606004544E+02 -0.69004146137E+01 -0.29162540398E+02  0.14673372299E+03  0.12509000000E+03 0.  0.
         25    1    4    4    0    0  0.16980562239E+02  0.20182203809E+02  0.28085490242E+02  0.13088912753E+03  0.12509000000E+03 0.  0.
<mgrwt>
<rscale>  2 0.46042492E+03</rscale>
<asrwt>0</asrwt>
<pdfrwt beam="1">  1       21 0.25546104E-01 0.46042492E+03</pdfrwt>
<pdfrwt beam="2">  1       21 0.44865772E-01 0.46042492E+03</pdfrwt>
<totfact> 0.63987979E+04</totfact>
</mgrwt>
</event>
<event>
 7    0  0.4779893E-002  0.4526894E+03  0.7546771E-02  0.1026923E+00
         21   -1    0    0  502  501  0.00000000000E+00  0.00000000000E+00  0.13989068057E+04  0.13989068057E+04  0.00000000000E+00 0. -1.
         21   -1    0    0  501  502 -0.00000000000E+00 -0.00000000000E+00 -0.36622830909E+02  0.36622830909E+02  0.00000000000E+00 0. -1.
      99926    2    1    2    0    0  0.00000000000E+00  0.00000000000E+00  0.13622839747E+04  0.14355296366E+04  0.45268941848E+03 0.  0.
      99925    2    3    3    0    0 -0.10983517727E+02  0.95947278568E+02  0.10326564973E+04  0.10699775884E+04  0.26295642289E+03 0.  0.
         25    1    4    4    0    0 -0.95059313763E+01  0.28878442766E+02  0.35513392211E+03  0.37774586420E+03  0.12509000000E+03 0.  0.
         25    1    4    4    0    0 -0.14775863508E+01  0.67068835802E+02  0.67752257522E+03  0.69223172423E+03  0.12509000000E+03 0.  0.
         25    1    3    3    0    0  0.10983517727E+02 -0.95947278568E+02  0.32962747742E+03  0.36555204813E+03  0.12509000000E+03 0.  0.
<mgrwt>
<rscale>  2 0.45268942E+03</rscale>
<asrwt>0</asrwt>
<pdfrwt beam="1">  1       21 0.20572155E+00 0.45268942E+03</pdfrwt>
<pdfrwt beam="2">  1       21 0.53857114E-02 0.45268942E+03</pdfrwt>
<totfact> 0.25861612E+04</totfact>
</mgrwt>
</event>
<event>
 6    0  0.4779893E-002  0.4547543E+03  0.7546771E-02  0.1026314E+00
         21   -1    0    0  502  501  0.00000000000E+00  0.00000000000E+00  0.44837045752E+03  0.44837045752E+03  0.00000000000E+00 0.  1.
         21   -1    0    0  501  502 -0.00000000000E+00 -0.00000000000E+00 -0.11530723991E+03  0.11530723991E+03  0.00000000000E+00 0.  1.
      99926    2    1    2    0    0  0.00000000000E+00  0.00000000000E+00  0.33306321760E+03  0.56367769743E+03  0.45475426293E+03 0.  0.
         25    1    3    3    0    0 -0.13291334711E+00 -0.42391789132E+02  0.22007467321E+03  0.25666603075E+03  0.12509000000E+03 0.  0.
         25    1    3    3    0    0  0.40925295181E+01  0.82535568956E+02  0.34201536775E+02  0.15377295652E+03  0.12509000000E+03 0.  0.
         25    1    3    3    0    0 -0.39596161710E+01 -0.40143779824E+02  0.78787007616E+02  0.15323871015E+03  0.12509000000E+03 0.  0.
<mgrwt>
<rscale>  2 0.45475426E+03</rscale>
<asrwt>0</asrwt>
<pdfrwt beam="1">  1       21 0.65936832E-01 0.45475426E+03</pdfrwt>
<pdfrwt beam="2">  1       21 0.16956947E-01 0.45475426E+03</pdfrwt>
<totfact> 0.61090272E+04</totfact>
</mgrwt>
</event>
<event>
 7    0  0.4779893E-002  0.4571218E+03  0.7546771E-02  0.1025619E+00
         21   -1    0    0  502  501  0.00000000000E+00  0.00000000000E+00  0.19562300342E+03  0.19562300342E+03  0.00000000000E+00 0.  1.
         21   -1    0    0  501  502 -0.00000000000E+00 -0.00000000000E+00 -0.26704472352E+03  0.26704472352E+03  0.00000000000E+00 0.  1.
      99926    2    1    2    0    0  0.00000000000E+00  0.00000000000E+00 -0.71421720104E+02  0.46266772694E+03  0.45712182561E+03 0.  0.
      99925    2    3    3    0    0  0.21271775811E+02  0.10988292323E+03 -0.17746345707E+02  0.28644258917E+03  0.26307352364E+03 0.  0.
         25    1    4    4    0    0  0.14103517037E+02  0.57962274113E+02 -0.49477632132E+02  0.14715324867E+03  0.12509000000E+03 0.  0.
         25    1    3    3    0    0 -0.21271775811E+02 -0.10988292323E+03 -0.53675374396E+02  0.17622513777E+03  0.12509000000E+03 0.  0.
         25    1    4    4    0    0  0.71682587741E+01  0.51920649119E+02  0.31731286424E+02  0.13928934050E+03  0.12509000000E+03 0.  0.
<mgrwt>
<rscale>  2 0.45712183E+03</rscale>
<asrwt>0</asrwt>
<pdfrwt beam="1">  1       21 0.28768089E-01 0.45712183E+03</pdfrwt>
<pdfrwt beam="2">  1       21 0.39271282E-01 0.45712183E+03</pdfrwt>
<totfact> 0.66848267E+04</totfact>
</mgrwt>
</event>
<event>
 7    0  0.4779893E-002  0.4199328E+03  0.7546771E-02  0.1037088E+00
         21   -1    0    0  502  501  0.00000000000E+00  0.00000000000E+00  0.11321452916E+03  0.11321452916E+03  0.00000000000E+00 0. -1.
         21   -1    0    0  501  502 -0.00000000000E+00 -0.00000000000E+00 -0.38940132068E+03  0.38940132068E+03  0.00000000000E+00 0. -1.
      99926    2    1    2    0    0  0.00000000000E+00 -0.71054273576E-14 -0.27618679152E+03  0.50261584984E+03  0.41993279069E+03 0.  0.
      99925    2    3    3    0    0  0.39586247513E+02 -0.46740271942E+02 -0.12677689957E+03  0.29835486990E+03  0.26304281422E+03 0.  0.
         25    1    3    3    0    0 -0.39586247513E+02  0.46740271942E+02 -0.14940989195E+03  0.20426097994E+03  0.12509000000E+03 0.  0.
         25    1    4    4    0    0  0.58495635065E+02 -0.20014987124E+02 -0.80061284103E+02  0.16087155231E+03  0.12509000000E+03 0.  0.
         25    1    4    4    0    0 -0.18909387552E+02 -0.26725284818E+02 -0.46715615462E+02  0.13748331759E+03  0.12509000000E+03 0.  0.
<mgrwt>
<rscale>  2 0.41993279E+03</rscale>
<asrwt>0</asrwt>
<pdfrwt beam="1">  1       21 0.16649195E-01 0.41993279E+03</pdfrwt>
<pdfrwt beam="2">  1       21 0.57264901E-01 0.41993279E+03</pdfrwt>
<totfact> 0.86832554E+04</totfact>
</mgrwt>
</event>
<event>
 7    0  0.4779893E-002  0.4521592E+03  0.7546771E-02  0.1027080E+00
         21   -1    0    0  502  501  0.00000000000E+00  0.00000000000E+00  0.83087503568E+03  0.83087503568E+03  0.00000000000E+00 0. -1.
         21   -1    0    0  501  502 -0.00000000000E+00 -0.00000000000E+00 -0.61515847326E+02  0.61515847326E+02  0.00000000000E+00 0. -1.
      99926    2    1    2    0    0  0.00000000000E+00  0.00000000000E+00  0.76935918836E+03  0.89239088301E+03  0.45215918366E+03 0.  0.
      99925    2    3    3    0    0 -0.78163990327E+02 -0.60224766739E+02  0.58364598262E+03  0.64770019091E+03  0.26293777281E+03 0.  0.
         25    1    4    4    0    0 -0.46184417289E+02 -0.70597897084E+01  0.21044718943E+03  0.24923556863E+03  0.12509000000E+03 0.  0.
         25    1    3    3    0    0  0.78163990327E+02  0.60224766739E+02  0.18571320574E+03  0.24469069210E+03  0.12509000000E+03 0.  0.
         25    1    4    4    0    0 -0.31979573038E+02 -0.53164977031E+02  0.37319879319E+03  0.39846462228E+03  0.12509000000E+03 0.  0.
<mgrwt>
<rscale>  2 0.45215918E+03</rscale>
<asrwt>0</asrwt>
<pdfrwt beam="1">  1       21 0.12218750E+00 0.45215918E+03</pdfrwt>
<pdfrwt beam="2">  1       21 0.90464486E-02 0.45215918E+03</pdfrwt>
<totfact> 0.44547005E+04</totfact>
</mgrwt>
</event>
<event>
 7    0  0.4779893E-002  0.4546714E+03  0.7546771E-02  0.1026338E+00
         21   -1    0    0  502  501  0.00000000000E+00  0.00000000000E+00  0.21415158928E+03  0.21415158928E+03  0.00000000000E+00 0. -1.
         21   -1    0    0  501  502 -0.00000000000E+00 -0.00000000000E+00 -0.24133146790E+03  0.24133146790E+03  0.00000000000E+00 0. -1.
      99926    2    1    2    0    0  0.00000000000E+00 -0.17763568394E-14 -0.27179878621E+02  0.45548305719E+03  0.45467138637E+03 0.  0.
      99925    2    3    3    0    0 -0.10949467228E+03  0.97901682559E+01  0.83741186466E+01  0.28519939539E+03  0.26302782860E+03 0.  0.
         25    1    4    4    0    0 -0.85476667307E+02 -0.84685275396E+01  0.30108783038E+02  0.15469978516E+03  0.12509000000E+03 0.  0.
         25    1    3    3    0    0  0.10949467228E+03 -0.97901682559E+01 -0.35553997268E+02  0.17028366179E+03  0.12509000000E+03 0.  0.
         25    1    4    4    0    0 -0.24018004973E+02  0.18258695795E+02 -0.21734664392E+02  0.13049961023E+03  0.12509000000E+03 0.  0.
<mgrwt>
<rscale>  2 0.45467139E+03</rscale>
<asrwt>0</asrwt>
<pdfrwt beam="1">  1       21 0.31492881E-01 0.45467139E+03</pdfrwt>
<pdfrwt beam="2">  1       21 0.35489922E-01 0.45467139E+03</pdfrwt>
<totfact> 0.68690378E+04</totfact>
</mgrwt>
</event>
<event>
 7    0  0.4779893E-002  0.4602062E+03  0.7546771E-02  0.1024721E+00
         21   -1    0    0  502  501  0.00000000000E+00  0.00000000000E+00  0.20433340117E+03  0.20433340117E+03  0.00000000000E+00 0.  1.
         21   -1    0    0  501  502 -0.00000000000E+00 -0.00000000000E+00 -0.25912280201E+03  0.25912280201E+03  0.00000000000E+00 0.  1.
      99926    2    1    2    0    0  0.00000000000E+00  0.00000000000E+00 -0.54789400848E+02  0.46345620318E+03  0.46020622966E+03 0.  0.
      99925    2    3    3    0    0 -0.51542280053E+02 -0.34443315227E+02  0.66802355234E+02  0.27832108538E+03  0.26297741976E+03 0.  0.
         25    1    4    4    0    0 -0.26311201043E+01 -0.11827417033E+02 -0.20755777658E+01  0.12569258813E+03  0.12509000000E+03 0.  0.
         25    1    3    3    0    0  0.51542280053E+02  0.34443315227E+02 -0.12159175608E+03  0.18513511780E+03  0.12509000000E+03 0.  0.
         25    1    4    4    0    0 -0.48911159948E+02 -0.22615898194E+02  0.68877933000E+02  0.15262849725E+03  0.12509000000E+03 0.  0.
<mgrwt>
<rscale>  2 0.46020623E+03</rscale>
<asrwt>0</asrwt>
<pdfrwt beam="1">  1       21 0.30049030E-01 0.46020623E+03</pdfrwt>
<pdfrwt beam="2">  1       21 0.38106294E-01 0.46020623E+03</pdfrwt>
<totfact> 0.65180762E+04</totfact>
</mgrwt>
</event>
<event>
 7    0  0.4779893E-002  0.4384626E+03  0.7546771E-02  0.1031220E+00
         21   -1    0    0  502  501  0.00000000000E+00  0.00000000000E+00  0.84587842427E+02  0.84587842427E+02  0.00000000000E+00 0. -1.
         21   -1    0    0  501  502 -0.00000000000E+00 -0.00000000000E+00 -0.56819473249E+03  0.56819473249E+03  0.00000000000E+00 0. -1.
      99926    2    1    2    0    0  0.00000000000E+00 -0.71054273576E-14 -0.48360689007E+03  0.65278257492E+03  0.43846261642E+03 0.  0.
      99925    2    3    3    0    0  0.69479329133E+02  0.49646291084E+02 -0.23919828473E+03  0.36524961011E+03  0.26248681275E+03 0.  0.
         25    1    3    3    0    0 -0.69479329133E+02 -0.49646291084E+02 -0.24440860533E+03  0.28753296482E+03  0.12509000000E+03 0.  0.
         25    1    4    4    0    0  0.15618846552E+02  0.49538808467E+02 -0.15171979547E+03  0.20338251240E+03  0.12509000000E+03 0.  0.
         25    1    4    4    0    0  0.53860482581E+02  0.10748261628E+00 -0.87478489268E+02  0.16186709771E+03  0.12509000000E+03 0.  0.
<mgrwt>
<rscale>  2 0.43846262E+03</rscale>
<asrwt>0</asrwt>
<pdfrwt beam="1">  1       21 0.12439389E-01 0.43846262E+03</pdfrwt>
<pdfrwt beam="2">  1       21 0.83558048E-01 0.43846262E+03</pdfrwt>
<totfact> 0.63413859E+04</totfact>
</mgrwt>
</event>
<event>
 7    0  0.4779893E-002  0.4498067E+03  0.7546771E-02  0.1027780E+00
         21   -1    0    0  502  501  0.00000000000E+00  0.00000000000E+00  0.10515161566E+03  0.10515161566E+03  0.00000000000E+00 0. -1.
         21   -1    0    0  501  502 -0.00000000000E+00 -0.00000000000E+00 -0.48103421635E+03  0.48103421635E+03  0.00000000000E+00 0. -1.
      99926    2    1    2    0    0 -0.14210854715E-13  0.00000000000E+00 -0.37588260069E+03  0.58618583201E+03  0.44980673645E+03 0.  0.
      99925    2    3    3    0    0 -0.76801670366E+02  0.46314491335E+02 -0.15863677866E+03  0.31994011098E+03  0.26296866428E+03 0.  0.
         25    1    4    4    0    0 -0.54350715227E+02  0.29172857724E+02 -0.12517475848E+03  0.18740673449E+03  0.12509000000E+03 0.  0.
         25    1    3    3    0    0  0.76801670366E+02 -0.46314491335E+02 -0.21724582203E+03  0.26624572103E+03  0.12509000000E+03 0.  0.
         25    1    4    4    0    0 -0.22450955139E+02  0.17141633611E+02 -0.33462020181E+02  0.13253337649E+03  0.12509000000E+03 0.  0.
<mgrwt>
<rscale>  2 0.44980674E+03</rscale>
<asrwt>0</asrwt>
<pdfrwt beam="1">  1       21 0.15463473E-01 0.44980674E+03</pdfrwt>
<pdfrwt beam="2">  1       21 0.70740327E-01 0.44980674E+03</pdfrwt>
<totfact> 0.62044616E+04</totfact>
</mgrwt>
</event>
<event>
 7    0  0.4779893E-002  0.4570227E+03  0.7546771E-02  0.1025648E+00
         21   -1    0    0  502  501  0.00000000000E+00  0.00000000000E+00  0.35752742717E+03  0.35752742717E+03  0.00000000000E+00 0.  1.
         21   -1    0    0  501  502 -0.00000000000E+00 -0.00000000000E+00 -0.14605158526E+03  0.14605158526E+03  0.00000000000E+00 0.  1.
      99926    2    1    2    0    0 -0.35527136788E-14  0.00000000000E+00  0.21147584192E+03  0.50357901243E+03  0.45702274566E+03 0.  0.
      99925    2    3    3    0    0  0.23356296289E+02  0.75310926750E+02  0.40317209872E+02  0.27739316476E+03  0.26287684983E+03 0.  0.
         25    1    4    4    0    0 -0.26490623205E+02  0.47433626501E+02  0.11240893429E+02  0.13684139661E+03  0.12509000000E+03 0.  0.
         25    1    3    3    0    0 -0.23356296289E+02 -0.75310926750E+02  0.17115863204E+03  0.22618584767E+03  0.12509000000E+03 0.  0.
         25    1    4    4    0    0  0.49846919494E+02  0.27877300249E+02  0.29076316443E+02  0.14055176815E+03  0.12509000000E+03 0.  0.
<mgrwt>
<rscale>  2 0.45702275E+03</rscale>
<asrwt>0</asrwt>
<pdfrwt beam="1">  1       21 0.52577563E-01 0.45702275E+03</pdfrwt>
<pdfrwt beam="2">  1       21 0.21478174E-01 0.45702275E+03</pdfrwt>
<totfact> 0.63986399E+04</totfact>
</mgrwt>
</event>
<event>
 7    0  0.4779893E-002  0.4523823E+03  0.7546771E-02  0.1027014E+00
         21   -1    0    0  502  501  0.00000000000E+00  0.00000000000E+00  0.85687786013E+02  0.85687786013E+02  0.00000000000E+00 0.  1.
         21   -1    0    0  501  502 -0.00000000000E+00 -0.00000000000E+00 -0.59707970576E+03  0.59707970576E+03  0.00000000000E+00 0.  1.
      99926    2    1    2    0    0  0.88817841970E-15 -0.35527136788E-14 -0.51139191975E+03  0.68276749178E+03  0.45238230761E+03 0.  0.
      99925    2    3    3    0    0 -0.70560722835E+01 -0.16563608807E+02 -0.15766614237E+03  0.30714324472E+03  0.26297189780E+03 0.  0.
         25    1    4    4    0    0 -0.21483926444E+02 -0.29585498779E+02 -0.11425340235E+03  0.17331534520E+03  0.12509000000E+03 0.  0.
         25    1    3    3    0    0  0.70560722835E+01  0.16563608807E+02 -0.35372577738E+03  0.37562424706E+03  0.12509000000E+03 0.  0.
         25    1    4    4    0    0  0.14427854160E+02  0.13021889972E+02 -0.43412740021E+02  0.13382789952E+03  0.12509000000E+03 0.  0.
<mgrwt>
<rscale>  2 0.45238231E+03</rscale>
<asrwt>0</asrwt>
<pdfrwt beam="1">  1       21 0.12601145E-01 0.45238231E+03</pdfrwt>
<pdfrwt beam="2">  1       21 0.87805840E-01 0.45238231E+03</pdfrwt>
<totfact> 0.54973189E+04</totfact>
</mgrwt>
</event>
<event>
 7    0  0.4779893E-002  0.4454130E+03  0.7546771E-02  0.1029099E+00
         21   -1    0    0  502  501  0.00000000000E+00  0.00000000000E+00  0.11342105793E+03  0.11342105793E+03  0.00000000000E+00 0. -1.
         21   -1    0    0  501  502 -0.00000000000E+00 -0.00000000000E+00 -0.43729255213E+03  0.43729255213E+03  0.00000000000E+00 0. -1.
      99926    2    1    2    0    0  0.00000000000E+00  0.00000000000E+00 -0.32387149420E+03  0.55071361006E+03  0.44541299437E+03 0.  0.
      99925    2    3    3    0    0  0.91742939288E+01 -0.47113104869E+02 -0.31941550986E+03  0.41665699435E+03  0.26319758868E+03 0.  0.
         25    1    4    4    0    0  0.41890805863E+02 -0.10597741370E+02 -0.14201066186E+03  0.19411771666E+03  0.12509000000E+03 0.  0.
         25    1    4    4    0    0 -0.32716511935E+02 -0.36515363498E+02 -0.17740484800E+03  0.22253927770E+03  0.12509000000E+03 0.  0.
         25    1    3    3    0    0 -0.91742939288E+01  0.47113104869E+02 -0.44559843412E+01  0.13405661571E+03  0.12509000000E+03 0.  0.
<mgrwt>
<rscale>  2 0.44541299E+03</rscale>
<asrwt>0</asrwt>
<pdfrwt beam="1">  1       21 0.16679568E-01 0.44541299E+03</pdfrwt>
<pdfrwt beam="2">  1       21 0.64307727E-01 0.44541299E+03</pdfrwt>
<totfact> 0.66739258E+04</totfact>
</mgrwt>
</event>
<event>
 7    0  0.4779893E-002  0.4548109E+03  0.7546771E-02  0.1026297E+00
         21   -1    0    0  502  501  0.00000000000E+00  0.00000000000E+00  0.14318596811E+03  0.14318596811E+03  0.00000000000E+00 0. -1.
         21   -1    0    0  501  502 -0.00000000000E+00 -0.00000000000E+00 -0.36116137495E+03  0.36116137495E+03  0.00000000000E+00 0. -1.
      99926    2    1    2    0    0  0.00000000000E+00  0.26645352591E-14 -0.21797540684E+03  0.50434734307E+03  0.45481091068E+03 0.  0.
      99925    2    3    3    0    0 -0.83557302881E+02 -0.27067401105E+01 -0.22148593006E+03  0.35385155847E+03  0.26299383817E+03 0.  0.
         25    1    3    3    0    0  0.83557302881E+02  0.27067401105E+01  0.35105232142E+01  0.15049578459E+03  0.12509000000E+03 0.  0.
         25    1    4    4    0    0 -0.23050344533E+02 -0.26739524779E+02 -0.13978224232E+03  0.19087405255E+03  0.12509000000E+03 0.  0.
         25    1    4    4    0    0 -0.60506958348E+02  0.24032784668E+02 -0.81703687733E+02  0.16297750592E+03  0.12509000000E+03 0.  0.
<mgrwt>
<rscale>  2 0.45481091E+03</rscale>
<asrwt>0</asrwt>
<pdfrwt beam="1">  1       21 0.21056760E-01 0.45481091E+03</pdfrwt>
<pdfrwt beam="2">  1       21 0.53111966E-01 0.45481091E+03</pdfrwt>
<totfact> 0.65063913E+04</totfact>
</mgrwt>
</event>
<event>
 7    0  0.4779893E-002  0.4537515E+03  0.7546771E-02  0.1026609E+00
         21   -1    0    0  502  501  0.00000000000E+00  0.00000000000E+00  0.58447095470E+02  0.58447095470E+02  0.00000000000E+00 0.  1.
         21   -1    0    0  501  502 -0.00000000000E+00 -0.00000000000E+00 -0.88067000568E+03  0.88067000568E+03  0.00000000000E+00 0.  1.
      99926    2    1    2    0    0  0.00000000000E+00  0.00000000000E+00 -0.82222291021E+03  0.93911710115E+03  0.45375149101E+03 0.  0.
      99925    2    3    3    0    0  0.51829499250E+01 -0.76765099411E+02 -0.34964113211E+03  0.44424258317E+03  0.26302624960E+03 0.  0.
         25    1    3    3    0    0 -0.51829499250E+01  0.76765099411E+02 -0.47258177809E+03  0.49487451798E+03  0.12509000000E+03 0.  0.
         25    1    4    4    0    0  0.14357405481E+02 -0.63283494827E+02 -0.23374343638E+03  0.27293669222E+03  0.12509000000E+03 0.  0.
         25    1    4    4    0    0 -0.91744555556E+01 -0.13481604584E+02 -0.11589769573E+03  0.17130589094E+03  0.12509000000E+03 0.  0.
<mgrwt>
<rscale>  2 0.45375149E+03</rscale>
<asrwt>0</asrwt>
<pdfrwt beam="1">  1       21 0.85951618E-02 0.45375149E+03</pdfrwt>
<pdfrwt beam="2">  1       21 0.12951028E+00 0.45375149E+03</pdfrwt>
<totfact> 0.41993188E+04</totfact>
</mgrwt>
</event>
<event>
 7    0  0.4779893E-002  0.4562794E+03  0.7546771E-02  0.1025866E+00
         21   -1    0    0  502  501  0.00000000000E+00  0.00000000000E+00  0.42884058808E+03  0.42884058808E+03  0.00000000000E+00 0.  1.
         21   -1    0    0  501  502 -0.00000000000E+00 -0.00000000000E+00 -0.12136848370E+03  0.12136848370E+03  0.00000000000E+00 0.  1.
      99926    2    1    2    0    0  0.00000000000E+00  0.00000000000E+00  0.30747210437E+03  0.55020907178E+03  0.45627944037E+03 0.  0.
      99925    2    3    3    0    0 -0.40725505126E+02 -0.92401167556E+02  0.25791510974E+03  0.38198319283E+03  0.26304830970E+03 0.  0.
         25    1    4    4    0    0 -0.36239557824E+02 -0.53517137204E+02  0.18338772665E+03  0.23120544092E+03  0.12509000000E+03 0.  0.
         25    1    4    4    0    0 -0.44859473020E+01 -0.38884030351E+02  0.74527383089E+02  0.15077775191E+03  0.12509000000E+03 0.  0.
         25    1    3    3    0    0  0.40725505126E+02  0.92401167556E+02  0.49556994634E+02  0.16822587896E+03  0.12509000000E+03 0.  0.
<mgrwt>
<rscale>  2 0.45627944E+03</rscale>
<asrwt>0</asrwt>
<pdfrwt beam="1">  1       21 0.63064792E-01 0.45627944E+03</pdfrwt>
<pdfrwt beam="2">  1       21 0.17848307E-01 0.45627944E+03</pdfrwt>
<totfact> 0.61230517E+04</totfact>
</mgrwt>
</event>
<event>
 7    0  0.4779893E-002  0.4429284E+03  0.7546771E-02  0.1029852E+00
         21   -1    0    0  502  501  0.00000000000E+00  0.00000000000E+00  0.73062429935E+03  0.73062429935E+03  0.00000000000E+00 0.  1.
         21   -1    0    0  501  502 -0.00000000000E+00 -0.00000000000E+00 -0.67129434200E+02  0.67129434200E+02  0.00000000000E+00 0.  1.
      99926    2    1    2    0    0  0.00000000000E+00  0.00000000000E+00  0.66349486515E+03  0.79775373355E+03  0.44292841782E+03 0.  0.
      99925    2    3    3    0    0  0.75877435463E+02 -0.16441997143E+02  0.30429404883E+03  0.40955216345E+03  0.26288853522E+03 0.  0.
         25    1    4    4    0    0  0.32772406830E+02 -0.47071546274E+02  0.16769696391E+03  0.21693211132E+03  0.12509000000E+03 0.  0.
         25    1    3    3    0    0 -0.75877435463E+02  0.16441997143E+02  0.35920081633E+03  0.38820157010E+03  0.12509000000E+03 0.  0.
         25    1    4    4    0    0  0.43105028633E+02  0.30629549131E+02  0.13659708492E+03  0.19262005213E+03  0.12509000000E+03 0.  0.
<mgrwt>
<rscale>  2 0.44292842E+03</rscale>
<asrwt>0</asrwt>
<pdfrwt beam="1">  1       21 0.10744475E+00 0.44292842E+03</pdfrwt>
<pdfrwt beam="2">  1       21 0.98719760E-02 0.44292842E+03</pdfrwt>
<totfact> 0.52690961E+04</totfact>
</mgrwt>
</event>
<event>
 7    0  0.4779893E-002  0.4531706E+03  0.7546771E-02  0.1026781E+00
         21   -1    0    0  502  501  0.00000000000E+00  0.00000000000E+00  0.56485027184E+03  0.56485027184E+03  0.00000000000E+00 0. -1.
         21   -1    0    0  501  502 -0.00000000000E+00 -0.00000000000E+00 -0.90892921941E+02  0.90892921941E+02  0.00000000000E+00 0. -1.
      99926    2    1    2    0    0  0.00000000000E+00  0.00000000000E+00  0.47395734990E+03  0.65574319379E+03  0.45317057127E+03 0.  0.
      99925    2    3    3    0    0  0.74140228801E+02  0.23540010227E+02  0.18313975986E+03  0.32974735886E+03  0.26294912707E+03 0.  0.
         25    1    3    3    0    0 -0.74140228801E+02 -0.23540010227E+02  0.29081759005E+03  0.32599583492E+03  0.12509000000E+03 0.  0.
         25    1    4    4    0    0  0.37471429969E+02  0.53005626058E+01  0.43227228997E+02  0.13765284398E+03  0.12509000000E+03 0.  0.
         25    1    4    4    0    0  0.36668798832E+02  0.18239447621E+02  0.13991253086E+03  0.19209451489E+03  0.12509000000E+03 0.  0.
<mgrwt>
<rscale>  2 0.45317057E+03</rscale>
<asrwt>0</asrwt>
<pdfrwt beam="1">  1       21 0.83066215E-01 0.45317057E+03</pdfrwt>
<pdfrwt beam="2">  1       21 0.13366606E-01 0.45317057E+03</pdfrwt>
<totfact> 0.56178041E+04</totfact>
</mgrwt>
</event>
<event>
 7    0  0.4779893E-002  0.4613477E+03  0.7546771E-02  0.1024391E+00
         21   -1    0    0  502  501  0.00000000000E+00  0.00000000000E+00  0.34432554158E+03  0.34432554158E+03  0.00000000000E+00 0. -1.
         21   -1    0    0  501  502 -0.00000000000E+00 -0.00000000000E+00 -0.15453523699E+03  0.15453523699E+03  0.00000000000E+00 0. -1.
      99926    2    1    2    0    0  0.14210854715E-13  0.00000000000E+00  0.18979030458E+03  0.49886077857E+03  0.46134771776E+03 0.  0.
      99925    2    3    3    0    0  0.11027638242E+03 -0.41604484240E+02  0.10082799268E+03  0.30533141473E+03  0.26300033286E+03 0.  0.
         25    1    4    4    0    0  0.56721459231E+02 -0.58875640393E+02  0.36484162663E+02  0.15382544391E+03  0.12509000000E+03 0.  0.
         25    1    3    3    0    0 -0.11027638242E+03  0.41604484240E+02  0.88962311908E+02  0.19352936384E+03  0.12509000000E+03 0.  0.
         25    1    4    4    0    0  0.53554923190E+02  0.17271156154E+02  0.64343830013E+02  0.15150597082E+03  0.12509000000E+03 0.  0.
<mgrwt>
<rscale>  2 0.46134772E+03</rscale>
<asrwt>0</asrwt>
<pdfrwt beam="1">  1       21 0.50636109E-01 0.46134772E+03</pdfrwt>
<pdfrwt beam="2">  1       21 0.22725770E-01 0.46134772E+03</pdfrwt>
<totfact> 0.62158947E+04</totfact>
</mgrwt>
</event>
<event>
 7    0  0.4779893E-002  0.4508546E+03  0.7546771E-02  0.1027468E+00
         21   -1    0    0  502  501  0.00000000000E+00  0.00000000000E+00  0.58202000852E+02  0.58202000852E+02  0.00000000000E+00 0. -1.
         21   -1    0    0  501  502 -0.00000000000E+00 -0.00000000000E+00 -0.87312222193E+03  0.87312222193E+03  0.00000000000E+00 0. -1.
      99926    2    1    2    0    0  0.00000000000E+00  0.00000000000E+00 -0.81492022108E+03  0.93132422278E+03  0.45085456770E+03 0.  0.
      99925    2    3    3    0    0 -0.85367863583E+02 -0.95426921620E+01 -0.37550274932E+03  0.46644363845E+03  0.26303729392E+03 0.  0.
         25    1    4    4    0    0 -0.82572113571E+02  0.61464250379E+01 -0.21917617679E+03  0.26559675648E+03  0.12509000000E+03 0.  0.
         25    1    3    3    0    0  0.85367863583E+02  0.95426921620E+01 -0.43941747175E+03  0.46488058433E+03  0.12509000000E+03 0.  0.
         25    1    4    4    0    0 -0.27957500118E+01 -0.15689117200E+02 -0.15632657254E+03  0.20084688197E+03  0.12509000000E+03 0.  0.
<mgrwt>
<rscale>  2 0.45085457E+03</rscale>
<asrwt>0</asrwt>
<pdfrwt beam="1">  1       21 0.85591179E-02 0.45085457E+03</pdfrwt>
<pdfrwt beam="2">  1       21 0.12840032E+00 0.45085457E+03</pdfrwt>
<totfact> 0.43293194E+04</totfact>
</mgrwt>
</event>
<event>
 7    0  0.4779893E-002  0.4523453E+03  0.7546771E-02  0.1027025E+00
         21   -1    0    0  502  501  0.00000000000E+00  0.00000000000E+00  0.41704574206E+02  0.41704574206E+02  0.00000000000E+00 0.  1.
         21   -1    0    0  501  502 -0.00000000000E+00 -0.00000000000E+00 -0.12265818109E+04  0.12265818109E+04  0.00000000000E+00 0.  1.
      99926    2    1    2    0    0  0.00000000000E+00  0.00000000000E+00 -0.11848772367E+04  0.12682863851E+04  0.45234532009E+03 0.  0.
      99925    2    3    3    0    0  0.46145558377E+02  0.99994008355E+02 -0.71768280963E+03  0.77225578620E+03  0.26302503649E+03 0.  0.
         25    1    4    4    0    0  0.27006729134E+02  0.21486082165E+02 -0.41685732304E+03  0.43658739219E+03  0.12509000000E+03 0.  0.
         25    1    3    3    0    0 -0.46145558377E+02 -0.99994008355E+02 -0.46719442704E+03  0.49603059887E+03  0.12509000000E+03 0.  0.
         25    1    4    4    0    0  0.19138829243E+02  0.78507926190E+02 -0.30082548659E+03  0.33566839401E+03  0.12509000000E+03 0.  0.
<mgrwt>
<rscale>  2 0.45234532E+03</rscale>
<asrwt>0</asrwt>
<pdfrwt beam="1">  1       21 0.61330260E-02 0.45234532E+03</pdfrwt>
<pdfrwt beam="2">  1       21 0.18037967E+00 0.45234532E+03</pdfrwt>
<totfact> 0.30678801E+04</totfact>
</mgrwt>
</event>
<event>
 7    0  0.4779893E-002  0.4713874E+03  0.7546771E-02  0.1021529E+00
         21   -1    0    0  502  501  0.00000000000E+00  0.00000000000E+00  0.40523106216E+02  0.40523106216E+02  0.00000000000E+00 0. -1.
         21   -1    0    0  501  502 -0.00000000000E+00 -0.00000000000E+00 -0.13708602591E+04  0.13708602591E+04  0.00000000000E+00 0. -1.
      99926    2    1    2    0    0  0.35527136788E-14  0.00000000000E+00 -0.13303371529E+04  0.14113833653E+04  0.47138738162E+03 0.  0.
      99925    2    3    3    0    0 -0.21596666332E+02 -0.37735170509E+02 -0.46466136445E+03  0.53563657664E+03  0.26288019997E+03 0.  0.
         25    1    3    3    0    0  0.21596666332E+02  0.37735170509E+02 -0.86567578845E+03  0.87574678869E+03  0.12509000000E+03 0.  0.
         25    1    4    4    0    0 -0.29145712076E+02 -0.53167224467E+02 -0.21827445872E+03  0.25878074449E+03  0.12509000000E+03 0.  0.
         25    1    4    4    0    0  0.75490457441E+01  0.15432053959E+02 -0.24638690573E+03  0.27685583215E+03  0.12509000000E+03 0.  0.
<mgrwt>
<rscale>  2 0.47138738E+03</rscale>
<asrwt>0</asrwt>
<pdfrwt beam="1">  1       21 0.59592807E-02 0.47138738E+03</pdfrwt>
<pdfrwt beam="2">  1       21 0.20159708E+00 0.47138738E+03</pdfrwt>
<totfact> 0.22963796E+04</totfact>
</mgrwt>
</event>
<event>
 7    0  0.4779893E-002  0.4564857E+03  0.7546771E-02  0.1025805E+00
         21   -1    0    0  502  501  0.00000000000E+00  0.00000000000E+00  0.77093244571E+03  0.77093244571E+03  0.00000000000E+00 0.  1.
         21   -1    0    0  501  502 -0.00000000000E+00 -0.00000000000E+00 -0.67573759354E+02  0.67573759354E+02  0.00000000000E+00 0.  1.
      99926    2    1    2    0    0  0.00000000000E+00 -0.17763568394E-14  0.70335868635E+03  0.83850620506E+03  0.45648572186E+03 0.  0.
      99925    2    3    3    0    0 -0.11115671546E+03 -0.11271058970E+02  0.48504352059E+03  0.56320296886E+03  0.26352896444E+03 0.  0.
         25    1    4    4    0    0 -0.56139262363E+02  0.10503603867E+02  0.16679195411E+03  0.21616893053E+03  0.12509000000E+03 0.  0.
         25    1    3    3    0    0  0.11115671546E+03  0.11271058970E+02  0.21831516576E+03  0.27530323620E+03  0.12509000000E+03 0.  0.
         25    1    4    4    0    0 -0.55017453098E+02 -0.21774662837E+02  0.31825156648E+03  0.34703403833E+03  0.12509000000E+03 0.  0.
<mgrwt>
<rscale>  2 0.45648572E+03</rscale>
<asrwt>0</asrwt>
<pdfrwt beam="1">  1       21 0.11337241E+00 0.45648572E+03</pdfrwt>
<pdfrwt beam="2">  1       21 0.99373180E-02 0.45648572E+03</pdfrwt>
<totfact> 0.45426177E+04</totfact>
</mgrwt>
</event>
<event>
 7    0  0.4779893E-002  0.4614500E+03  0.7546771E-02  0.1024362E+00
         21   -1    0    0  502  501  0.00000000000E+00  0.00000000000E+00  0.10647296628E+03  0.10647296628E+03  0.00000000000E+00 0.  1.
         21   -1    0    0  501  502 -0.00000000000E+00 -0.00000000000E+00 -0.49997696621E+03  0.49997696621E+03  0.00000000000E+00 0.  1.
      99926    2    1    2    0    0  0.00000000000E+00 -0.14210854715E-13 -0.39350399993E+03  0.60644993249E+03  0.46145002185E+03 0.  0.
      99925    2    3    3    0    0 -0.86297845817E+02  0.66689481898E+02 -0.30940821078E+03  0.42040043628E+03  0.26288453880E+03 0.  0.
         25    1    3    3    0    0  0.86297845817E+02 -0.66689481898E+02 -0.84095789146E+02  0.18604949621E+03  0.12509000000E+03 0.  0.
         25    1    4    4    0    0 -0.41302070055E+02  0.54526748221E+02 -0.21059272498E+03  0.25431443368E+03  0.12509000000E+03 0.  0.
         25    1    4    4    0    0 -0.44995775762E+02  0.12162733677E+02 -0.98815485801E+02  0.16608600260E+03  0.12509000000E+03 0.  0.
<mgrwt>
<rscale>  2 0.46145002E+03</rscale>
<asrwt>0</asrwt>
<pdfrwt beam="1">  1       21 0.15657789E-01 0.46145002E+03</pdfrwt>
<pdfrwt beam="2">  1       21 0.73526025E-01 0.46145002E+03</pdfrwt>
<totfact> 0.55405367E+04</totfact>
</mgrwt>
</event>
<event>
 7    0  0.4779893E-002  0.4585975E+03  0.7546771E-02  0.1025189E+00
         21   -1    0    0  502  501  0.00000000000E+00  0.00000000000E+00  0.18319832678E+04  0.18319832678E+04  0.00000000000E+00 0. -1.
         21   -1    0    0  501  502 -0.00000000000E+00 -0.00000000000E+00 -0.28699997866E+02  0.28699997866E+02  0.00000000000E+00 0. -1.
      99926    2    1    2    0    0  0.35527136788E-14  0.00000000000E+00  0.18032832699E+04  0.18606832656E+04  0.45859749618E+03 0.  0.
      99925    2    3    3    0    0  0.14943533896E+02 -0.11388113459E+03  0.12051178948E+04  0.12388781948E+04  0.26328277424E+03 0.  0.
         25    1    3    3    0    0 -0.14943533896E+02  0.11388113459E+03  0.59816537514E+03  0.62180507085E+03  0.12509000000E+03 0.  0.
         25    1    4    4    0    0 -0.33540778180E+02 -0.58386283814E+02  0.59822299345E+03  0.61485949609E+03  0.12509000000E+03 0.  0.
         25    1    4    4    0    0  0.48484312077E+02 -0.55494850776E+02  0.60689490131E+03  0.62401869869E+03  0.12509000000E+03 0.  0.
<mgrwt>
<rscale>  2 0.45859750E+03</rscale>
<asrwt>0</asrwt>
<pdfrwt beam="1">  1       21 0.26940923E+00 0.45859750E+03</pdfrwt>
<pdfrwt beam="2">  1       21 0.42205891E-02 0.45859750E+03</pdfrwt>
<totfact> 0.15678471E+04</totfact>
</mgrwt>
</event>
<event>
 7    0  0.4779893E-002  0.4509177E+03  0.7546771E-02  0.1027449E+00
         21   -1    0    0  502  501  0.00000000000E+00  0.00000000000E+00  0.68656697199E+02  0.68656697199E+02  0.00000000000E+00 0.  1.
         21   -1    0    0  501  502 -0.00000000000E+00 -0.00000000000E+00 -0.74037472771E+03  0.74037472771E+03  0.00000000000E+00 0.  1.
      99926    2    1    2    0    0  0.00000000000E+00  0.00000000000E+00 -0.67171803051E+03  0.80903142491E+03  0.45091765765E+03 0.  0.
      99925    2    3    3    0    0 -0.43716877623E+02  0.99860242700E+02 -0.43775320527E+03  0.52220346077E+03  0.26303108610E+03 0.  0.
         25    1    3    3    0    0  0.43716877623E+02 -0.99860242700E+02 -0.23396482524E+03  0.28682796414E+03  0.12509000000E+03 0.  0.
         25    1    4    4    0    0 -0.23245376077E+02  0.68818398079E+02 -0.29644870322E+03  0.32985703140E+03  0.12509000000E+03 0.  0.
         25    1    4    4    0    0 -0.20471501547E+02  0.31041844622E+02 -0.14130450206E+03  0.19234642938E+03  0.12509000000E+03 0.  0.
<mgrwt>
<rscale>  2 0.45091766E+03</rscale>
<asrwt>0</asrwt>
<pdfrwt beam="1">  1       21 0.10096573E-01 0.45091766E+03</pdfrwt>
<pdfrwt beam="2">  1       21 0.10887864E+00 0.45091766E+03</pdfrwt>
<totfact> 0.48878189E+04</totfact>
</mgrwt>
</event>
<event>
 7    0  0.4779893E-002  0.3899724E+03  0.7546771E-02  0.1047308E+00
         21   -1    0    0  502  501  0.00000000000E+00  0.00000000000E+00  0.43715161934E+02  0.43715161934E+02  0.00000000000E+00 0.  1.
         21   -1    0    0  501  502 -0.00000000000E+00 -0.00000000000E+00 -0.86971236895E+03  0.86971236895E+03  0.00000000000E+00 0.  1.
      99926    2    1    2    0    0  0.53290705182E-14  0.17763568394E-14 -0.82599720701E+03  0.91342753088E+03  0.38997239412E+03 0.  0.
      99925    2    3    3    0    0  0.77446515348E+01  0.12375694857E+02 -0.53326335560E+03  0.59475253450E+03  0.26295937600E+03 0.  0.
         25    1    4    4    0    0  0.43634682089E+02  0.76452694545E+00 -0.25615970642E+03  0.28839187450E+03  0.12509000000E+03 0.  0.
         25    1    4    4    0    0 -0.35890030554E+02  0.11611167912E+02 -0.27710364918E+03  0.30636066001E+03  0.12509000000E+03 0.  0.
         25    1    3    3    0    0 -0.77446515348E+01 -0.12375694857E+02 -0.29273385142E+03  0.31867499638E+03  0.12509000000E+03 0.  0.
<mgrwt>
<rscale>  2 0.38997239E+03</rscale>
<asrwt>0</asrwt>
<pdfrwt beam="1">  1       21 0.64287005E-02 0.38997239E+03</pdfrwt>
<pdfrwt beam="2">  1       21 0.12789887E+00 0.38997239E+03</pdfrwt>
<totfact> 0.73534023E+04</totfact>
</mgrwt>
</event>
<event>
 7    0  0.4779893E-002  0.4656813E+03  0.7546771E-02  0.1023146E+00
         21   -1    0    0  502  501  0.00000000000E+00  0.00000000000E+00  0.13685657714E+03  0.13685657714E+03  0.00000000000E+00 0. -1.
         21   -1    0    0  501  502 -0.00000000000E+00 -0.00000000000E+00 -0.39614301318E+03  0.39614301318E+03  0.00000000000E+00 0. -1.
      99926    2    1    2    0    0  0.14210854715E-13  0.00000000000E+00 -0.25928643604E+03  0.53299959032E+03  0.46568133671E+03 0.  0.
      99925    2    3    3    0    0  0.79747658198E+02  0.62695967820E+02 -0.80868003204E+02  0.29264335751E+03  0.26231665480E+03 0.  0.
         25    1    4    4    0    0  0.66874356026E+02  0.63264471420E+02 -0.39428276546E+02  0.16023941441E+03  0.12509000000E+03 0.  0.
         25    1    4    4    0    0  0.12873302173E+02 -0.56850360023E+00 -0.41439726657E+02  0.13240394311E+03  0.12509000000E+03 0.  0.
         25    1    3    3    0    0 -0.79747658198E+02 -0.62695967820E+02 -0.17841843284E+03  0.24035623280E+03  0.12509000000E+03 0.  0.
<mgrwt>
<rscale>  2 0.46568134E+03</rscale>
<asrwt>0</asrwt>
<pdfrwt beam="1">  1       21 0.20125967E-01 0.46568134E+03</pdfrwt>
<pdfrwt beam="2">  1       21 0.58256325E-01 0.46568134E+03</pdfrwt>
<totfact> 0.57940545E+04</totfact>
</mgrwt>
</event>
<event>
 7    0  0.4779893E-002  0.4538402E+03  0.7546771E-02  0.1026583E+00
         21   -1    0    0  502  501  0.00000000000E+00  0.00000000000E+00  0.94323537127E+02  0.94323537127E+02  0.00000000000E+00 0. -1.
         21   -1    0    0  501  502 -0.00000000000E+00 -0.00000000000E+00 -0.54591595470E+03  0.54591595470E+03  0.00000000000E+00 0. -1.
      99926    2    1    2    0    0  0.00000000000E+00 -0.71054273576E-14 -0.45159241758E+03  0.64023949183E+03  0.45384016491E+03 0.  0.
      99925    2    3    3    0    0 -0.88173810854E+02  0.45521237976E+02 -0.21077179134E+03  0.35129505747E+03  0.26293852009E+03 0.  0.
         25    1    4    4    0    0 -0.14354994652E+02  0.50009145697E+02 -0.10902531772E+03  0.17389942073E+03  0.12509000000E+03 0.  0.
         25    1    4    4    0    0 -0.73818816202E+02 -0.44879077210E+01 -0.10174647362E+03  0.17739563674E+03  0.12509000000E+03 0.  0.
         25    1    3    3    0    0  0.88173810854E+02 -0.45521237976E+02 -0.24082062624E+03  0.28894443436E+03  0.12509000000E+03 0.  0.
<mgrwt>
<rscale>  2 0.45384016E+03</rscale>
<asrwt>0</asrwt>
<pdfrwt beam="1">  1       21 0.13871108E-01 0.45384016E+03</pdfrwt>
<pdfrwt beam="2">  1       21 0.80281760E-01 0.45384016E+03</pdfrwt>
<totfact> 0.56785279E+04</totfact>
</mgrwt>
</event>
<event>
 7    0  0.4779893E-002  0.4544654E+03  0.7546771E-02  0.1026399E+00
         21   -1    0    0  502  501  0.00000000000E+00  0.00000000000E+00  0.11413515188E+03  0.11413515188E+03  0.00000000000E+00 0.  1.
         21   -1    0    0  501  502 -0.00000000000E+00 -0.00000000000E+00 -0.45239953892E+03  0.45239953892E+03  0.00000000000E+00 0.  1.
      99926    2    1    2    0    0  0.00000000000E+00  0.00000000000E+00 -0.33826438704E+03  0.56653469079E+03  0.45446535658E+03 0.  0.
      99925    2    3    3    0    0  0.16143840198E+02 -0.96816944817E+02 -0.14410922581E+03  0.31558075257E+03  0.26303915687E+03 0.  0.
         25    1    4    4    0    0  0.20168343554E+02 -0.90583766639E+01 -0.77804782377E+02  0.14896277565E+03  0.12509000000E+03 0.  0.
         25    1    4    4    0    0 -0.40245033565E+01 -0.87758568153E+02 -0.66304443436E+02  0.16661797691E+03  0.12509000000E+03 0.  0.
         25    1    3    3    0    0 -0.16143840198E+02  0.96816944817E+02 -0.19415516123E+03  0.25095393823E+03  0.12509000000E+03 0.  0.
<mgrwt>
<rscale>  2 0.45446536E+03</rscale>
<asrwt>0</asrwt>
<pdfrwt beam="1">  1       21 0.16784581E-01 0.45446536E+03</pdfrwt>
<pdfrwt beam="2">  1       21 0.66529344E-01 0.45446536E+03</pdfrwt>
<totfact> 0.61044631E+04</totfact>
</mgrwt>
</event>
<event>
 7    0  0.4779893E-002  0.4642627E+03  0.7546771E-02  0.1023552E+00
         21   -1    0    0  502  501  0.00000000000E+00  0.00000000000E+00  0.60885619218E+03  0.60885619218E+03  0.00000000000E+00 0.  1.
         21   -1    0    0  501  502 -0.00000000000E+00 -0.00000000000E+00 -0.88501947740E+02  0.88501947740E+02  0.00000000000E+00 0.  1.
      99926    2    1    2    0    0  0.00000000000E+00 -0.71054273576E-14  0.52035424444E+03  0.69735813992E+03  0.46426267953E+03 0.  0.
      99925    2    3    3    0    0 -0.10965002362E+03  0.34444463642E+02  0.26605546215E+03  0.39153968473E+03  0.26326463307E+03 0.  0.
         25    1    4    4    0    0 -0.18333570794E+02  0.35806346792E+02  0.13828768312E+03  0.19075954941E+03  0.12509000000E+03 0.  0.
         25    1    4    4    0    0 -0.91316452831E+02 -0.13618831498E+01  0.12776777903E+03  0.20078013532E+03  0.12509000000E+03 0.  0.
         25    1    3    3    0    0  0.10965002362E+03 -0.34444463642E+02  0.25429878230E+03  0.30581845519E+03  0.12509000000E+03 0.  0.
<mgrwt>
<rscale>  2 0.46426268E+03</rscale>
<asrwt>0</asrwt>
<pdfrwt beam="1">  1       21 0.89537673E-01 0.46426268E+03</pdfrwt>
<pdfrwt beam="2">  1       21 0.13014993E-01 0.46426268E+03</pdfrwt>
<totfact> 0.49348821E+04</totfact>
</mgrwt>
</event>
<event>
 7    0  0.4779893E-002  0.4471846E+03  0.7546771E-02  0.1028565E+00
         21   -1    0    0  502  501  0.00000000000E+00  0.00000000000E+00  0.32204746464E+03  0.32204746464E+03  0.00000000000E+00 0. -1.
         21   -1    0    0  501  502 -0.00000000000E+00 -0.00000000000E+00 -0.15523649900E+03  0.15523649900E+03  0.00000000000E+00 0. -1.
      99926    2    1    2    0    0 -0.71054273576E-14 -0.88817841970E-15  0.16681096563E+03  0.47728396364E+03  0.44718461925E+03 0.  0.
      99925    2    3    3    0    0  0.43230839761E+02  0.52951143826E+01  0.28472435206E+01  0.26650314380E+03  0.26290468827E+03 0.  0.
         25    1    3    3    0    0 -0.43230839761E+02 -0.52951143826E+01  0.16396372211E+03  0.21078081984E+03  0.12509000000E+03 0.  0.
         25    1    4    4    0    0 -0.25864684882E+01  0.17460228050E+01 -0.31196780236E+02  0.12895924012E+03  0.12509000000E+03 0.  0.
         25    1    4    4    0    0  0.45817308249E+02  0.35490915776E+01  0.34044023757E+02  0.13754390368E+03  0.12509000000E+03 0.  0.
<mgrwt>
<rscale>  2 0.44718462E+03</rscale>
<asrwt>0</asrwt>
<pdfrwt beam="1">  1       21 0.47359921E-01 0.44718462E+03</pdfrwt>
<pdfrwt beam="2">  1       21 0.22828897E-01 0.44718462E+03</pdfrwt>
<totfact> 0.71214805E+04</totfact>
</mgrwt>
</event>
<event>
 7    0  0.4779893E-002  0.4392420E+03  0.7546771E-02  0.1030980E+00
         21   -1    0    0  502  501  0.00000000000E+00  0.00000000000E+00  0.61921294532E+02  0.61921294532E+02  0.00000000000E+00 0. -1.
         21   -1    0    0  501  502 -0.00000000000E+00 -0.00000000000E+00 -0.77894663695E+03  0.77894663695E+03  0.00000000000E+00 0. -1.
      99926    2    1    2    0    0  0.35527136788E-14  0.00000000000E+00 -0.71702534242E+03  0.84086793148E+03  0.43924200223E+03 0.  0.
      99925    2    3    3    0    0 -0.22729554850E+02 -0.58720685655E+02 -0.31479559929E+03  0.41495593829E+03  0.26292091930E+03 0.  0.
         25    1    4    4    0    0 -0.29409770115E+02 -0.59146882335E+02 -0.13288620915E+03  0.19408642650E+03  0.12509000000E+03 0.  0.
         25    1    4    4    0    0  0.66802152652E+01  0.42619667931E+00 -0.18190939014E+03  0.22086951179E+03  0.12509000000E+03 0.  0.
         25    1    3    3    0    0  0.22729554850E+02  0.58720685655E+02 -0.40222974313E+03  0.42591199319E+03  0.12509000000E+03 0.  0.
<mgrwt>
<rscale>  2 0.43924200E+03</rscale>
<asrwt>0</asrwt>
<pdfrwt beam="1">  1       21 0.91060726E-02 0.43924200E+03</pdfrwt>
<pdfrwt beam="2">  1       21 0.11455098E+00 0.43924200E+03</pdfrwt>
<totfact> 0.51985440E+04</totfact>
</mgrwt>
</event>
<event>
 7    0  0.4779893E-002  0.4495048E+03  0.7546771E-02  0.1027870E+00
         21   -1    0    0  502  501  0.00000000000E+00  0.00000000000E+00  0.98715450533E+03  0.98715450533E+03  0.00000000000E+00 0.  1.
         21   -1    0    0  501  502 -0.00000000000E+00 -0.00000000000E+00 -0.51170954941E+02  0.51170954941E+02  0.00000000000E+00 0.  1.
      99926    2    1    2    0    0  0.00000000000E+00  0.00000000000E+00  0.93598355039E+03  0.10383254603E+04  0.44950478846E+03 0.  0.
      99925    2    3    3    0    0 -0.85893273013E+02 -0.58149325549E+02  0.66050711645E+03  0.71849148433E+03  0.26306152087E+03 0.  0.
         25    1    4    4    0    0 -0.56514167028E+02  0.33449406906E+01  0.37664007750E+03  0.40088688651E+03  0.12509000000E+03 0.  0.
         25    1    3    3    0    0  0.85893273013E+02  0.58149325549E+02  0.27547643394E+03  0.31983397594E+03  0.12509000000E+03 0.  0.
         25    1    4    4    0    0 -0.29379105985E+02 -0.61494266239E+02  0.28386703896E+03  0.31760459782E+03  0.12509000000E+03 0.  0.
<mgrwt>
<rscale>  2 0.44950479E+03</rscale>
<asrwt>0</asrwt>
<pdfrwt beam="1">  1       21 0.14516977E+00 0.44950479E+03</pdfrwt>
<pdfrwt beam="2">  1       21 0.75251411E-02 0.44950479E+03</pdfrwt>
<totfact> 0.39370653E+04</totfact>
</mgrwt>
</event>
<event>
 7    0  0.4779893E-002  0.4586205E+03  0.7546771E-02  0.1025182E+00
         21   -1    0    0  502  501  0.00000000000E+00  0.00000000000E+00  0.88274424286E+02  0.88274424286E+02  0.00000000000E+00 0. -1.
         21   -1    0    0  501  502 -0.00000000000E+00 -0.00000000000E+00 -0.59567861226E+03  0.59567861226E+03  0.00000000000E+00 0. -1.
      99926    2    1    2    0    0 -0.35527136788E-14  0.44408920985E-15 -0.50740418797E+03  0.68395303655E+03  0.45862048169E+03 0.  0.
      99925    2    3    3    0    0  0.30121297634E+02 -0.32428113865E+01 -0.48612118348E+03  0.55349889603E+03  0.26292473160E+03 0.  0.
         25    1    4    4    0    0  0.24692718164E+02  0.53907029541E+01 -0.16408396278E+03  0.20786977883E+03  0.12509000000E+03 0.  0.
         25    1    4    4    0    0  0.54285794694E+01 -0.86335143406E+01 -0.32203722070E+03  0.34562911720E+03  0.12509000000E+03 0.  0.
         25    1    3    3    0    0 -0.30121297634E+02  0.32428113865E+01 -0.21283004497E+02  0.13045414051E+03  0.12509000000E+03 0.  0.
<mgrwt>
<rscale>  2 0.45862048E+03</rscale>
<asrwt>0</asrwt>
<pdfrwt beam="1">  1       21 0.12981533E-01 0.45862048E+03</pdfrwt>
<pdfrwt beam="2">  1       21 0.87599799E-01 0.45862048E+03</pdfrwt>
<totfact> 0.52276627E+04</totfact>
</mgrwt>
</event>
<event>
 7    0  0.4779893E-002  0.4518708E+03  0.7546771E-02  0.1027166E+00
         21   -1    0    0  502  501  0.00000000000E+00  0.00000000000E+00  0.27058137794E+03  0.27058137794E+03  0.00000000000E+00 0.  1.
         21   -1    0    0  501  502 -0.00000000000E+00 -0.00000000000E+00 -0.18865604165E+03  0.18865604165E+03  0.00000000000E+00 0.  1.
      99926    2    1    2    0    0  0.14210854715E-13  0.00000000000E+00  0.81925336292E+02  0.45923741959E+03  0.45187082980E+03 0.  0.
      99925    2    3    3    0    0 -0.74386275575E+02  0.20211635998E+02 -0.28378212546E+02  0.27550879033E+03  0.26297897706E+03 0.  0.
         25    1    3    3    0    0  0.74386275575E+02 -0.20211635998E+02  0.11030354884E+03  0.18372862926E+03  0.12509000000E+03 0.  0.
         25    1    4    4    0    0 -0.51934471987E+01 -0.14615605725E+02 -0.22127080303E+01  0.12606741054E+03  0.12509000000E+03 0.  0.
         25    1    4    4    0    0 -0.69192828376E+02  0.34827241723E+02 -0.26165504516E+02  0.14944137978E+03  0.12509000000E+03 0.  0.
<mgrwt>
<rscale>  2 0.45187083E+03</rscale>
<asrwt>0</asrwt>
<pdfrwt beam="1">  1       21 0.39791379E-01 0.45187083E+03</pdfrwt>
<pdfrwt beam="2">  1       21 0.27743535E-01 0.45187083E+03</pdfrwt>
<totfact> 0.69964263E+04</totfact>
</mgrwt>
</event>
<event>
 7    0  0.4779893E-002  0.4413277E+03  0.7546771E-02  0.1030340E+00
         21   -1    0    0  502  501  0.00000000000E+00  0.00000000000E+00  0.98232007605E+02  0.98232007605E+02  0.00000000000E+00 0. -1.
         21   -1    0    0  501  502 -0.00000000000E+00 -0.00000000000E+00 -0.49568905330E+03  0.49568905330E+03  0.00000000000E+00 0. -1.
      99926    2    1    2    0    0  0.00000000000E+00  0.35527136788E-14 -0.39745704569E+03  0.59392106090E+03  0.44132768258E+03 0.  0.
      99925    2    3    3    0    0 -0.71694354075E+02 -0.30222281992E+02 -0.33804826809E+03  0.43508033032E+03  0.26261149164E+03 0.  0.
         25    1    3    3    0    0  0.71694354075E+02  0.30222281992E+02 -0.59408777605E+02  0.15884073058E+03  0.12509000000E+03 0.  0.
         25    1    4    4    0    0 -0.15634446622E+02 -0.19961555118E+02 -0.10849034270E+03  0.16751287163E+03  0.12509000000E+03 0.  0.
         25    1    4    4    0    0 -0.56059907453E+02 -0.10260726874E+02 -0.22955792539E+03  0.26756745869E+03  0.12509000000E+03 0.  0.
<mgrwt>
<rscale>  2 0.44132768E+03</rscale>
<asrwt>0</asrwt>
<pdfrwt beam="1">  1       21 0.14445883E-01 0.44132768E+03</pdfrwt>
<pdfrwt beam="2">  1       21 0.72895450E-01 0.44132768E+03</pdfrwt>
<totfact> 0.65889401E+04</totfact>
</mgrwt>
</event>
<event>
 7    0  0.4779893E-002  0.4543590E+03  0.7546771E-02  0.1026430E+00
         21   -1    0    0  502  501  0.00000000000E+00  0.00000000000E+00  0.11803261741E+04  0.11803261741E+04  0.00000000000E+00 0. -1.
         21   -1    0    0  501  502 -0.00000000000E+00 -0.00000000000E+00 -0.43725650753E+02  0.43725650753E+02  0.00000000000E+00 0. -1.
      99926    2    1    2    0    0  0.00000000000E+00  0.00000000000E+00  0.11366005233E+04  0.12240518248E+04  0.45435902131E+03 0.  0.
      99925    2    3    3    0    0  0.74286425965E+02  0.10059514613E+02  0.48862033756E+03  0.55986397779E+03  0.26282726729E+03 0.  0.
         25    1    4    4    0    0  0.47589465070E+02  0.41781832273E+02  0.27927007536E+03  0.31248961868E+03  0.12509000000E+03 0.  0.
         25    1    3    3    0    0 -0.74286425965E+02 -0.10059514613E+02  0.64798018576E+03  0.66418784704E+03  0.12509000000E+03 0.  0.
         25    1    4    4    0    0  0.26696960895E+02 -0.31722317660E+02  0.20935026220E+03  0.24737435911E+03  0.12509000000E+03 0.  0.
<mgrwt>
<rscale>  2 0.45435902E+03</rscale>
<asrwt>0</asrwt>
<pdfrwt beam="1">  1       21 0.17357736E+00 0.45435902E+03</pdfrwt>
<pdfrwt beam="2">  1       21 0.64302435E-02 0.45435902E+03</pdfrwt>
<totfact> 0.31559806E+04</totfact>
</mgrwt>
</event>
<event>
 7    0  0.4779893E-002  0.4586943E+03  0.7546771E-02  0.1025161E+00
         21   -1    0    0  502  501  0.00000000000E+00  0.00000000000E+00  0.18154657283E+03  0.18154657283E+03  0.00000000000E+00 0.  1.
         21   -1    0    0  501  502 -0.00000000000E+00 -0.00000000000E+00 -0.28973340337E+03  0.28973340337E+03  0.00000000000E+00 0.  1.
      99926    2    1    2    0    0  0.00000000000E+00  0.00000000000E+00 -0.10818683053E+03  0.47127997620E+03  0.45869426164E+03 0.  0.
      99925    2    3    3    0    0  0.24464587354E+02 -0.66697731504E+02  0.27170715472E+02  0.27375459357E+03  0.26297571428E+03 0.  0.
         25    1    3    3    0    0 -0.24464587354E+02  0.66697731504E+02 -0.13535754601E+03  0.19752538263E+03  0.12509000000E+03 0.  0.
         25    1    4    4    0    0  0.30556629372E+01 -0.64121675802E+02 -0.11473188682E+02  0.14106760274E+03  0.12509000000E+03 0.  0.
         25    1    4    4    0    0  0.21408924417E+02 -0.25760557025E+01  0.38643904154E+02  0.13268699083E+03  0.12509000000E+03 0.  0.
<mgrwt>
<rscale>  2 0.45869426E+03</rscale>
<asrwt>0</asrwt>
<pdfrwt beam="1">  1       21 0.26698026E-01 0.45869426E+03</pdfrwt>
<pdfrwt beam="2">  1       21 0.42607853E-01 0.45869426E+03</pdfrwt>
<totfact> 0.65402992E+04</totfact>
</mgrwt>
</event>
<event>
 7    0  0.4779893E-002  0.4707298E+03  0.7546771E-02  0.1021714E+00
         21   -1    0    0  502  501  0.00000000000E+00  0.00000000000E+00  0.18159275535E+03  0.18159275535E+03  0.00000000000E+00 0. -1.
         21   -1    0    0  501  502 -0.00000000000E+00 -0.00000000000E+00 -0.30505971472E+03  0.30505971472E+03  0.00000000000E+00 0. -1.
      99926    2    1    2    0    0  0.00000000000E+00 -0.45449755071E-15 -0.12346695937E+03  0.48665247007E+03  0.47072979146E+03 0.  0.
      99925    2    3    3    0    0 -0.79800174401E+01  0.27974466846E-01 -0.20805098287E+03  0.33543856002E+03  0.26300215705E+03 0.  0.
         25    1    4    4    0    0 -0.33147658573E+02  0.89930221507E+01 -0.13881429624E+03  0.18999094362E+03  0.12509000000E+03 0.  0.
         25    1    3    3    0    0  0.79800174401E+01 -0.27974466846E-01  0.84584023501E+02  0.15121391005E+03  0.12509000000E+03 0.  0.
         25    1    4    4    0    0  0.25167641132E+02 -0.89650476839E+01 -0.69236686633E+02  0.14544761640E+03  0.12509000000E+03 0.  0.
<mgrwt>
<rscale>  2 0.47072979E+03</rscale>
<asrwt>0</asrwt>
<pdfrwt beam="1">  1       21 0.26704817E-01 0.47072979E+03</pdfrwt>
<pdfrwt beam="2">  1       21 0.44861722E-01 0.47072979E+03</pdfrwt>
<totfact> 0.58559751E+04</totfact>
</mgrwt>
</event>
<event>
 7    0  0.4779893E-002  0.4540554E+03  0.7546771E-02  0.1026520E+00
         21   -1    0    0  502  501  0.00000000000E+00  0.00000000000E+00  0.91955623810E+03  0.91955623810E+03  0.00000000000E+00 0.  1.
         21   -1    0    0  501  502 -0.00000000000E+00 -0.00000000000E+00 -0.56050500954E+02  0.56050500954E+02  0.00000000000E+00 0.  1.
      99926    2    1    2    0    0  0.00000000000E+00  0.00000000000E+00  0.86350573715E+03  0.97560673906E+03  0.45405544948E+03 0.  0.
      99925    2    3    3    0    0  0.91879008100E+02 -0.43902433333E+02  0.64800391907E+03  0.70642702682E+03  0.26222297633E+03 0.  0.
         25    1    4    4    0    0  0.12046546345E+02 -0.17674232706E+02  0.24005795345E+03  0.27153789219E+03  0.12509000000E+03 0.  0.
         25    1    4    4    0    0  0.79832461756E+02 -0.26228200627E+02  0.40794596562E+03  0.43488913464E+03  0.12509000000E+03 0.  0.
         25    1    3    3    0    0 -0.91879008100E+02  0.43902433333E+02  0.21550181809E+03  0.26917971224E+03  0.12509000000E+03 0.  0.
<mgrwt>
<rscale>  2 0.45405545E+03</rscale>
<asrwt>0</asrwt>
<pdfrwt beam="1">  1       21 0.13522885E+00 0.45405545E+03</pdfrwt>
<pdfrwt beam="2">  1       21 0.82427213E-02 0.45405545E+03</pdfrwt>
<totfact> 0.40418522E+04</totfact>
</mgrwt>
</event>
<event>
 7    0  0.4779893E-002  0.4556892E+03  0.7546771E-02  0.1026039E+00
         21   -1    0    0  502  501  0.00000000000E+00  0.00000000000E+00  0.43375164618E+02  0.43375164618E+02  0.00000000000E+00 0. -1.
         21   -1    0    0  501  502 -0.00000000000E+00 -0.00000000000E+00 -0.11968409458E+04  0.11968409458E+04  0.00000000000E+00 0. -1.
      99926    2    1    2    0    0  0.00000000000E+00  0.00000000000E+00 -0.11534657812E+04  0.12402161104E+04  0.45568924958E+03 0.  0.
      99925    2    3    3    0    0 -0.94440364942E+02  0.18609287060E+02 -0.56033988754E+03  0.62644813968E+03  0.26304219062E+03 0.  0.
         25    1    3    3    0    0  0.94440364942E+02 -0.18609287060E+02 -0.59312589367E+03  0.61376797076E+03  0.12509000000E+03 0.  0.
         25    1    4    4    0    0 -0.44924820837E+02 -0.30501155160E+02 -0.29233580086E+03  0.32257756983E+03  0.12509000000E+03 0.  0.
         25    1    4    4    0    0 -0.49515544105E+02  0.49110442220E+02 -0.26800408667E+03  0.30387056984E+03  0.12509000000E+03 0.  0.
<mgrwt>
<rscale>  2 0.45568925E+03</rscale>
<asrwt>0</asrwt>
<pdfrwt beam="1">  1       21 0.63787002E-02 0.45568925E+03</pdfrwt>
<pdfrwt beam="2">  1       21 0.17600603E+00 0.45568925E+03</pdfrwt>
<totfact> 0.30736305E+04</totfact>
</mgrwt>
</event>
<event>
 7    0  0.4779893E-002  0.4548526E+03  0.7546771E-02  0.1026285E+00
         21   -1    0    0  502  501  0.00000000000E+00  0.00000000000E+00  0.44770069863E+03  0.44770069863E+03  0.00000000000E+00 0. -1.
         21   -1    0    0  501  502 -0.00000000000E+00 -0.00000000000E+00 -0.11552966277E+03  0.11552966277E+03  0.00000000000E+00 0. -1.
      99926    2    1    2    0    0  0.00000000000E+00  0.00000000000E+00  0.33217103586E+03  0.56323036140E+03  0.45485255077E+03 0.  0.
      99925    2    3    3    0    0 -0.83015217834E+02  0.59524359009E+02  0.26901701179E+03  0.38982155377E+03  0.26297531338E+03 0.  0.
         25    1    3    3    0    0  0.83015217834E+02 -0.59524359009E+02  0.63154024066E+02  0.17340880763E+03  0.12509000000E+03 0.  0.
         25    1    4    4    0    0 -0.24889253609E+02  0.64872843274E+02  0.12062417349E+03  0.18715143620E+03  0.12509000000E+03 0.  0.
         25    1    4    4    0    0 -0.58125964225E+02 -0.53484842644E+01  0.14839283830E+03  0.20267011758E+03  0.12509000000E+03 0.  0.
<mgrwt>
<rscale>  2 0.45485255E+03</rscale>
<asrwt>0</asrwt>
<pdfrwt beam="1">  1       21 0.65838337E-01 0.45485255E+03</pdfrwt>
<pdfrwt beam="2">  1       21 0.16989657E-01 0.45485255E+03</pdfrwt>
<totfact> 0.61071805E+04</totfact>
</mgrwt>
</event>
<event>
 7    0  0.4779893E-002  0.4569231E+03  0.7546771E-02  0.1025677E+00
         21   -1    0    0  502  501  0.00000000000E+00  0.00000000000E+00  0.29272570052E+03  0.29272570052E+03  0.00000000000E+00 0.  1.
         21   -1    0    0  501  502 -0.00000000000E+00 -0.00000000000E+00 -0.17830576155E+03  0.17830576155E+03  0.00000000000E+00 0.  1.
      99926    2    1    2    0    0  0.00000000000E+00  0.00000000000E+00  0.11441993897E+03  0.47103146207E+03  0.45692309618E+03 0.  0.
      99925    2    3    3    0    0 -0.45542205689E+02  0.34921071181E+02 -0.30805409341E+02  0.27095276854E+03  0.26300733036E+03 0.  0.
         25    1    3    3    0    0  0.45542205689E+02 -0.34921071181E+02  0.14522534831E+03  0.20007869353E+03  0.12509000000E+03 0.  0.
         25    1    4    4    0    0 -0.25226775085E+02  0.73207584282E+01  0.24169337013E+02  0.13008323734E+03  0.12509000000E+03 0.  0.
         25    1    4    4    0    0 -0.20315430603E+02  0.27600312753E+02 -0.54974746355E+02  0.14086953120E+03  0.12509000000E+03 0.  0.
<mgrwt>
<rscale>  2 0.45692310E+03</rscale>
<asrwt>0</asrwt>
<pdfrwt beam="1">  1       21 0.43047897E-01 0.45692310E+03</pdfrwt>
<pdfrwt beam="2">  1       21 0.26221436E-01 0.45692310E+03</pdfrwt>
<totfact> 0.66341220E+04</totfact>
</mgrwt>
</event>
<event>
 7    0  0.4779893E-002  0.4468906E+03  0.7546771E-02  0.1028653E+00
         21   -1    0    0  502  501  0.00000000000E+00  0.00000000000E+00  0.46426697238E+02  0.46426697238E+02  0.00000000000E+00 0.  1.
         21   -1    0    0  501  502 -0.00000000000E+00 -0.00000000000E+00 -0.10754115202E+04  0.10754115202E+04  0.00000000000E+00 0.  1.
      99926    2    1    2    0    0 -0.14210854715E-13 -0.57731597281E-14 -0.10289848229E+04  0.11218382174E+04  0.44689061326E+03 0.  0.
      99925    2    3    3    0    0 -0.64688239993E+02  0.35784319306E+01 -0.44337871707E+03  0.51952651000E+03  0.26291773289E+03 0.  0.
         25    1    3    3    0    0  0.64688239993E+02 -0.35784319306E+01 -0.58560610587E+03  0.60231170743E+03  0.12509000000E+03 0.  0.
         25    1    4    4    0    0 -0.53893426973E+02 -0.32317514286E+02 -0.21916539982E+03  0.26005750091E+03  0.12509000000E+03 0.  0.
         25    1    4    4    0    0 -0.10794813020E+02  0.35895946217E+02 -0.22421331725E+03  0.25946900909E+03  0.12509000000E+03 0.  0.
<mgrwt>
<rscale>  2 0.44689061E+03</rscale>
<asrwt>0</asrwt>
<pdfrwt beam="1">  1       21 0.68274555E-02 0.44689061E+03</pdfrwt>
<pdfrwt beam="2">  1       21 0.15814875E+00 0.44689061E+03</pdfrwt>
<totfact> 0.37022440E+04</totfact>
</mgrwt>
</event>
<event>
 7    0  0.4779893E-002  0.4540249E+03  0.7546771E-02  0.1026529E+00
         21   -1    0    0  502  501  0.00000000000E+00  0.00000000000E+00  0.99739259208E+03  0.99739259208E+03  0.00000000000E+00 0.  1.
         21   -1    0    0  501  502 -0.00000000000E+00 -0.00000000000E+00 -0.51669375954E+02  0.51669375954E+02  0.00000000000E+00 0.  1.
      99926    2    1    2    0    0  0.00000000000E+00  0.14210854715E-13  0.94572321612E+03  0.10490619680E+04  0.45402490158E+03 0.  0.
      99925    2    3    3    0    0  0.63229105331E+02  0.83407870849E+02  0.68927656034E+03  0.74514226146E+03  0.26302095069E+03 0.  0.
         25    1    3    3    0    0 -0.63229105331E+02 -0.83407870849E+02  0.25644665579E+03  0.30391970657E+03  0.12509000000E+03 0.  0.
         25    1    4    4    0    0  0.22332634471E+02  0.30670010928E+01  0.27028206178E+03  0.29867717368E+03  0.12509000000E+03 0.  0.
         25    1    4    4    0    0  0.40896470859E+02  0.80340869757E+02  0.41899449856E+03  0.44646508778E+03  0.12509000000E+03 0.  0.
<mgrwt>
<rscale>  2 0.45402490E+03</rscale>
<asrwt>0</asrwt>
<pdfrwt beam="1">  1       21 0.14667537E+00 0.45402490E+03</pdfrwt>
<pdfrwt beam="2">  1       21 0.75984383E-02 0.45402490E+03</pdfrwt>
<totfact> 0.37597162E+04</totfact>
</mgrwt>
</event>
<event>
 7    0  0.4779893E-002  0.4529415E+03  0.7546771E-02  0.1026848E+00
         21   -1    0    0  502  501  0.00000000000E+00  0.00000000000E+00  0.41068289736E+02  0.41068289736E+02  0.00000000000E+00 0.  1.
         21   -1    0    0  501  502 -0.00000000000E+00 -0.00000000000E+00 -0.12488708891E+04  0.12488708891E+04  0.00000000000E+00 0.  1.
      99926    2    1    2    0    0  0.00000000000E+00 -0.35527136788E-14 -0.12078025994E+04  0.12899391789E+04  0.45294145988E+03 0.  0.
      99925    2    3    3    0    0 -0.10505639783E+03 -0.30220830436E+02 -0.70167578638E+03  0.75724601741E+03  0.26291153715E+03 0.  0.
         25    1    4    4    0    0 -0.93722265162E+02 -0.24573225037E+02 -0.41855639924E+03  0.44746471796E+03  0.12509000000E+03 0.  0.
         25    1    3    3    0    0  0.10505639783E+03  0.30220830436E+02 -0.50612681302E+03  0.53269316147E+03  0.12509000000E+03 0.  0.
         25    1    4    4    0    0 -0.11334132668E+02 -0.56476053983E+01 -0.28311938714E+03  0.30978129945E+03  0.12509000000E+03 0.  0.
<mgrwt>
<rscale>  2 0.45294146E+03</rscale>
<asrwt>0</asrwt>
<pdfrwt beam="1">  1       21 0.60394551E-02 0.45294146E+03</pdfrwt>
<pdfrwt beam="2">  1       21 0.18365746E+00 0.45294146E+03</pdfrwt>
<totfact> 0.29883933E+04</totfact>
</mgrwt>
</event>
<event>
 7    0  0.4779893E-002  0.4617272E+03  0.7546771E-02  0.1024281E+00
         21   -1    0    0  502  501  0.00000000000E+00  0.00000000000E+00  0.12764941860E+03  0.12764941860E+03  0.00000000000E+00 0. -1.
         21   -1    0    0  501  502 -0.00000000000E+00 -0.00000000000E+00 -0.41753427328E+03  0.41753427328E+03  0.00000000000E+00 0. -1.
      99926    2    1    2    0    0  0.00000000000E+00 -0.35527136788E-14 -0.28988485468E+03  0.54518369188E+03  0.46172722349E+03 0.  0.
      99925    2    3    3    0    0  0.97794056726E+02  0.19963204134E+02 -0.10396291364E+03  0.29987432941E+03  0.26297170756E+03 0.  0.
         25    1    4    4    0    0  0.68349145878E+02  0.26941170652E+02 -0.89282280239E+02  0.17034161583E+03  0.12509000000E+03 0.  0.
         25    1    4    4    0    0  0.29444910848E+02 -0.69779665184E+01 -0.14680633397E+02  0.12953271358E+03  0.12509000000E+03 0.  0.
         25    1    3    3    0    0 -0.97794056726E+02 -0.19963204134E+02 -0.18592194104E+03  0.24530936246E+03  0.12509000000E+03 0.  0.
<mgrwt>
<rscale>  2 0.46172722E+03</rscale>
<asrwt>0</asrwt>
<pdfrwt beam="1">  1       21 0.18771973E-01 0.46172722E+03</pdfrwt>
<pdfrwt beam="2">  1       21 0.61402099E-01 0.46172722E+03</pdfrwt>
<totfact> 0.58982659E+04</totfact>
</mgrwt>
</event>
<event>
 7    0  0.4779893E-002  0.4459961E+03  0.7546771E-02  0.1028923E+00
         21   -1    0    0  502  501  0.00000000000E+00  0.00000000000E+00  0.17511540635E+03  0.17511540635E+03  0.00000000000E+00 0.  1.
         21   -1    0    0  501  502 -0.00000000000E+00 -0.00000000000E+00 -0.28397351919E+03  0.28397351919E+03  0.00000000000E+00 0.  1.
      99926    2    1    2    0    0  0.00000000000E+00  0.14210854715E-13 -0.10885811284E+03  0.45908892555E+03  0.44599613544E+03 0.  0.
      99925    2    3    3    0    0  0.81620858986E+01 -0.10307870367E+03 -0.53716732979E+02  0.28768321190E+03  0.26302909385E+03 0.  0.
         25    1    4    4    0    0 -0.79901487655E+00 -0.85490401065E+01 -0.18574962136E+02  0.12675275867E+03  0.12509000000E+03 0.  0.
         25    1    3    3    0    0 -0.81620858986E+01  0.10307870367E+03 -0.55141379857E+02  0.17140571364E+03  0.12509000000E+03 0.  0.
         25    1    4    4    0    0  0.89611007752E+01 -0.94529663565E+02 -0.35141770843E+02  0.16093045324E+03  0.12509000000E+03 0.  0.
<mgrwt>
<rscale>  2 0.44599614E+03</rscale>
<asrwt>0</asrwt>
<pdfrwt beam="1">  1       21 0.25752266E-01 0.44599614E+03</pdfrwt>
<pdfrwt beam="2">  1       21 0.41760811E-01 0.44599614E+03</pdfrwt>
<totfact> 0.73356827E+04</totfact>
</mgrwt>
</event>
<event>
 7    0  0.4779893E-002  0.4545658E+03  0.7546771E-02  0.1026369E+00
         21   -1    0    0  502  501  0.00000000000E+00  0.00000000000E+00  0.44298178624E+02  0.44298178624E+02  0.00000000000E+00 0.  1.
         21   -1    0    0  501  502 -0.00000000000E+00 -0.00000000000E+00 -0.11661317676E+04  0.11661317676E+04  0.00000000000E+00 0.  1.
      99926    2    1    2    0    0 -0.35527136788E-14  0.00000000000E+00 -0.11218335889E+04  0.12104299462E+04  0.45456578551E+03 0.  0.
      99925    2    3    3    0    0 -0.30229792854E+02  0.27359486390E+02 -0.42630369557E+03  0.50256574837E+03  0.26301161327E+03 0.  0.
         25    1    4    4    0    0 -0.12268939407E+02  0.40375740354E+02 -0.27465566296E+03  0.30473589972E+03  0.12509000000E+03 0.  0.
         25    1    4    4    0    0 -0.17960853448E+02 -0.13016253965E+02 -0.15164803260E+03  0.19782984865E+03  0.12509000000E+03 0.  0.
         25    1    3    3    0    0  0.30229792854E+02 -0.27359486390E+02 -0.69552989338E+03  0.70786419782E+03  0.12509000000E+03 0.  0.
<mgrwt>
<rscale>  2 0.45456579E+03</rscale>
<asrwt>0</asrwt>
<pdfrwt beam="1">  1       21 0.65144371E-02 0.45456579E+03</pdfrwt>
<pdfrwt beam="2">  1       21 0.17148999E+00 0.45456579E+03</pdfrwt>
<totfact> 0.31934984E+04</totfact>
</mgrwt>
</event>
<event>
 7    0  0.4779893E-002  0.4533009E+03  0.7546771E-02  0.1026742E+00
         21   -1    0    0  502  501  0.00000000000E+00  0.00000000000E+00  0.82148673154E+02  0.82148673154E+02  0.00000000000E+00 0.  1.
         21   -1    0    0  501  502 -0.00000000000E+00 -0.00000000000E+00 -0.62533489714E+03  0.62533489714E+03  0.00000000000E+00 0.  1.
      99926    2    1    2    0    0  0.00000000000E+00  0.00000000000E+00 -0.54318622399E+03  0.70748357030E+03  0.45330092467E+03 0.  0.
      99925    2    3    3    0    0 -0.88209546072E+02 -0.66452749634E+02 -0.36389380398E+03  0.46255465831E+03  0.26332720976E+03 0.  0.
         25    1    4    4    0    0 -0.37343910645E+02 -0.55455057443E+02 -0.24098905631E+03  0.27963022801E+03  0.12509000000E+03 0.  0.
         25    1    3    3    0    0  0.88209546072E+02  0.66452749634E+02 -0.17929242001E+03  0.24492891198E+03  0.12509000000E+03 0.  0.
         25    1    4    4    0    0 -0.50865635427E+02 -0.10997692191E+02 -0.12290474767E+03  0.18292443030E+03  0.12509000000E+03 0.  0.
<mgrwt>
<rscale>  2 0.45330092E+03</rscale>
<asrwt>0</asrwt>
<pdfrwt beam="1">  1       21 0.12080687E-01 0.45330092E+03</pdfrwt>
<pdfrwt beam="2">  1       21 0.91961016E-01 0.45330092E+03</pdfrwt>
<totfact> 0.53206267E+04</totfact>
</mgrwt>
</event>
<event>
 7    0  0.4779893E-002  0.4553318E+03  0.7546771E-02  0.1026144E+00
         21   -1    0    0  502  501  0.00000000000E+00  0.00000000000E+00  0.24371555152E+03  0.24371555152E+03  0.00000000000E+00 0.  1.
         21   -1    0    0  501  502 -0.00000000000E+00 -0.00000000000E+00 -0.21267318256E+03  0.21267318256E+03  0.00000000000E+00 0.  1.
      99926    2    1    2    0    0  0.00000000000E+00  0.35527136788E-14  0.31042368962E+02  0.45638873408E+03  0.45533179982E+03 0.  0.
      99925    2    3    3    0    0 -0.11075066139E+03  0.25325182648E+02  0.23610785956E+02  0.28724438626E+03  0.26276376148E+03 0.  0.
         25    1    4    4    0    0 -0.81826003532E+02 -0.92720300125E+01 -0.99851845917E+01  0.15009556091E+03  0.12509000000E+03 0.  0.
         25    1    3    3    0    0  0.11075066139E+03 -0.25325182648E+02  0.74315830063E+01  0.16914434783E+03  0.12509000000E+03 0.  0.
         25    1    4    4    0    0 -0.28924657862E+02  0.34597212661E+02  0.33595970547E+02  0.13714882534E+03  0.12509000000E+03 0.  0.
<mgrwt>
<rscale>  2 0.45533180E+03</rscale>
<asrwt>0</asrwt>
<pdfrwt beam="1">  1       21 0.35840522E-01 0.45533180E+03</pdfrwt>
<pdfrwt beam="2">  1       21 0.31275468E-01 0.45533180E+03</pdfrwt>
<totfact> 0.68263315E+04</totfact>
</mgrwt>
</event>
<event>
 7    0  0.4779893E-002  0.4553357E+03  0.7546771E-02  0.1026143E+00
         21   -1    0    0  502  501  0.00000000000E+00  0.00000000000E+00  0.17326808447E+03  0.17326808447E+03  0.00000000000E+00 0. -1.
         21   -1    0    0  501  502 -0.00000000000E+00 -0.00000000000E+00 -0.29914714771E+03  0.29914714771E+03  0.00000000000E+00 0. -1.
      99926    2    1    2    0    0 -0.14210854715E-13 -0.35527136788E-14 -0.12587906323E+03  0.47241523218E+03  0.45533571465E+03 0.  0.
      99925    2    3    3    0    0 -0.10471869151E+03 -0.22955905644E+02 -0.11794771918E+03  0.30748072314E+03  0.26294439086E+03 0.  0.
         25    1    3    3    0    0  0.10471869151E+03  0.22955905644E+02 -0.79313440501E+01  0.16493450905E+03  0.12509000000E+03 0.  0.
         25    1    4    4    0    0 -0.89056473306E+02  0.64777739973E+01 -0.75569323872E+02  0.17126367917E+03  0.12509000000E+03 0.  0.
         25    1    4    4    0    0 -0.15662218207E+02 -0.29433679642E+02 -0.42378395311E+02  0.13621704396E+03  0.12509000000E+03 0.  0.
<mgrwt>
<rscale>  2 0.45533571E+03</rscale>
<asrwt>0</asrwt>
<pdfrwt beam="1">  1       21 0.25480601E-01 0.45533571E+03</pdfrwt>
<pdfrwt beam="2">  1       21 0.43992227E-01 0.45533571E+03</pdfrwt>
<totfact> 0.67077703E+04</totfact>
</mgrwt>
</event>
<event>
 7    0  0.4779893E-002  0.4523516E+03  0.7546771E-02  0.1027023E+00
         21   -1    0    0  502  501  0.00000000000E+00  0.00000000000E+00  0.56253767137E+02  0.56253767137E+02  0.00000000000E+00 0. -1.
         21   -1    0    0  501  502 -0.00000000000E+00 -0.00000000000E+00 -0.90936987624E+03  0.90936987624E+03  0.00000000000E+00 0. -1.
      99926    2    1    2    0    0 -0.14210854715E-13 -0.35527136788E-14 -0.85311610910E+03  0.96562364337E+03  0.45235155028E+03 0.  0.
      99925    2    3    3    0    0 -0.10659316061E+03 -0.21338999342E+02 -0.58227800133E+03  0.64810475653E+03  0.26301074089E+03 0.  0.
         25    1    4    4    0    0 -0.33957143181E+02 -0.41535131121E+02 -0.32327640515E+03  0.35076116792E+03  0.12509000000E+03 0.  0.
         25    1    4    4    0    0 -0.72636017431E+02  0.20196131779E+02 -0.25900159618E+03  0.29734358861E+03  0.12509000000E+03 0.  0.
         25    1    3    3    0    0  0.10659316061E+03  0.21338999342E+02 -0.27083810777E+03  0.31751888684E+03  0.12509000000E+03 0.  0.
<mgrwt>
<rscale>  2 0.45235155E+03</rscale>
<asrwt>0</asrwt>
<pdfrwt beam="1">  1       21 0.82726126E-02 0.45235155E+03</pdfrwt>
<pdfrwt beam="2">  1       21 0.13373087E+00 0.45235155E+03</pdfrwt>
<totfact> 0.41364472E+04</totfact>
</mgrwt>
</event>
<event>
 7    0  0.4779893E-002  0.4546181E+03  0.7546771E-02  0.1026354E+00
         21   -1    0    0  502  501  0.00000000000E+00  0.00000000000E+00  0.38478610155E+03  0.38478610155E+03  0.00000000000E+00 0. -1.
         21   -1    0    0  501  502 -0.00000000000E+00 -0.00000000000E+00 -0.13428085404E+03  0.13428085404E+03  0.00000000000E+00 0. -1.
      99926    2    1    2    0    0  0.00000000000E+00  0.00000000000E+00  0.25050524751E+03  0.51906695559E+03  0.45461810936E+03 0.  0.
      99925    2    3    3    0    0 -0.98126780617E+02 -0.84428750139E+01  0.94836495327E+02  0.29640035343E+03  0.26298110475E+03 0.  0.
         25    1    3    3    0    0  0.98126780617E+02  0.84428750139E+01  0.15566875218E+03  0.22266660216E+03  0.12509000000E+03 0.  0.
         25    1    4    4    0    0 -0.63487189816E+02 -0.13506875505E+02  0.88371427830E+02  0.16634324848E+03  0.12509000000E+03 0.  0.
         25    1    4    4    0    0 -0.34639590801E+02  0.50640004910E+01  0.64650674971E+01  0.13005710496E+03  0.12509000000E+03 0.  0.
<mgrwt>
<rscale>  2 0.45461811E+03</rscale>
<asrwt>0</asrwt>
<pdfrwt beam="1">  1       21 0.56586191E-01 0.45461811E+03</pdfrwt>
<pdfrwt beam="2">  1       21 0.19747184E-01 0.45461811E+03</pdfrwt>
<totfact> 0.64145017E+04</totfact>
</mgrwt>
</event>
<event>
 7    0  0.4779893E-002  0.4636864E+03  0.7546771E-02  0.1023717E+00
         21   -1    0    0  502  501  0.00000000000E+00  0.00000000000E+00  0.10618233657E+03  0.10618233657E+03  0.00000000000E+00 0. -1.
         21   -1    0    0  501  502 -0.00000000000E+00 -0.00000000000E+00 -0.50621660584E+03  0.50621660584E+03  0.00000000000E+00 0. -1.
      99926    2    1    2    0    0  0.71054273576E-14  0.00000000000E+00 -0.40003426927E+03  0.61239894240E+03  0.46368636821E+03 0.  0.
      99925    2    3    3    0    0  0.47071968372E+02  0.10564442404E+03 -0.20216941341E+03  0.35129642647E+03  0.26298325612E+03 0.  0.
         25    1    4    4    0    0 -0.17037323642E+02  0.49493319225E+02 -0.87141451525E+02  0.16118622683E+03  0.12509000000E+03 0.  0.
         25    1    4    4    0    0  0.64109292014E+02  0.56151104819E+02 -0.11502796188E+03  0.19011019965E+03  0.12509000000E+03 0.  0.
         25    1    3    3    0    0 -0.47071968372E+02 -0.10564442404E+03 -0.19786485587E+03  0.26110251593E+03  0.12509000000E+03 0.  0.
<mgrwt>
<rscale>  2 0.46368637E+03</rscale>
<asrwt>0</asrwt>
<pdfrwt beam="1">  1       21 0.15615050E-01 0.46368637E+03</pdfrwt>
<pdfrwt beam="2">  1       21 0.74443618E-01 0.46368637E+03</pdfrwt>
<totfact> 0.54112111E+04</totfact>
</mgrwt>
</event>
<event>
 7    0  0.4779893E-002  0.4539794E+03  0.7546771E-02  0.1026542E+00
         21   -1    0    0  502  501  0.00000000000E+00  0.00000000000E+00  0.48941012639E+04  0.48941012639E+04  0.00000000000E+00 0. -1.
         21   -1    0    0  501  502 -0.00000000000E+00 -0.00000000000E+00 -0.10527842667E+02  0.10527842667E+02  0.00000000000E+00 0. -1.
      99926    2    1    2    0    0  0.00000000000E+00  0.00000000000E+00  0.48835734212E+04  0.49046291065E+04  0.45397941849E+03 0.  0.
      99925    2    3    3    0    0 -0.67382832312E+02 -0.89688228047E+02  0.29977528518E+04  0.30113380163E+04  0.26277378772E+03 0.  0.
         25    1    3    3    0    0  0.67382832312E+02  0.89688228047E+02  0.18858205694E+04  0.18932910903E+04  0.12509000000E+03 0.  0.
         25    1    4    4    0    0 -0.55093049947E+02 -0.13204532146E+02  0.15889419031E+04  0.15948647226E+04  0.12509000000E+03 0.  0.
         25    1    4    4    0    0 -0.12289782365E+02 -0.76483695901E+02  0.14088109487E+04  0.14164732937E+04  0.12509000000E+03 0.  0.
<mgrwt>
<rscale>  2 0.45397942E+03</rscale>
<asrwt>0</asrwt>
<pdfrwt beam="1">  1       21 0.71971919E+00 0.45397942E+03</pdfrwt>
<pdfrwt beam="2">  1       21 0.15482156E-02 0.45397942E+03</pdfrwt>
<totfact> 0.46389154E+01</totfact>
</mgrwt>
</event>
<event>
 7    0  0.4779893E-002  0.4615825E+03  0.7546771E-02  0.1024323E+00
         21   -1    0    0  502  501  0.00000000000E+00  0.00000000000E+00  0.36709107794E+03  0.36709107794E+03  0.00000000000E+00 0.  1.
         21   -1    0    0  501  502 -0.00000000000E+00 -0.00000000000E+00 -0.14509916529E+03  0.14509916529E+03  0.00000000000E+00 0.  1.
      99926    2    1    2    0    0  0.00000000000E+00 -0.35527136788E-14  0.22199191265E+03  0.51219024323E+03  0.46158253431E+03 0.  0.
      99925    2    3    3    0    0  0.44607194973E+02 -0.30404442490E+02  0.20932132285E+02  0.26931831124E+03  0.26302084830E+03 0.  0.
         25    1    4    4    0    0  0.45980971665E+02 -0.49069421275E+02  0.11551961601E+02  0.14248864438E+03  0.12509000000E+03 0.  0.
         25    1    3    3    0    0 -0.44607194973E+02  0.30404442490E+02  0.20105978036E+03  0.24287193199E+03  0.12509000000E+03 0.  0.
         25    1    4    4    0    0 -0.13737766919E+01  0.18664978786E+02  0.93801706840E+01  0.12682966687E+03  0.12509000000E+03 0.  0.
<mgrwt>
<rscale>  2 0.46158253E+03</rscale>
<asrwt>0</asrwt>
<pdfrwt beam="1">  1       21 0.53983982E-01 0.46158253E+03</pdfrwt>
<pdfrwt beam="2">  1       21 0.21338113E-01 0.46158253E+03</pdfrwt>
<totfact> 0.61164064E+04</totfact>
</mgrwt>
</event>
<event>
 7    0  0.4779893E-002  0.4528497E+03  0.7546771E-02  0.1026876E+00
         21   -1    0    0  502  501  0.00000000000E+00  0.00000000000E+00  0.11758755959E+03  0.11758755959E+03  0.00000000000E+00 0. -1.
         21   -1    0    0  501  502 -0.00000000000E+00 -0.00000000000E+00 -0.43600025971E+03  0.43600025971E+03  0.00000000000E+00 0. -1.
      99926    2    1    2    0    0  0.00000000000E+00 -0.35527136788E-14 -0.31841270012E+03  0.55358781930E+03  0.45284967271E+03 0.  0.
      99925    2    3    3    0    0  0.67209809511E+02 -0.27977975626E+02 -0.30330373576E+03  0.40806904209E+03  0.26311073976E+03 0.  0.
         25    1    4    4    0    0  0.45562827908E+02 -0.36325191359E+02 -0.10914981589E+03  0.17594510855E+03  0.12509000000E+03 0.  0.
         25    1    4    4    0    0  0.21646981602E+02  0.83472157330E+01 -0.19415391987E+03  0.23212393354E+03  0.12509000000E+03 0.  0.
         25    1    3    3    0    0 -0.67209809511E+02  0.27977975626E+02 -0.15108964360E+02  0.14551877720E+03  0.12509000000E+03 0.  0.
<mgrwt>
<rscale>  2 0.45284967E+03</rscale>
<asrwt>0</asrwt>
<pdfrwt beam="1">  1       21 0.17292288E-01 0.45284967E+03</pdfrwt>
<pdfrwt beam="2">  1       21 0.64117685E-01 0.45284967E+03</pdfrwt>
<totfact> 0.62689709E+04</totfact>
</mgrwt>
</event>
<event>
 7    0  0.4779893E-002  0.4543354E+03  0.7546771E-02  0.1026437E+00
         21   -1    0    0  502  501  0.00000000000E+00  0.00000000000E+00  0.12924887338E+04  0.12924887338E+04  0.00000000000E+00 0. -1.
         21   -1    0    0  501  502 -0.00000000000E+00 -0.00000000000E+00 -0.39926981545E+02  0.39926981545E+02  0.00000000000E+00 0. -1.
      99926    2    1    2    0    0 -0.17763568394E-14  0.00000000000E+00  0.12525617523E+04  0.13324157154E+04  0.45433544358E+03 0.  0.
      99925    2    3    3    0    0 -0.50927330501E+01  0.93236519621E+02  0.97340434881E+03  0.10125792751E+04  0.26283412552E+03 0.  0.
         25    1    4    4    0    0  0.19193450976E+02  0.69217884798E+02  0.41626569667E+03  0.44054981837E+03  0.12509000000E+03 0.  0.
         25    1    4    4    0    0 -0.24286184026E+02  0.24018634823E+02  0.55713865213E+03  0.57202945672E+03  0.12509000000E+03 0.  0.
         25    1    3    3    0    0  0.50927330501E+01 -0.93236519621E+02  0.27915740350E+03  0.31983644031E+03  0.12509000000E+03 0.  0.
<mgrwt>
<rscale>  2 0.45433544E+03</rscale>
<asrwt>0</asrwt>
<pdfrwt beam="1">  1       21 0.19007185E+00 0.45433544E+03</pdfrwt>
<pdfrwt beam="2">  1       21 0.58716158E-02 0.45433544E+03</pdfrwt>
<totfact> 0.28333794E+04</totfact>
</mgrwt>
</event>
<event>
 7    0  0.4779893E-002  0.4443678E+03  0.7546771E-02  0.1029415E+00
         21   -1    0    0  502  501  0.00000000000E+00  0.00000000000E+00  0.82994475633E+03  0.82994475633E+03  0.00000000000E+00 0. -1.
         21   -1    0    0  501  502 -0.00000000000E+00 -0.00000000000E+00 -0.59480684105E+02  0.59480684105E+02  0.00000000000E+00 0. -1.
      99926    2    1    2    0    0  0.00000000000E+00  0.00000000000E+00  0.77046407222E+03  0.88942544043E+03  0.44436778405E+03 0.  0.
      99925    2    3    3    0    0 -0.84976796999E+02  0.57753254165E+02  0.48110692839E+03  0.55786615587E+03  0.26304805060E+03 0.  0.
         25    1    4    4    0    0 -0.65665309982E+02 -0.35131383238E+01  0.25706636608E+03  0.29335115433E+03  0.12509000000E+03 0.  0.
         25    1    3    3    0    0  0.84976796999E+02 -0.57753254165E+02  0.28935714383E+03  0.33155928457E+03  0.12509000000E+03 0.  0.
         25    1    4    4    0    0 -0.19311487017E+02  0.61266392488E+02  0.22404056231E+03  0.26451500154E+03  0.12509000000E+03 0.  0.
<mgrwt>
<rscale>  2 0.44436778E+03</rscale>
<asrwt>0</asrwt>
<pdfrwt beam="1">  1       21 0.12205069E+00 0.44436778E+03</pdfrwt>
<pdfrwt beam="2">  1       21 0.87471599E-02 0.44436778E+03</pdfrwt>
<totfact> 0.47528495E+04</totfact>
</mgrwt>
</event>
<event>
 7    0  0.4779893E-002  0.4596494E+03  0.7546771E-02  0.1024883E+00
         21   -1    0    0  502  501  0.00000000000E+00  0.00000000000E+00  0.66683942608E+03  0.66683942608E+03  0.00000000000E+00 0. -1.
         21   -1    0    0  501  502 -0.00000000000E+00 -0.00000000000E+00 -0.79208554396E+02  0.79208554396E+02  0.00000000000E+00 0. -1.
      99926    2    1    2    0    0  0.17763568394E-14  0.00000000000E+00  0.58763087168E+03  0.74604798048E+03  0.45964937487E+03 0.  0.
      99925    2    3    3    0    0 -0.11370562968E+02  0.75616029405E+02  0.51296422083E+03  0.58151928859E+03  0.26303102011E+03 0.  0.
         25    1    4    4    0    0  0.24026610576E+00  0.67547340111E+01  0.29721580476E+03  0.32253748133E+03  0.12509000000E+03 0.  0.
         25    1    3    3    0    0  0.11370562968E+02 -0.75616029405E+02  0.74666650850E+02  0.16452869189E+03  0.12509000000E+03 0.  0.
         25    1    4    4    0    0 -0.11610829074E+02  0.68861295394E+02  0.21574841607E+03  0.25898180726E+03  0.12509000000E+03 0.  0.
<mgrwt>
<rscale>  2 0.45964937E+03</rscale>
<asrwt>0</asrwt>
<pdfrwt beam="1">  1       21 0.98064618E-01 0.45964937E+03</pdfrwt>
<pdfrwt beam="2">  1       21 0.11648317E-01 0.45964937E+03</pdfrwt>
<totfact> 0.48669915E+04</totfact>
</mgrwt>
</event>
<event>
 7    0  0.4779893E-002  0.4537691E+03  0.7546771E-02  0.1026604E+00
         21   -1    0    0  502  501  0.00000000000E+00  0.00000000000E+00  0.18788774065E+03  0.18788774065E+03  0.00000000000E+00 0. -1.
         21   -1    0    0  501  502 -0.00000000000E+00 -0.00000000000E+00 -0.27397523514E+03  0.27397523514E+03  0.00000000000E+00 0. -1.
      99926    2    1    2    0    0  0.71054273576E-14  0.00000000000E+00 -0.86087494484E+02  0.46186297579E+03  0.45376905106E+03 0.  0.
      99925    2    3    3    0    0  0.51641755968E+02  0.48804535388E+02 -0.14268632111E+03  0.30726773359E+03  0.26268863744E+03 0.  0.
         25    1    3    3    0    0 -0.51641755968E+02 -0.48804535388E+02  0.56598826630E+02  0.15459524220E+03  0.12509000000E+03 0.  0.
         25    1    4    4    0    0  0.55723915134E+02  0.70931582629E+01 -0.49643678279E+02  0.14583370840E+03  0.12509000000E+03 0.  0.
         25    1    4    4    0    0 -0.40821591659E+01  0.41711377125E+02 -0.93042642835E+02  0.16143402520E+03  0.12509000000E+03 0.  0.
<mgrwt>
<rscale>  2 0.45376905E+03</rscale>
<asrwt>0</asrwt>
<pdfrwt beam="1">  1       21 0.27630550E-01 0.45376905E+03</pdfrwt>
<pdfrwt beam="2">  1       21 0.40290475E-01 0.45376905E+03</pdfrwt>
<totfact> 0.68713588E+04</totfact>
</mgrwt>
</event>
<event>
 7    0  0.4779893E-002  0.4632252E+03  0.7546771E-02  0.1023850E+00
         21   -1    0    0  502  501  0.00000000000E+00  0.00000000000E+00  0.24557543518E+04  0.24557543518E+04  0.00000000000E+00 0.  1.
         21   -1    0    0  501  502 -0.00000000000E+00 -0.00000000000E+00 -0.21844370362E+02  0.21844370362E+02  0.00000000000E+00 0.  1.
      99926    2    1    2    0    0  0.00000000000E+00 -0.88817841970E-15  0.24339099815E+04  0.24775987222E+04  0.46322524793E+03 0.  0.
      99925    2    3    3    0    0  0.10976548003E+03  0.70959985433E+01  0.12547851107E+04  0.12867663315E+04  0.26302681232E+03 0.  0.
         25    1    3    3    0    0 -0.10976548003E+03 -0.70959985433E+01  0.11791248707E+04  0.11908323907E+04  0.12509000000E+03 0.  0.
         25    1    4    4    0    0  0.12575991833E+02 -0.56343883941E+01  0.52378858262E+03  0.53869461598E+03  0.12509000000E+03 0.  0.
         25    1    4    4    0    0  0.97189488200E+02  0.12730386937E+02  0.73099652812E+03  0.74807171554E+03  0.12509000000E+03 0.  0.
<mgrwt>
<rscale>  2 0.46322525E+03</rscale>
<asrwt>0</asrwt>
<pdfrwt beam="1">  1       21 0.36114015E+00 0.46322525E+03</pdfrwt>
<pdfrwt beam="2">  1       21 0.32124091E-02 0.46322525E+03</pdfrwt>
<totfact> 0.69111699E+03</totfact>
</mgrwt>
</event>
<event>
 7    0  0.4779893E-002  0.4573968E+03  0.7546771E-02  0.1025539E+00
         21   -1    0    0  502  501  0.00000000000E+00  0.00000000000E+00  0.94889281595E+03  0.94889281595E+03  0.00000000000E+00 0.  1.
         21   -1    0    0  501  502 -0.00000000000E+00 -0.00000000000E+00 -0.55119982684E+02  0.55119982684E+02  0.00000000000E+00 0.  1.
      99926    2    1    2    0    0 -0.14210854715E-13  0.00000000000E+00  0.89377283326E+03  0.10040127986E+04  0.45739678872E+03 0.  0.
      99925    2    3    3    0    0 -0.95402685763E+02 -0.47817531433E+02  0.65755564729E+03  0.71620338980E+03  0.26302029867E+03 0.  0.
         25    1    4    4    0    0 -0.49192353628E+02 -0.42719936214E+01  0.41210565023E+03  0.43349361314E+03  0.12509000000E+03 0.  0.
         25    1    3    3    0    0  0.95402685763E+02  0.47817531433E+02  0.23621718597E+03  0.28780940883E+03  0.12509000000E+03 0.  0.
         25    1    4    4    0    0 -0.46210332135E+02 -0.43545537812E+02  0.24544999706E+03  0.28270977666E+03  0.12509000000E+03 0.  0.
<mgrwt>
<rscale>  2 0.45739679E+03</rscale>
<asrwt>0</asrwt>
<pdfrwt beam="1">  1       21 0.13954305E+00 0.45739679E+03</pdfrwt>
<pdfrwt beam="2">  1       21 0.81058804E-02 0.45739679E+03</pdfrwt>
<totfact> 0.38289363E+04</totfact>
</mgrwt>
</event>
<event>
 7    0  0.4779893E-002  0.4586593E+03  0.7546771E-02  0.1025171E+00
         21   -1    0    0  502  501  0.00000000000E+00  0.00000000000E+00  0.12006444733E+04  0.12006444733E+04  0.00000000000E+00 0. -1.
         21   -1    0    0  501  502 -0.00000000000E+00 -0.00000000000E+00 -0.43803211048E+02  0.43803211048E+02  0.00000000000E+00 0. -1.
      99926    2    1    2    0    0  0.00000000000E+00  0.00000000000E+00  0.11568412622E+04  0.12444476843E+04  0.45865927771E+03 0.  0.
      99925    2    3    3    0    0  0.43774223204E+02  0.99187612858E+02  0.60863981222E+03  0.67179883638E+03  0.26290091362E+03 0.  0.
         25    1    4    4    0    0 -0.12685138103E+02  0.32662385804E+02  0.31952651734E+03  0.34492382863E+03  0.12509000000E+03 0.  0.
         25    1    4    4    0    0  0.56459361307E+02  0.66525227055E+02  0.28911329488E+03  0.32687500775E+03  0.12509000000E+03 0.  0.
         25    1    3    3    0    0 -0.43774223204E+02 -0.99187612858E+02  0.54820145001E+03  0.57264884795E+03  0.12509000000E+03 0.  0.
<mgrwt>
<rscale>  2 0.45865928E+03</rscale>
<asrwt>0</asrwt>
<pdfrwt beam="1">  1       21 0.17656534E+00 0.45865928E+03</pdfrwt>
<pdfrwt beam="2">  1       21 0.64416494E-02 0.45865928E+03</pdfrwt>
<totfact> 0.29910507E+04</totfact>
</mgrwt>
</event>
<event>
 7    0  0.4779893E-002  0.4597155E+03  0.7546771E-02  0.1024864E+00
         21   -1    0    0  502  501  0.00000000000E+00  0.00000000000E+00  0.50484750819E+03  0.50484750819E+03  0.00000000000E+00 0.  1.
         21   -1    0    0  501  502 -0.00000000000E+00 -0.00000000000E+00 -0.10465454784E+03  0.10465454784E+03  0.00000000000E+00 0.  1.
      99926    2    1    2    0    0  0.00000000000E+00  0.00000000000E+00  0.40019296035E+03  0.60950205602E+03  0.45971551071E+03 0.  0.
      99925    2    3    3    0    0 -0.10674284157E+03  0.41623598244E+02  0.21591040807E+03  0.35903424306E+03  0.26298616926E+03 0.  0.
         25    1    4    4    0    0 -0.26615862964E+02 -0.27722731587E+01  0.68537853668E+02  0.14512420592E+03  0.12509000000E+03 0.  0.
         25    1    3    3    0    0  0.10674284157E+03 -0.41623598244E+02  0.18428255228E+03  0.25046781296E+03  0.12509000000E+03 0.  0.
         25    1    4    4    0    0 -0.80126978601E+02  0.44395871403E+02  0.14737255440E+03  0.21391003714E+03  0.12509000000E+03 0.  0.
<mgrwt>
<rscale>  2 0.45971551E+03</rscale>
<asrwt>0</asrwt>
<pdfrwt beam="1">  1       21 0.74242280E-01 0.45971551E+03</pdfrwt>
<pdfrwt beam="2">  1       21 0.15390375E-01 0.45971551E+03</pdfrwt>
<totfact> 0.55982553E+04</totfact>
</mgrwt>
</event>
<event>
 7    0  0.4779893E-002  0.4547984E+03  0.7546771E-02  0.1026301E+00
         21   -1    0    0  502  501  0.00000000000E+00  0.00000000000E+00  0.27114568810E+04  0.27114568810E+04  0.00000000000E+00 0. -1.
         21   -1    0    0  501  502 -0.00000000000E+00 -0.00000000000E+00 -0.19071077961E+02  0.19071077961E+02  0.00000000000E+00 0. -1.
      99926    2    1    2    0    0  0.00000000000E+00  0.14210854715E-13  0.26923858031E+04  0.27305279590E+04  0.45479844136E+03 0.  0.
      99925    2    3    3    0    0  0.69868994867E+02 -0.79433251899E+02  0.14567519438E+04  0.14840810647E+04  0.26301913041E+03 0.  0.
         25    1    3    3    0    0 -0.69868994867E+02  0.79433251899E+02  0.12356338592E+04  0.12464468942E+04  0.12509000000E+03 0.  0.
         25    1    4    4    0    0  0.40259957350E+02 -0.80774210677E+01  0.55357026301E+03  0.56901111860E+03  0.12509000000E+03 0.  0.
         25    1    4    4    0    0  0.29609037517E+02 -0.71355830831E+02  0.90318168081E+03  0.91506994615E+03  0.12509000000E+03 0.  0.
<mgrwt>
<rscale>  2 0.45479844E+03</rscale>
<asrwt>0</asrwt>
<pdfrwt beam="1">  1       21 0.39874339E+00 0.45479844E+03</pdfrwt>
<pdfrwt beam="2">  1       21 0.28045722E-02 0.45479844E+03</pdfrwt>
<totfact> 0.50571058E+03</totfact>
</mgrwt>
</event>
<event>
 7    0  0.4779893E-002  0.4660006E+03  0.7546771E-02  0.1023055E+00
         21   -1    0    0  502  501  0.00000000000E+00  0.00000000000E+00  0.21911712305E+02  0.21911712305E+02  0.00000000000E+00 0. -1.
         21   -1    0    0  501  502 -0.00000000000E+00 -0.00000000000E+00 -0.24776315849E+04  0.24776315849E+04  0.00000000000E+00 0. -1.
      99926    2    1    2    0    0  0.00000000000E+00  0.00000000000E+00 -0.24557198726E+04  0.24995432972E+04  0.46600064586E+03 0.  0.
      99925    2    3    3    0    0  0.48763219236E+02  0.10984419482E+03 -0.16744696557E+04  0.16992664650E+04  0.26308609329E+03 0.  0.
         25    1    3    3    0    0 -0.48763219236E+02 -0.10984419482E+03 -0.78125021689E+03  0.80027683221E+03  0.12509000000E+03 0.  0.
         25    1    4    4    0    0  0.36323478355E+02  0.15263774125E+02 -0.69982268212E+03  0.71200538789E+03  0.12509000000E+03 0.  0.
         25    1    4    4    0    0  0.12439740881E+02  0.94580420699E+02 -0.97464697362E+03  0.98726107713E+03  0.12509000000E+03 0.  0.
<mgrwt>
<rscale>  2 0.46600065E+03</rscale>
<asrwt>0</asrwt>
<pdfrwt beam="1">  1       21 0.32223122E-02 0.46600065E+03</pdfrwt>
<pdfrwt beam="2">  1       21 0.36435740E+00 0.46600065E+03</pdfrwt>
<totfact> 0.65574801E+03</totfact>
</mgrwt>
</event>
<event>
 7    0  0.4779893E-002  0.4565971E+03  0.7546771E-02  0.1025773E+00
         21   -1    0    0  502  501  0.00000000000E+00  0.00000000000E+00  0.27149774942E+02  0.27149774942E+02  0.00000000000E+00 0.  1.
         21   -1    0    0  501  502 -0.00000000000E+00 -0.00000000000E+00 -0.19197292643E+04  0.19197292643E+04  0.00000000000E+00 0.  1.
      99926    2    1    2    0    0  0.00000000000E+00  0.00000000000E+00 -0.18925794894E+04  0.19468790392E+04  0.45659705420E+03 0.  0.
      99925    2    3    3    0    0 -0.94914227968E+02 -0.54253790952E+02 -0.13361751571E+04  0.13662023017E+04  0.26304466186E+03 0.  0.
         25    1    4    4    0    0 -0.52895070051E+01 -0.15634365385E+02 -0.58216417896E+03  0.59568032671E+03  0.12509000000E+03 0.  0.
         25    1    4    4    0    0 -0.89624720963E+02 -0.38619425566E+02 -0.75401097812E+03  0.77052197494E+03  0.12509000000E+03 0.  0.
         25    1    3    3    0    0  0.94914227968E+02  0.54253790952E+02 -0.55640433227E+03  0.58067673758E+03  0.12509000000E+03 0.  0.
<mgrwt>
<rscale>  2 0.45659705E+03</rscale>
<asrwt>0</asrwt>
<pdfrwt beam="1">  1       21 0.39926139E-02 0.45659705E+03</pdfrwt>
<pdfrwt beam="2">  1       21 0.28231313E+00 0.45659705E+03</pdfrwt>
<totfact> 0.14417177E+04</totfact>
</mgrwt>
</event>
<event>
 7    0  0.4779893E-002  0.4605501E+03  0.7546771E-02  0.1024622E+00
         21   -1    0    0  502  501  0.00000000000E+00  0.00000000000E+00  0.13056972708E+03  0.13056972708E+03  0.00000000000E+00 0. -1.
         21   -1    0    0  501  502 -0.00000000000E+00 -0.00000000000E+00 -0.40611702794E+03  0.40611702794E+03  0.00000000000E+00 0. -1.
      99926    2    1    2    0    0  0.14210854715E-13  0.17763568394E-14 -0.27554730085E+03  0.53668675502E+03  0.46055006026E+03 0.  0.
      99925    2    3    3    0    0 -0.77966535873E+02 -0.11803211365E+02 -0.69750757012E+02  0.28327439922E+03  0.26298501979E+03 0.  0.
         25    1    3    3    0    0  0.77966535873E+02  0.11803211365E+02 -0.20579654384E+03  0.25341235580E+03  0.12509000000E+03 0.  0.
         25    1    4    4    0    0 -0.65242027871E+02 -0.18933045511E+02 -0.68718662102E+01  0.14251215056E+03  0.12509000000E+03 0.  0.
         25    1    4    4    0    0 -0.12724508001E+02  0.71298341463E+01 -0.62878890802E+02  0.14076224866E+03  0.12509000000E+03 0.  0.
<mgrwt>
<rscale>  2 0.46055006E+03</rscale>
<asrwt>0</asrwt>
<pdfrwt beam="1">  1       21 0.19201430E-01 0.46055006E+03</pdfrwt>
<pdfrwt beam="2">  1       21 0.59723093E-01 0.46055006E+03</pdfrwt>
<totfact> 0.60070059E+04</totfact>
</mgrwt>
</event>
<event>
 7    0  0.4779893E-002  0.4552816E+03  0.7546771E-02  0.1026159E+00
         21   -1    0    0  502  501  0.00000000000E+00  0.00000000000E+00  0.22081155698E+03  0.22081155698E+03  0.00000000000E+00 0.  1.
         21   -1    0    0  501  502 -0.00000000000E+00 -0.00000000000E+00 -0.23468127150E+03  0.23468127150E+03  0.00000000000E+00 0.  1.
      99926    2    1    2    0    0 -0.71054273576E-14  0.00000000000E+00 -0.13869714519E+02  0.45549282848E+03  0.45528161374E+03 0.  0.
      99925    2    3    3    0    0 -0.58942808490E+02 -0.94361554774E+02  0.13466149691E+02  0.28586642940E+03  0.26298273817E+03 0.  0.
         25    1    4    4    0    0 -0.19951771657E+02 -0.70189405958E+02  0.39504152888E+02  0.15010900072E+03  0.12509000000E+03 0.  0.
         25    1    4    4    0    0 -0.38991036833E+02 -0.24172148816E+02 -0.26038003197E+02  0.13575742868E+03  0.12509000000E+03 0.  0.
         25    1    3    3    0    0  0.58942808490E+02  0.94361554774E+02 -0.27335864210E+02  0.16962639908E+03  0.12509000000E+03 0.  0.
<mgrwt>
<rscale>  2 0.45528161E+03</rscale>
<asrwt>0</asrwt>
<pdfrwt beam="1">  1       21 0.32472288E-01 0.45528161E+03</pdfrwt>
<pdfrwt beam="2">  1       21 0.34511952E-01 0.45528161E+03</pdfrwt>
<totfact> 0.68355991E+04</totfact>
</mgrwt>
</event>
<event>
 7    0  0.4779893E-002  0.4570500E+03  0.7546771E-02  0.1025640E+00
         21   -1    0    0  502  501  0.00000000000E+00  0.00000000000E+00  0.29367120192E+03  0.29367120192E+03  0.00000000000E+00 0.  1.
         21   -1    0    0  501  502 -0.00000000000E+00 -0.00000000000E+00 -0.17783041451E+03  0.17783041451E+03  0.00000000000E+00 0.  1.
      99926    2    1    2    0    0  0.00000000000E+00  0.00000000000E+00  0.11584078741E+03  0.47150161644E+03  0.45704998225E+03 0.  0.
      99925    2    3    3    0    0  0.21728150023E+02 -0.95271688427E+02  0.11016869741E+02  0.28127972249E+03  0.26353008130E+03 0.  0.
         25    1    3    3    0    0 -0.21728150023E+02  0.95271688427E+02  0.10482391767E+03  0.19022189394E+03  0.12509000000E+03 0.  0.
         25    1    4    4    0    0  0.12114185640E+02 -0.91316543907E+02  0.11297649164E+02  0.15575817687E+03  0.12509000000E+03 0.  0.
         25    1    4    4    0    0  0.96139643837E+01 -0.39551445203E+01 -0.28077942258E+00  0.12552154563E+03  0.12509000000E+03 0.  0.
<mgrwt>
<rscale>  2 0.45704998E+03</rscale>
<asrwt>0</asrwt>
<pdfrwt beam="1">  1       21 0.43186941E-01 0.45704998E+03</pdfrwt>
<pdfrwt beam="2">  1       21 0.26151532E-01 0.45704998E+03</pdfrwt>
<totfact> 0.66240392E+04</totfact>
</mgrwt>
</event>
<event>
 7    0  0.4779893E-002  0.4576889E+03  0.7546771E-02  0.1025454E+00
         21   -1    0    0  502  501  0.00000000000E+00  0.00000000000E+00  0.28419525045E+03  0.28419525045E+03  0.00000000000E+00 0.  1.
         21   -1    0    0  501  502 -0.00000000000E+00 -0.00000000000E+00 -0.18427391315E+03  0.18427391315E+03  0.00000000000E+00 0.  1.
      99926    2    1    2    0    0  0.17763568394E-14  0.71054273576E-14  0.99921337295E+02  0.46846916360E+03  0.45768885020E+03 0.  0.
      99925    2    3    3    0    0  0.15074433201E+02  0.62376540208E+02  0.16120877417E+03  0.31510120957E+03  0.26302553506E+03 0.  0.
         25    1    4    4    0    0 -0.11056155907E+02  0.54945276006E+02  0.11528330880E+03  0.17910603376E+03  0.12509000000E+03 0.  0.
         25    1    4    4    0    0  0.26130589107E+02  0.74312642022E+01  0.45925465369E+02  0.13599517581E+03  0.12509000000E+03 0.  0.
         25    1    3    3    0    0 -0.15074433201E+02 -0.62376540208E+02 -0.61287436878E+02  0.15336795403E+03  0.12509000000E+03 0.  0.
<mgrwt>
<rscale>  2 0.45768885E+03</rscale>
<asrwt>0</asrwt>
<pdfrwt beam="1">  1       21 0.41793419E-01 0.45768885E+03</pdfrwt>
<pdfrwt beam="2">  1       21 0.27099105E-01 0.45768885E+03</pdfrwt>
<totfact> 0.66128488E+04</totfact>
</mgrwt>
</event>
<event>
 7    0  0.4779893E-002  0.4239836E+03  0.7546771E-02  0.1035778E+00
         21   -1    0    0  502  501  0.00000000000E+00  0.00000000000E+00  0.55254306578E+03  0.55254306578E+03  0.00000000000E+00 0.  1.
         21   -1    0    0  501  502 -0.00000000000E+00 -0.00000000000E+00 -0.81333983441E+02  0.81333983441E+02  0.00000000000E+00 0.  1.
      99926    2    1    2    0    0  0.00000000000E+00  0.00000000000E+00  0.47120908234E+03  0.63387704922E+03  0.42398362498E+03 0.  0.
      99925    2    3    3    0    0 -0.29640690626E+02  0.32726946429E+02  0.20493561102E+03  0.33638975001E+03  0.26307762293E+03 0.  0.
         25    1    4    4    0    0 -0.24013272578E+02  0.50181469967E+02  0.13329484359E+03  0.19107548408E+03  0.12509000000E+03 0.  0.
         25    1    3    3    0    0  0.29640690626E+02 -0.32726946429E+02  0.26627347132E+03  0.29748729921E+03  0.12509000000E+03 0.  0.
         25    1    4    4    0    0 -0.56274180476E+01 -0.17454523538E+02  0.71640767431E+02  0.14531426593E+03  0.12509000000E+03 0.  0.
<mgrwt>
<rscale>  2 0.42398362E+03</rscale>
<asrwt>0</asrwt>
<pdfrwt beam="1">  1       21 0.81256332E-01 0.42398362E+03</pdfrwt>
<pdfrwt beam="2">  1       21 0.11960880E-01 0.42398362E+03</pdfrwt>
<totfact> 0.72907310E+04</totfact>
</mgrwt>
</event>
<event>
 7    0  0.4779893E-002  0.4545699E+03  0.7546771E-02  0.1026368E+00
         21   -1    0    0  502  501  0.00000000000E+00  0.00000000000E+00  0.12178066677E+03  0.12178066677E+03  0.00000000000E+00 0. -1.
         21   -1    0    0  501  502 -0.00000000000E+00 -0.00000000000E+00 -0.42419245854E+03  0.42419245854E+03  0.00000000000E+00 0. -1.
      99926    2    1    2    0    0  0.00000000000E+00  0.00000000000E+00 -0.30241179177E+03  0.54597312532E+03  0.45456986456E+03 0.  0.
      99925    2    3    3    0    0  0.88190274053E+02  0.45628974171E+02 -0.12608541138E+03  0.30806972424E+03  0.26296367869E+03 0.  0.
         25    1    4    4    0    0  0.31481476117E+02  0.53175504951E+02 -0.89414606995E+02  0.16571420491E+03  0.12509000000E+03 0.  0.
         25    1    4    4    0    0  0.56708797937E+02 -0.75465307803E+01 -0.36670804385E+02  0.14235551933E+03  0.12509000000E+03 0.  0.
         25    1    3    3    0    0 -0.88190274053E+02 -0.45628974171E+02 -0.17632638039E+03  0.23790340107E+03  0.12509000000E+03 0.  0.
<mgrwt>
<rscale>  2 0.45456986E+03</rscale>
<asrwt>0</asrwt>
<pdfrwt beam="1">  1       21 0.17908922E-01 0.45456986E+03</pdfrwt>
<pdfrwt beam="2">  1       21 0.62381242E-01 0.45456986E+03</pdfrwt>
<totfact> 0.62345322E+04</totfact>
</mgrwt>
</event>
<event>
 7    0  0.4779893E-002  0.4546255E+03  0.7546771E-02  0.1026352E+00
         21   -1    0    0  502  501  0.00000000000E+00  0.00000000000E+00  0.96787795549E+02  0.96787795549E+02  0.00000000000E+00 0. -1.
         21   -1    0    0  501  502 -0.00000000000E+00 -0.00000000000E+00 -0.53385960642E+03  0.53385960642E+03  0.00000000000E+00 0. -1.
      99926    2    1    2    0    0  0.00000000000E+00 -0.14210854715E-13 -0.43707181087E+03  0.63064740197E+03  0.45462553575E+03 0.  0.
      99925    2    3    3    0    0 -0.12559660861E+02 -0.11133624055E+03 -0.30042766783E+03  0.41414651636E+03  0.26212029658E+03 0.  0.
         25    1    4    4    0    0 -0.11295019795E+02 -0.65549607744E+02 -0.99707510139E+02  0.17324382882E+03  0.12509000000E+03 0.  0.
         25    1    3    3    0    0  0.12559660861E+02  0.11133624055E+03 -0.13664414305E+03  0.21650088561E+03  0.12509000000E+03 0.  0.
         25    1    4    4    0    0 -0.12646410660E+01 -0.45786632806E+02 -0.20072015769E+03  0.24090268754E+03  0.12509000000E+03 0.  0.
<mgrwt>
<rscale>  2 0.45462554E+03</rscale>
<asrwt>0</asrwt>
<pdfrwt beam="1">  1       21 0.14233499E-01 0.45462554E+03</pdfrwt>
<pdfrwt beam="2">  1       21 0.78508766E-01 0.45462554E+03</pdfrwt>
<totfact> 0.56998703E+04</totfact>
</mgrwt>
</event>
<event>
 7    0  0.4779893E-002  0.4645932E+03  0.7546771E-02  0.1023457E+00
         21   -1    0    0  502  501  0.00000000000E+00  0.00000000000E+00  0.64972330716E+03  0.64972330716E+03  0.00000000000E+00 0. -1.
         21   -1    0    0  501  502 -0.00000000000E+00 -0.00000000000E+00 -0.83053372182E+02  0.83053372182E+02  0.00000000000E+00 0. -1.
      99926    2    1    2    0    0  0.00000000000E+00  0.00000000000E+00  0.56666993498E+03  0.73277667934E+03  0.46459320548E+03 0.  0.
      99925    2    3    3    0    0 -0.85747147830E+01  0.76742873687E+02  0.20409582299E+03  0.34153444085E+03  0.26273118378E+03 0.  0.
         25    1    4    4    0    0 -0.91855302303E+01  0.36102960557E+00  0.11397647611E+03  0.16947757820E+03  0.12509000000E+03 0.  0.
         25    1    3    3    0    0  0.85747147830E+01 -0.76742873687E+02  0.36257411199E+03  0.39124223849E+03  0.12509000000E+03 0.  0.
         25    1    4    4    0    0  0.61081544732E+00  0.76381844082E+02  0.90119346880E+02  0.17205686264E+03  0.12509000000E+03 0.  0.
<mgrwt>
<rscale>  2 0.46459321E+03</rscale>
<asrwt>0</asrwt>
<pdfrwt beam="1">  1       21 0.95547542E-01 0.46459321E+03</pdfrwt>
<pdfrwt beam="2">  1       21 0.12213732E-01 0.46459321E+03</pdfrwt>
<totfact> 0.47475449E+04</totfact>
</mgrwt>
</event>
<event>
 7    0  0.4779893E-002  0.4489783E+03  0.7546771E-02  0.1028027E+00
         21   -1    0    0  502  501  0.00000000000E+00  0.00000000000E+00  0.17152247926E+04  0.17152247926E+04  0.00000000000E+00 0.  1.
         21   -1    0    0  501  502 -0.00000000000E+00 -0.00000000000E+00 -0.29381210638E+02  0.29381210638E+02  0.00000000000E+00 0.  1.
      99926    2    1    2    0    0  0.00000000000E+00  0.00000000000E+00  0.16858435819E+04  0.17446060032E+04  0.44897831094E+03 0.  0.
      99925    2    3    3    0    0  0.26404785478E+02  0.10049211775E+03  0.11723822109E+04  0.12060097110E+04  0.26302755744E+03 0.  0.
         25    1    3    3    0    0 -0.26404785478E+02 -0.10049211775E+03  0.51346137100E+03  0.53859629226E+03  0.12509000000E+03 0.  0.
         25    1    4    4    0    0 -0.25454576176E+01  0.51254214524E+02  0.74117524920E+03  0.75340675069E+03  0.12509000000E+03 0.  0.
         25    1    4    4    0    0  0.28950243096E+02  0.49237903222E+02  0.43120696173E+03  0.45260296026E+03  0.12509000000E+03 0.  0.
<mgrwt>
<rscale>  2 0.44897831E+03</rscale>
<asrwt>0</asrwt>
<pdfrwt beam="1">  1       21 0.25223887E+00 0.44897831E+03</pdfrwt>
<pdfrwt beam="2">  1       21 0.43207674E-02 0.44897831E+03</pdfrwt>
<totfact> 0.19232057E+04</totfact>
</mgrwt>
</event>
<event>
 7    0  0.4779893E-002  0.4095363E+03  0.7546771E-02  0.1040527E+00
         21   -1    0    0  502  501  0.00000000000E+00  0.00000000000E+00  0.17131499185E+03  0.17131499185E+03  0.00000000000E+00 0.  1.
         21   -1    0    0  501  502 -0.00000000000E+00 -0.00000000000E+00 -0.24475385877E+03  0.24475385877E+03  0.00000000000E+00 0.  1.
      99926    2    1    2    0    0  0.00000000000E+00  0.71054273576E-14 -0.73438866920E+02  0.41606885062E+03  0.40953634916E+03 0.  0.
      99925    2    3    3    0    0  0.38191221082E+02  0.41235868173E+02 -0.72961062269E+02  0.27893131897E+03  0.26328767138E+03 0.  0.
         25    1    3    3    0    0 -0.38191221082E+02 -0.41235868173E+02 -0.47780465109E+00  0.13713753166E+03  0.12509000000E+03 0.  0.
         25    1    4    4    0    0  0.21954525537E+02 -0.10877923149E+02 -0.78329416427E+01  0.12770745271E+03  0.12509000000E+03 0.  0.
         25    1    4    4    0    0  0.16236695546E+02  0.52113791322E+02 -0.65128120626E+02  0.15122386625E+03  0.12509000000E+03 0.  0.
<mgrwt>
<rscale>  2 0.40953635E+03</rscale>
<asrwt>0</asrwt>
<pdfrwt beam="1">  1       21 0.25193381E-01 0.40953635E+03</pdfrwt>
<pdfrwt beam="2">  1       21 0.35993214E-01 0.40953635E+03</pdfrwt>
<totfact> 0.10457279E+05</totfact>
</mgrwt>
</event>
<event>
 7    0  0.4779893E-002  0.4574896E+03  0.7546771E-02  0.1025512E+00
         21   -1    0    0  502  501  0.00000000000E+00  0.00000000000E+00  0.58925980315E+03  0.58925980315E+03  0.00000000000E+00 0. -1.
         21   -1    0    0  501  502 -0.00000000000E+00 -0.00000000000E+00 -0.88796452412E+02  0.88796452412E+02  0.00000000000E+00 0. -1.
      99926    2    1    2    0    0  0.00000000000E+00  0.00000000000E+00  0.50046335074E+03  0.67805625556E+03  0.45748958488E+03 0.  0.
      99925    2    3    3    0    0 -0.96487373618E+02  0.62943076260E+02  0.32406212702E+03  0.43303269762E+03  0.26311482460E+03 0.  0.
         25    1    4    4    0    0 -0.83892457993E+02  0.46720236300E+02  0.14949729916E+03  0.21729628516E+03  0.12509000000E+03 0.  0.
         25    1    4    4    0    0 -0.12594915625E+02  0.16222839960E+02  0.17456482786E+03  0.21573641246E+03  0.12509000000E+03 0.  0.
         25    1    3    3    0    0  0.96487373618E+02 -0.62943076260E+02  0.17640122372E+03  0.24502355794E+03  0.12509000000E+03 0.  0.
<mgrwt>
<rscale>  2 0.45748958E+03</rscale>
<asrwt>0</asrwt>
<pdfrwt beam="1">  1       21 0.86655852E-01 0.45748958E+03</pdfrwt>
<pdfrwt beam="2">  1       21 0.13058302E-01 0.45748958E+03</pdfrwt>
<totfact> 0.53062454E+04</totfact>
</mgrwt>
</event>
<event>
 7    0  0.4779893E-002  0.4616061E+03  0.7546771E-02  0.1024316E+00
         21   -1    0    0  502  501  0.00000000000E+00  0.00000000000E+00  0.54875598862E+02  0.54875598862E+02  0.00000000000E+00 0.  1.
         21   -1    0    0  501  502 -0.00000000000E+00 -0.00000000000E+00 -0.97074205147E+03  0.97074205147E+03  0.00000000000E+00 0.  1.
      99926    2    1    2    0    0  0.00000000000E+00  0.00000000000E+00 -0.91586645261E+03  0.10256176503E+04  0.46160611527E+03 0.  0.
      99925    2    3    3    0    0 -0.11357425190E+03 -0.57625885251E+01 -0.49280308047E+03  0.57002743636E+03  0.26295262684E+03 0.  0.
         25    1    4    4    0    0 -0.47503044563E+02  0.20472650884E+01 -0.31803991375E+03  0.34504727991E+03  0.12509000000E+03 0.  0.
         25    1    3    3    0    0  0.11357425190E+03  0.57625885251E+01 -0.42306337213E+03  0.45559021397E+03  0.12509000000E+03 0.  0.
         25    1    4    4    0    0 -0.66071207341E+02 -0.78098536136E+01 -0.17476316672E+03  0.22498015645E+03  0.12509000000E+03 0.  0.
<mgrwt>
<rscale>  2 0.46160612E+03</rscale>
<asrwt>0</asrwt>
<pdfrwt beam="1">  1       21 0.80699418E-02 0.46160612E+03</pdfrwt>
<pdfrwt beam="2">  1       21 0.14275617E+00 0.46160612E+03</pdfrwt>
<totfact> 0.36277475E+04</totfact>
</mgrwt>
</event>
<event>
 7    0  0.4779893E-002  0.4049873E+03  0.7546771E-02  0.1042066E+00
         21   -1    0    0  502  501  0.00000000000E+00  0.00000000000E+00  0.11207324123E+03  0.11207324123E+03  0.00000000000E+00 0. -1.
         21   -1    0    0  501  502 -0.00000000000E+00 -0.00000000000E+00 -0.36586506115E+03  0.36586506115E+03  0.00000000000E+00 0. -1.
      99926    2    1    2    0    0  0.00000000000E+00  0.35527136788E-14 -0.25379181992E+03  0.47793830238E+03  0.40498732452E+03 0.  0.
      99925    2    3    3    0    0 -0.41171790248E+02 -0.28517520887E+02 -0.14341540078E+03  0.30375785769E+03  0.26304466088E+03 0.  0.
         25    1    4    4    0    0 -0.13956509396E+02 -0.50269084905E+02 -0.52991316069E+02  0.14552440596E+03  0.12509000000E+03 0.  0.
         25    1    4    4    0    0 -0.27215280852E+02  0.21751564018E+02 -0.90424084712E+02  0.15823345173E+03  0.12509000000E+03 0.  0.
         25    1    3    3    0    0  0.41171790248E+02  0.28517520887E+02 -0.11037641914E+03  0.17418044469E+03  0.12509000000E+03 0.  0.
<mgrwt>
<rscale>  2 0.40498732E+03</rscale>
<asrwt>0</asrwt>
<pdfrwt beam="1">  1       21 0.16481359E-01 0.40498732E+03</pdfrwt>
<pdfrwt beam="2">  1       21 0.53803685E-01 0.40498732E+03</pdfrwt>
<totfact> 0.10154450E+05</totfact>
</mgrwt>
</event>
<event>
 7    0  0.4779893E-002  0.4581187E+03  0.7546771E-02  0.1025328E+00
         21   -1    0    0  502  501  0.00000000000E+00  0.00000000000E+00  0.12312509027E+03  0.12312509027E+03  0.00000000000E+00 0.  1.
         21   -1    0    0  501  502 -0.00000000000E+00 -0.00000000000E+00 -0.42613724280E+03  0.42613724280E+03  0.00000000000E+00 0.  1.
      99926    2    1    2    0    0 -0.35527136788E-14  0.00000000000E+00 -0.30301215252E+03  0.54926233307E+03  0.45811870291E+03 0.  0.
      99925    2    3    3    0    0 -0.25698244530E+02 -0.10516877131E+03 -0.24046713924E+03  0.37240007871E+03  0.26293821201E+03 0.  0.
         25    1    4    4    0    0 -0.52237560434E+02 -0.48046580201E+02 -0.13263334971E+03  0.19564342602E+03  0.12509000000E+03 0.  0.
         25    1    3    3    0    0  0.25698244530E+02  0.10516877131E+03 -0.62545013285E+02  0.17686225436E+03  0.12509000000E+03 0.  0.
         25    1    4    4    0    0  0.26539315903E+02 -0.57122191110E+02 -0.10783378953E+03  0.17675665269E+03  0.12509000000E+03 0.  0.
<mgrwt>
<rscale>  2 0.45811870E+03</rscale>
<asrwt>0</asrwt>
<pdfrwt beam="1">  1       21 0.18106631E-01 0.45811870E+03</pdfrwt>
<pdfrwt beam="2">  1       21 0.62667242E-01 0.45811870E+03</pdfrwt>
<totfact> 0.60410759E+04</totfact>
</mgrwt>
</event>
<event>
 7    0  0.4779893E-002  0.4432467E+03  0.7546771E-02  0.1029755E+00
         21   -1    0    0  502  501  0.00000000000E+00  0.00000000000E+00  0.36242035566E+03  0.36242035566E+03  0.00000000000E+00 0. -1.
         21   -1    0    0  501  502 -0.00000000000E+00 -0.00000000000E+00 -0.13552469481E+03  0.13552469481E+03  0.00000000000E+00 0. -1.
      99926    2    1    2    0    0 -0.14210854715E-13  0.00000000000E+00  0.22689566084E+03  0.49794505047E+03  0.44324669472E+03 0.  0.
      99925    2    3    3    0    0 -0.81585212120E+02  0.54705291670E+02  0.17413125317E+03  0.33037295676E+03  0.26301289218E+03 0.  0.
         25    1    4    4    0    0 -0.64061036480E+02  0.47352011809E+02  0.12734451556E+03  0.19547420075E+03  0.12509000000E+03 0.  0.
         25    1    4    4    0    0 -0.17524175639E+02  0.73532798617E+01  0.46786737618E+02  0.13489875601E+03  0.12509000000E+03 0.  0.
         25    1    3    3    0    0  0.81585212120E+02 -0.54705291670E+02  0.52764407670E+02  0.16757209371E+03  0.12509000000E+03 0.  0.
<mgrwt>
<rscale>  2 0.44324669E+03</rscale>
<asrwt>0</asrwt>
<pdfrwt beam="1">  1       21 0.53297111E-01 0.44324669E+03</pdfrwt>
<pdfrwt beam="2">  1       21 0.19930102E-01 0.44324669E+03</pdfrwt>
<totfact> 0.71891512E+04</totfact>
</mgrwt>
</event>
<event>
 7    0  0.4779893E-002  0.4759896E+03  0.7546771E-02  0.1020243E+00
         21   -1    0    0  502  501  0.00000000000E+00  0.00000000000E+00  0.18398289680E+04  0.18398289680E+04  0.00000000000E+00 0.  1.
         21   -1    0    0  501  502 -0.00000000000E+00 -0.00000000000E+00 -0.30786297290E+02  0.30786297290E+02  0.00000000000E+00 0.  1.
      99926    2    1    2    0    0  0.00000000000E+00  0.00000000000E+00  0.18090426707E+04  0.18706152653E+04  0.47598958632E+03 0.  0.
      99925    2    3    3    0    0  0.11874700820E+03  0.53073726409E+02  0.10267329378E+04  0.10677617925E+04  0.26271095840E+03 0.  0.
         25    1    3    3    0    0 -0.11874700820E+03 -0.53073726409E+02  0.78230973290E+03  0.80285347274E+03  0.12509000000E+03 0.  0.
         25    1    4    4    0    0  0.81781583111E+02  0.76610463483E+00  0.45069897917E+03  0.47483248854E+03  0.12509000000E+03 0.  0.
         25    1    4    4    0    0  0.36965425091E+02  0.52307621774E+02  0.57603395860E+03  0.59292930397E+03  0.12509000000E+03 0.  0.
<mgrwt>
<rscale>  2 0.47598959E+03</rscale>
<asrwt>0</asrwt>
<pdfrwt beam="1">  1       21 0.27056301E+00 0.47598959E+03</pdfrwt>
<pdfrwt beam="2">  1       21 0.45273979E-02 0.47598959E+03</pdfrwt>
<totfact> 0.13587163E+04</totfact>
</mgrwt>
</event>
<event>
 7    0  0.4779893E-002  0.4554789E+03  0.7546771E-02  0.1026101E+00
         21   -1    0    0  502  501  0.00000000000E+00  0.00000000000E+00  0.40721572228E+03  0.40721572228E+03  0.00000000000E+00 0.  1.
         21   -1    0    0  501  502 -0.00000000000E+00 -0.00000000000E+00 -0.12736553696E+03  0.12736553696E+03  0.00000000000E+00 0.  1.
      99926    2    1    2    0    0 -0.14210854715E-13  0.35527136788E-14  0.27985018532E+03  0.53458125925E+03  0.45547886506E+03 0.  0.
      99925    2    3    3    0    0  0.80146738375E+02 -0.26834469720E+02  0.26511684377E+03  0.38289682402E+03  0.26301986343E+03 0.  0.
         25    1    4    4    0    0  0.56942758930E+02 -0.19030213760E+02  0.86649891797E+02  0.16358587555E+03  0.12509000000E+03 0.  0.
         25    1    3    3    0    0 -0.80146738375E+02  0.26834469720E+02  0.14733341552E+02  0.15168443523E+03  0.12509000000E+03 0.  0.
         25    1    4    4    0    0  0.23203979445E+02 -0.78042559596E+01  0.17846695197E+03  0.21931094847E+03  0.12509000000E+03 0.  0.
<mgrwt>
<rscale>  2 0.45547887E+03</rscale>
<asrwt>0</asrwt>
<pdfrwt beam="1">  1       21 0.59884665E-01 0.45547887E+03</pdfrwt>
<pdfrwt beam="2">  1       21 0.18730226E-01 0.45547887E+03</pdfrwt>
<totfact> 0.62659204E+04</totfact>
</mgrwt>
</event>
<event>
 7    0  0.4779893E-002  0.4632043E+03  0.7546771E-02  0.1023856E+00
         21   -1    0    0  502  501  0.00000000000E+00  0.00000000000E+00  0.22147885592E+03  0.22147885592E+03  0.00000000000E+00 0.  1.
         21   -1    0    0  501  502 -0.00000000000E+00 -0.00000000000E+00 -0.24218810776E+03  0.24218810776E+03  0.00000000000E+00 0.  1.
      99926    2    1    2    0    0  0.00000000000E+00  0.35527136788E-14 -0.20709251838E+02  0.46366696368E+03  0.46320425310E+03 0.  0.
      99925    2    3    3    0    0  0.66898250545E+02  0.17247873672E+02 -0.11221587157E+03  0.29397950207E+03  0.26279018386E+03 0.  0.
         25    1    4    4    0    0  0.53627898688E+02  0.27389385939E+02 -0.26270241676E+02  0.14129318341E+03  0.12509000000E+03 0.  0.
         25    1    3    3    0    0 -0.66898250545E+02 -0.17247873672E+02  0.91506619727E+02  0.16968746161E+03  0.12509000000E+03 0.  0.
         25    1    4    4    0    0  0.13270351857E+02 -0.10141512267E+02 -0.85945629890E+02  0.15268631866E+03  0.12509000000E+03 0.  0.
<mgrwt>
<rscale>  2 0.46320425E+03</rscale>
<asrwt>0</asrwt>
<pdfrwt beam="1">  1       21 0.32570420E-01 0.46320425E+03</pdfrwt>
<pdfrwt beam="2">  1       21 0.35615898E-01 0.46320425E+03</pdfrwt>
<totfact> 0.63646017E+04</totfact>
</mgrwt>
</event>
<event>
 7    0  0.4779893E-002  0.4039411E+03  0.7546771E-02  0.1042424E+00
         21   -1    0    0  502  501  0.00000000000E+00  0.00000000000E+00  0.12499283819E+04  0.12499283819E+04  0.00000000000E+00 0. -1.
         21   -1    0    0  501  502 -0.00000000000E+00 -0.00000000000E+00 -0.32635544892E+02  0.32635544892E+02  0.00000000000E+00 0. -1.
      99926    2    1    2    0    0 -0.35527136788E-14 -0.71054273576E-14  0.12172928370E+04  0.12825639268E+04  0.40394105421E+03 0.  0.
      99925    2    3    3    0    0  0.29104064624E+02 -0.34091827917E+02  0.72014219872E+03  0.76796159046E+03  0.26296562273E+03 0.  0.
         25    1    4    4    0    0 -0.33654158104E+01  0.18085556066E+01  0.43853755970E+03  0.45604527874E+03  0.12509000000E+03 0.  0.
         25    1    4    4    0    0  0.32469480434E+02 -0.35900383523E+02  0.28160463902E+03  0.31191631172E+03  0.12509000000E+03 0.  0.
         25    1    3    3    0    0 -0.29104064624E+02  0.34091827917E+02  0.49715063829E+03  0.51460233634E+03  0.12509000000E+03 0.  0.
<mgrwt>
<rscale>  2 0.40394105E+03</rscale>
<asrwt>0</asrwt>
<pdfrwt beam="1">  1       21 0.18381297E+00 0.40394105E+03</pdfrwt>
<pdfrwt beam="2">  1       21 0.47993457E-02 0.40394105E+03</pdfrwt>
<totfact> 0.45027187E+04</totfact>
</mgrwt>
</event>
<event>
 7    0  0.4779893E-002  0.4555121E+03  0.7546771E-02  0.1026091E+00
         21   -1    0    0  502  501  0.00000000000E+00  0.00000000000E+00  0.19069038188E+03  0.19069038188E+03  0.00000000000E+00 0.  1.
         21   -1    0    0  501  502 -0.00000000000E+00 -0.00000000000E+00 -0.27202638572E+03  0.27202638572E+03  0.00000000000E+00 0.  1.
      99926    2    1    2    0    0  0.71054273576E-14  0.00000000000E+00 -0.81336003836E+02  0.46271676760E+03  0.45551208710E+03 0.  0.
      99925    2    3    3    0    0  0.57134872573E+02  0.78455326921E+02  0.92550816523E+01  0.28030546078E+03  0.26280384856E+03 0.  0.
         25    1    3    3    0    0 -0.57134872573E+02 -0.78455326921E+02 -0.90591085488E+02  0.18241130682E+03  0.12509000000E+03 0.  0.
         25    1    4    4    0    0  0.65086936336E+02  0.40766103927E+02 -0.13696237495E+02  0.14742211344E+03  0.12509000000E+03 0.  0.
         25    1    4    4    0    0 -0.79520637633E+01  0.37689222994E+02  0.22951319147E+02  0.13288334733E+03  0.12509000000E+03 0.  0.
<mgrwt>
<rscale>  2 0.45551209E+03</rscale>
<asrwt>0</asrwt>
<pdfrwt beam="1">  1       21 0.28042703E-01 0.45551209E+03</pdfrwt>
<pdfrwt beam="2">  1       21 0.40003880E-01 0.45551209E+03</pdfrwt>
<totfact> 0.67703915E+04</totfact>
</mgrwt>
</event>
<event>
 7    0  0.4779893E-002  0.4629527E+03  0.7546771E-02  0.1023928E+00
         21   -1    0    0  502  501  0.00000000000E+00  0.00000000000E+00  0.47219123325E+02  0.47219123325E+02  0.00000000000E+00 0.  1.
         21   -1    0    0  501  502 -0.00000000000E+00 -0.00000000000E+00 -0.11347370676E+04  0.11347370676E+04  0.00000000000E+00 0.  1.
      99926    2    1    2    0    0  0.44408920985E-15  0.00000000000E+00 -0.10875179443E+04  0.11819561910E+04  0.46295265217E+03 0.  0.
      99925    2    3    3    0    0 -0.19023125829E+01 -0.41436304921E+02 -0.96833951230E+03  0.10042722218E+04  0.26298421651E+03 0.  0.
         25    1    3    3    0    0  0.19023125829E+01  0.41436304921E+02 -0.11917843201E+03  0.17768396921E+03  0.12509000000E+03 0.  0.
         25    1    4    4    0    0  0.49355036470E+01 -0.58986241633E+02 -0.45527670281E+03  0.47584463864E+03  0.12509000000E+03 0.  0.
         25    1    4    4    0    0 -0.68378162298E+01  0.17549936712E+02 -0.51306280949E+03  0.52842758311E+03  0.12509000000E+03 0.  0.
<mgrwt>
<rscale>  2 0.46295265E+03</rscale>
<asrwt>0</asrwt>
<pdfrwt beam="1">  1       21 0.69439885E-02 0.46295265E+03</pdfrwt>
<pdfrwt beam="2">  1       21 0.16687310E+00 0.46295265E+03</pdfrwt>
<totfact> 0.30781192E+04</totfact>
</mgrwt>
</event>
<event>
 7    0  0.4779893E-002  0.4406987E+03  0.7546771E-02  0.1030533E+00
         21   -1    0    0  502  501  0.00000000000E+00  0.00000000000E+00  0.20085535713E+04  0.20085535713E+04  0.00000000000E+00 0. -1.
         21   -1    0    0  501  502 -0.00000000000E+00 -0.00000000000E+00 -0.24173529731E+02  0.24173529731E+02  0.00000000000E+00 0. -1.
      99926    2    1    2    0    0  0.00000000000E+00  0.00000000000E+00  0.19843800416E+04  0.20327271011E+04  0.44069867017E+03 0.  0.
      99925    2    3    3    0    0 -0.10085714416E+02 -0.98331822231E+02  0.13015322252E+04  0.13315142109E+04  0.26300777866E+03 0.  0.
         25    1    4    4    0    0  0.97086265527E+01 -0.57345787657E+02  0.48637924750E+03  0.50556411789E+03  0.12509000000E+03 0.  0.
         25    1    4    4    0    0 -0.19794340969E+02 -0.40986034574E+02  0.81515297769E+03  0.82595009298E+03  0.12509000000E+03 0.  0.
         25    1    3    3    0    0  0.10085714416E+02  0.98331822231E+02  0.68284781640E+03  0.70121289019E+03  0.12509000000E+03 0.  0.
<mgrwt>
<rscale>  2 0.44069867E+03</rscale>
<asrwt>0</asrwt>
<pdfrwt beam="1">  1       21 0.29537541E+00 0.44069867E+03</pdfrwt>
<pdfrwt beam="2">  1       21 0.35549322E-02 0.44069867E+03</pdfrwt>
<totfact> 0.14754047E+04</totfact>
</mgrwt>
</event>
<event>
 7    0  0.4779893E-002  0.4529845E+03  0.7546771E-02  0.1026836E+00
         21   -1    0    0  502  501  0.00000000000E+00  0.00000000000E+00  0.73593393324E+03  0.73593393324E+03  0.00000000000E+00 0. -1.
         21   -1    0    0  501  502 -0.00000000000E+00 -0.00000000000E+00 -0.69705618076E+02  0.69705618076E+02  0.00000000000E+00 0. -1.
      99926    2    1    2    0    0  0.00000000000E+00 -0.14210854715E-13  0.66622831516E+03  0.80563955131E+03  0.45298445748E+03 0.  0.
      99925    2    3    3    0    0  0.32184205842E+02  0.92366988802E+02  0.32502613667E+03  0.42929673096E+03  0.26284255737E+03 0.  0.
         25    1    4    4    0    0  0.21996925583E+02  0.50649787848E+01  0.13536295068E+03  0.18568832829E+03  0.12509000000E+03 0.  0.
         25    1    3    3    0    0 -0.32184205842E+02 -0.92366988802E+02  0.34120217850E+03  0.37634282036E+03  0.12509000000E+03 0.  0.
         25    1    4    4    0    0  0.10187280259E+02  0.87302010017E+02  0.18966318598E+03  0.24360840267E+03  0.12509000000E+03 0.  0.
<mgrwt>
<rscale>  2 0.45298446E+03</rscale>
<asrwt>0</asrwt>
<pdfrwt beam="1">  1       21 0.10822557E+00 0.45298446E+03</pdfrwt>
<pdfrwt beam="2">  1       21 0.10250827E-01 0.45298446E+03</pdfrwt>
<totfact> 0.48251921E+04</totfact>
</mgrwt>
</event>
<event>
 7    0  0.4779893E-002  0.4554829E+03  0.7546771E-02  0.1026099E+00
         21   -1    0    0  502  501  0.00000000000E+00  0.00000000000E+00  0.39064275173E+02  0.39064275173E+02  0.00000000000E+00 0. -1.
         21   -1    0    0  501  502 -0.00000000000E+00 -0.00000000000E+00 -0.13277137606E+04  0.13277137606E+04  0.00000000000E+00 0. -1.
      99926    2    1    2    0    0  0.00000000000E+00  0.00000000000E+00 -0.12886494855E+04  0.13667780358E+04  0.45548293358E+03 0.  0.
      99925    2    3    3    0    0 -0.25197661065E+02 -0.10699445472E+03 -0.72373468592E+03  0.77783069155E+03  0.26295618200E+03 0.  0.
         25    1    4    4    0    0  0.61555569152E+01 -0.16773503646E+02 -0.28632276726E+03  0.31296561546E+03  0.12509000000E+03 0.  0.
         25    1    4    4    0    0 -0.31353217981E+02 -0.90220951072E+02 -0.43741191866E+03  0.46486507609E+03  0.12509000000E+03 0.  0.
         25    1    3    3    0    0  0.25197661065E+02  0.10699445472E+03 -0.56491479955E+03  0.58894734427E+03  0.12509000000E+03 0.  0.
<mgrwt>
<rscale>  2 0.45548293E+03</rscale>
<asrwt>0</asrwt>
<pdfrwt beam="1">  1       21 0.57447470E-02 0.45548293E+03</pdfrwt>
<pdfrwt beam="2">  1       21 0.19525200E+00 0.45548293E+03</pdfrwt>
<totfact> 0.27128956E+04</totfact>
</mgrwt>
</event>
<event>
 7    0  0.4779893E-002  0.4544049E+03  0.7546771E-02  0.1026417E+00
         21   -1    0    0  502  501  0.00000000000E+00  0.00000000000E+00  0.29575847139E+03  0.29575847139E+03  0.00000000000E+00 0.  1.
         21   -1    0    0  501  502 -0.00000000000E+00 -0.00000000000E+00 -0.17453750826E+03  0.17453750826E+03  0.00000000000E+00 0.  1.
      99926    2    1    2    0    0  0.00000000000E+00  0.35527136788E-14  0.12122096312E+03  0.47029597965E+03  0.45440487076E+03 0.  0.
      99925    2    3    3    0    0  0.89287871320E+01  0.24606030150E+02  0.19012535095E+03  0.32510471710E+03  0.26241236261E+03 0.  0.
         25    1    4    4    0    0  0.11320355336E+02 -0.10246894146E+02  0.13299939268E+03  0.18321980198E+03  0.12509000000E+03 0.  0.
         25    1    3    3    0    0 -0.89287871320E+01 -0.24606030150E+02 -0.68904387823E+02  0.14519126255E+03  0.12509000000E+03 0.  0.
         25    1    4    4    0    0 -0.23915682043E+01  0.34852924296E+02  0.57125958264E+02  0.14188491512E+03  0.12509000000E+03 0.  0.
<mgrwt>
<rscale>  2 0.45440487E+03</rscale>
<asrwt>0</asrwt>
<pdfrwt beam="1">  1       21 0.43493893E-01 0.45440487E+03</pdfrwt>
<pdfrwt beam="2">  1       21 0.25667281E-01 0.45440487E+03</pdfrwt>
<totfact> 0.67732927E+04</totfact>
</mgrwt>
</event>
<event>
 7    0  0.4779893E-002  0.4576096E+03  0.7546771E-02  0.1025477E+00
         21   -1    0    0  502  501  0.00000000000E+00  0.00000000000E+00  0.38090396724E+03  0.38090396724E+03  0.00000000000E+00 0.  1.
         21   -1    0    0  501  502 -0.00000000000E+00 -0.00000000000E+00 -0.13744052412E+03  0.13744052412E+03  0.00000000000E+00 0.  1.
      99926    2    1    2    0    0  0.00000000000E+00  0.00000000000E+00  0.24346344312E+03  0.51834449136E+03  0.45760961920E+03 0.  0.
      99925    2    3    3    0    0 -0.11165588389E+03  0.16357246078E+02  0.12433519633E+03  0.31201067642E+03  0.26297685306E+03 0.  0.
         25    1    4    4    0    0 -0.78441824184E+02  0.41083953878E+02  0.80701482644E+02  0.17320868468E+03  0.12509000000E+03 0.  0.
         25    1    4    4    0    0 -0.33214059702E+02 -0.24726707800E+02  0.43633713689E+02  0.13880199174E+03  0.12509000000E+03 0.  0.
         25    1    3    3    0    0  0.11165588389E+03 -0.16357246078E+02  0.11912824678E+03  0.20633381494E+03  0.12509000000E+03 0.  0.
<mgrwt>
<rscale>  2 0.45760962E+03</rscale>
<asrwt>0</asrwt>
<pdfrwt beam="1">  1       21 0.56015289E-01 0.45760962E+03</pdfrwt>
<pdfrwt beam="2">  1       21 0.20211842E-01 0.45760962E+03</pdfrwt>
<totfact> 0.62691992E+04</totfact>
</mgrwt>
</event>
<event>
 7    0  0.4779893E-002  0.4268813E+03  0.7546771E-02  0.1034850E+00
         21   -1    0    0  502  501  0.00000000000E+00  0.00000000000E+00  0.48872955643E+03  0.48872955643E+03  0.00000000000E+00 0. -1.
         21   -1    0    0  501  502 -0.00000000000E+00 -0.00000000000E+00 -0.93214970037E+02  0.93214970037E+02  0.00000000000E+00 0. -1.
      99926    2    1    2    0    0  0.00000000000E+00  0.00000000000E+00  0.39551458639E+03  0.58194452647E+03  0.42688129947E+03 0.  0.
      99925    2    3    3    0    0  0.10658830918E+02 -0.59311092598E+02  0.17572046252E+03  0.32196687094E+03  0.26297066121E+03 0.  0.
         25    1    4    4    0    0 -0.10330677391E+02 -0.49817626458E+02  0.12815267448E+03  0.18616964005E+03  0.12509000000E+03 0.  0.
         25    1    3    3    0    0 -0.10658830918E+02  0.59311092598E+02  0.21979412387E+03  0.25997765552E+03  0.12509000000E+03 0.  0.
         25    1    4    4    0    0  0.20989508310E+02 -0.94934661407E+01  0.47567788037E+02  0.13579723089E+03  0.12509000000E+03 0.  0.
<mgrwt>
<rscale>  2 0.42688130E+03</rscale>
<asrwt>0</asrwt>
<pdfrwt beam="1">  1       21 0.71871993E-01 0.42688130E+03</pdfrwt>
<pdfrwt beam="2">  1       21 0.13708084E-01 0.42688130E+03</pdfrwt>
<totfact> 0.75169063E+04</totfact>
</mgrwt>
</event>
<event>
 7    0  0.4779893E-002  0.4674294E+03  0.7546771E-02  0.1022648E+00
         21   -1    0    0  502  501  0.00000000000E+00  0.00000000000E+00  0.55955282102E+03  0.55955282102E+03  0.00000000000E+00 0. -1.
         21   -1    0    0  501  502 -0.00000000000E+00 -0.00000000000E+00 -0.97618229880E+02  0.97618229880E+02  0.00000000000E+00 0. -1.
      99926    2    1    2    0    0  0.71054273576E-14 -0.14210854715E-13  0.46193459114E+03  0.65717105090E+03  0.46742937825E+03 0.  0.
      99925    2    3    3    0    0 -0.60624449618E+02  0.87463896031E+02  0.19690179046E+03  0.34537760880E+03  0.26304015012E+03 0.  0.
         25    1    4    4    0    0 -0.33864726523E+02  0.12826731811E+02  0.12590333057E+03  0.18113669286E+03  0.12509000000E+03 0.  0.
         25    1    3    3    0    0  0.60624449618E+02 -0.87463896031E+02  0.26503280068E+03  0.31179344210E+03  0.12509000000E+03 0.  0.
         25    1    4    4    0    0 -0.26759723096E+02  0.74637164220E+02  0.70998459892E+02  0.16424091594E+03  0.12509000000E+03 0.  0.
<mgrwt>
<rscale>  2 0.46742938E+03</rscale>
<asrwt>0</asrwt>
<pdfrwt beam="1">  1       21 0.82287178E-01 0.46742938E+03</pdfrwt>
<pdfrwt beam="2">  1       21 0.14355622E-01 0.46742938E+03</pdfrwt>
<totfact> 0.50185916E+04</totfact>
</mgrwt>
</event>
<event>
 7    0  0.4779893E-002  0.4462749E+03  0.7546771E-02  0.1028839E+00
         21   -1    0    0  502  501  0.00000000000E+00  0.00000000000E+00  0.22425899739E+03  0.22425899739E+03  0.00000000000E+00 0. -1.
         21   -1    0    0  501  502 -0.00000000000E+00 -0.00000000000E+00 -0.22202152458E+03  0.22202152458E+03  0.00000000000E+00 0. -1.
      99926    2    1    2    0    0  0.00000000000E+00  0.00000000000E+00  0.22374728064E+01  0.44628052197E+03  0.44627491304E+03 0.  0.
      99925    2    3    3    0    0  0.82195541943E+02 -0.62485010207E+02  0.19268484838E+02  0.28319144482E+03  0.26299360505E+03 0.  0.
         25    1    4    4    0    0  0.58954553454E+02 -0.56500189292E+02 -0.18039126941E+02  0.15046869762E+03  0.12509000000E+03 0.  0.
         25    1    3    3    0    0 -0.82195541943E+02  0.62485010207E+02 -0.17031012032E+02  0.16308907715E+03  0.12509000000E+03 0.  0.
         25    1    4    4    0    0  0.23240988489E+02 -0.59848209153E+01  0.37307611779E+02  0.13272274720E+03  0.12509000000E+03 0.  0.
<mgrwt>
<rscale>  2 0.44627491E+03</rscale>
<asrwt>0</asrwt>
<pdfrwt beam="1">  1       21 0.32979264E-01 0.44627491E+03</pdfrwt>
<pdfrwt beam="2">  1       21 0.32650224E-01 0.44627491E+03</pdfrwt>
<totfact> 0.74223552E+04</totfact>
</mgrwt>
</event>
<event>
 7    0  0.4779893E-002  0.4519685E+03  0.7546771E-02  0.1027137E+00
         21   -1    0    0  502  501  0.00000000000E+00  0.00000000000E+00  0.39335372814E+03  0.39335372814E+03  0.00000000000E+00 0. -1.
         21   -1    0    0  501  502 -0.00000000000E+00 -0.00000000000E+00 -0.12982943564E+03  0.12982943564E+03  0.00000000000E+00 0. -1.
      99926    2    1    2    0    0  0.35527136788E-14 -0.88817841970E-15  0.26352429251E+03  0.52318316378E+03  0.45196854993E+03 0.  0.
      99925    2    3    3    0    0 -0.18110278389E+02 -0.10069456508E+01  0.40406327463E+02  0.26674968206E+03  0.26304700237E+03 0.  0.
         25    1    4    4    0    0  0.22210678951E+02 -0.12923524986E+02 -0.32664217770E+01  0.12774392106E+03  0.12509000000E+03 0.  0.
         25    1    3    3    0    0  0.18110278389E+02  0.10069456508E+01  0.22311796504E+03  0.25643348172E+03  0.12509000000E+03 0.  0.
         25    1    4    4    0    0 -0.40320957340E+02  0.11916579335E+02  0.43672749240E+02  0.13900576100E+03  0.12509000000E+03 0.  0.
<mgrwt>
<rscale>  2 0.45196855E+03</rscale>
<asrwt>0</asrwt>
<pdfrwt beam="1">  1       21 0.57846136E-01 0.45196855E+03</pdfrwt>
<pdfrwt beam="2">  1       21 0.19092564E-01 0.45196855E+03</pdfrwt>
<totfact> 0.65223691E+04</totfact>
</mgrwt>
</event>
<event>
 7    0  0.4779893E-002  0.4500846E+03  0.7546771E-02  0.1027697E+00
         21   -1    0    0  502  501  0.00000000000E+00  0.00000000000E+00  0.22420557483E+03  0.22420557483E+03  0.00000000000E+00 0.  1.
         21   -1    0    0  501  502 -0.00000000000E+00 -0.00000000000E+00 -0.22588216779E+03  0.22588216779E+03  0.00000000000E+00 0.  1.
      99926    2    1    2    0    0 -0.14210854715E-13 -0.17763568394E-14 -0.16765929615E+01  0.45008774261E+03  0.45008461992E+03 0.  0.
      99925    2    3    3    0    0  0.82287806776E+02  0.10267441314E+02  0.68916116593E+02  0.28423376395E+03  0.26298801864E+03 0.  0.
         25    1    4    4    0    0 -0.12698049386E+00  0.68376935181E+00  0.22360803047E+02  0.12707477042E+03  0.12509000000E+03 0.  0.
         25    1    3    3    0    0 -0.82287806776E+02 -0.10267441314E+02 -0.70592709554E+02  0.16585397866E+03  0.12509000000E+03 0.  0.
         25    1    4    4    0    0  0.82414787270E+02  0.95836719622E+01  0.46555313545E+02  0.15715899353E+03  0.12509000000E+03 0.  0.
<mgrwt>
<rscale>  2 0.45008462E+03</rscale>
<asrwt>0</asrwt>
<pdfrwt beam="1">  1       21 0.32971408E-01 0.45008462E+03</pdfrwt>
<pdfrwt beam="2">  1       21 0.33217966E-01 0.45008462E+03</pdfrwt>
<totfact> 0.71677345E+04</totfact>
</mgrwt>
</event>
<event>
 7    0  0.4779893E-002  0.4626295E+03  0.7546771E-02  0.1024021E+00
         21   -1    0    0  502  501  0.00000000000E+00  0.00000000000E+00  0.21006978609E+03  0.21006978609E+03  0.00000000000E+00 0.  1.
         21   -1    0    0  501  502 -0.00000000000E+00 -0.00000000000E+00 -0.25470829210E+03  0.25470829210E+03  0.00000000000E+00 0.  1.
      99926    2    1    2    0    0  0.00000000000E+00  0.71054273576E-14 -0.44638506014E+02  0.46477807819E+03  0.46262951241E+03 0.  0.
      99925    2    3    3    0    0 -0.66366934483E+02  0.31761764316E+02 -0.12333567988E+03  0.29968982016E+03  0.26303786554E+03 0.  0.
         25    1    3    3    0    0  0.66366934483E+02 -0.31761764316E+02  0.78697173870E+02  0.16508825803E+03  0.12509000000E+03 0.  0.
         25    1    4    4    0    0 -0.13743471721E+02 -0.19510294563E+02 -0.68505291489E+02  0.14460296564E+03  0.12509000000E+03 0.  0.
         25    1    4    4    0    0 -0.52623462762E+02  0.51272058879E+02 -0.54830388396E+02  0.15508685452E+03  0.12509000000E+03 0.  0.
<mgrwt>
<rscale>  2 0.46262951E+03</rscale>
<asrwt>0</asrwt>
<pdfrwt beam="1">  1       21 0.30892616E-01 0.46262951E+03</pdfrwt>
<pdfrwt beam="2">  1       21 0.37457102E-01 0.46262951E+03</pdfrwt>
<totfact> 0.63858627E+04</totfact>
</mgrwt>
</event>
<event>
 7    0  0.4779893E-002  0.4609087E+03  0.7546771E-02  0.1024518E+00
         21   -1    0    0  502  501  0.00000000000E+00  0.00000000000E+00  0.45460380101E+03  0.45460380101E+03  0.00000000000E+00 0. -1.
         21   -1    0    0  501  502 -0.00000000000E+00 -0.00000000000E+00 -0.11682526305E+03  0.11682526305E+03  0.00000000000E+00 0. -1.
      99926    2    1    2    0    0  0.71054273576E-14  0.14210854715E-13  0.33777853796E+03  0.57142906406E+03  0.46090870522E+03 0.  0.
      99925    2    3    3    0    0 -0.55648245310E+02 -0.10473230908E+03  0.20707452928E+03  0.35510377715E+03  0.26297005171E+03 0.  0.
         25    1    3    3    0    0  0.55648245310E+02  0.10473230908E+03  0.13070400868E+03  0.21632528691E+03  0.12509000000E+03 0.  0.
         25    1    4    4    0    0 -0.51873534022E+02 -0.89344962529E+02  0.11082012148E+03  0.19647389976E+03  0.12509000000E+03 0.  0.
         25    1    4    4    0    0 -0.37747112881E+01 -0.15387346555E+02  0.96254407806E+02  0.15862987739E+03  0.12509000000E+03 0.  0.
<mgrwt>
<rscale>  2 0.46090871E+03</rscale>
<asrwt>0</asrwt>
<pdfrwt beam="1">  1       21 0.66853499E-01 0.46090871E+03</pdfrwt>
<pdfrwt beam="2">  1       21 0.17180186E-01 0.46090871E+03</pdfrwt>
<totfact> 0.57727366E+04</totfact>
</mgrwt>
</event>
<event>
 7    0  0.4779893E-002  0.4437794E+03  0.7546771E-02  0.1029593E+00
         21   -1    0    0  502  501  0.00000000000E+00  0.00000000000E+00  0.63983407417E+02  0.63983407417E+02  0.00000000000E+00 0. -1.
         21   -1    0    0  501  502 -0.00000000000E+00 -0.00000000000E+00 -0.76949688415E+03  0.76949688415E+03  0.00000000000E+00 0. -1.
      99926    2    1    2    0    0  0.00000000000E+00  0.00000000000E+00 -0.70551347673E+03  0.83348029157E+03  0.44377937151E+03 0.  0.
      99925    2    3    3    0    0  0.48848115988E+02  0.88128888996E+02 -0.47627103116E+03  0.55356522148E+03  0.26352897335E+03 0.  0.
         25    1    4    4    0    0  0.15150965846E+02  0.42722811339E+02 -0.15548669991E+03  0.20464215676E+03  0.12509000000E+03 0.  0.
         25    1    3    3    0    0 -0.48848115988E+02 -0.88128888996E+02 -0.22924244558E+03  0.27991507009E+03  0.12509000000E+03 0.  0.
         25    1    4    4    0    0  0.33697150142E+02  0.45406077657E+02 -0.32078433125E+03  0.34892306472E+03  0.12509000000E+03 0.  0.
<mgrwt>
<rscale>  2 0.44377937E+03</rscale>
<asrwt>0</asrwt>
<pdfrwt beam="1">  1       21 0.94093253E-02 0.44377937E+03</pdfrwt>
<pdfrwt beam="2">  1       21 0.11316130E+00 0.44377937E+03</pdfrwt>
<totfact> 0.50487690E+04</totfact>
</mgrwt>
</event>
<event>
 7    0  0.4779893E-002  0.4738526E+03  0.7546771E-02  0.1020838E+00
         21   -1    0    0  502  501  0.00000000000E+00  0.00000000000E+00  0.31267738664E+03  0.31267738664E+03  0.00000000000E+00 0. -1.
         21   -1    0    0  501  502 -0.00000000000E+00 -0.00000000000E+00 -0.17952709335E+03  0.17952709335E+03  0.00000000000E+00 0. -1.
      99926    2    1    2    0    0  0.00000000000E+00  0.14210854715E-13  0.13315029328E+03  0.49220447999E+03  0.47385256095E+03 0.  0.
      99925    2    3    3    0    0  0.75014757662E+02 -0.10291937486E+03  0.11013196352E+03  0.31221291576E+03  0.26292250529E+03 0.  0.
         25    1    4    4    0    0  0.78667448357E+02 -0.58758715416E+02  0.68283186074E+02  0.17306431079E+03  0.12509000000E+03 0.  0.
         25    1    4    4    0    0 -0.36526906952E+01 -0.44160659444E+02  0.41848777451E+02  0.13914860497E+03  0.12509000000E+03 0.  0.
         25    1    3    3    0    0 -0.75014757662E+02  0.10291937486E+03  0.23018329758E+02  0.17999156423E+03  0.12509000000E+03 0.  0.
<mgrwt>
<rscale>  2 0.47385256E+03</rscale>
<asrwt>0</asrwt>
<pdfrwt beam="1">  1       21 0.45981969E-01 0.47385256E+03</pdfrwt>
<pdfrwt beam="2">  1       21 0.26401043E-01 0.47385256E+03</pdfrwt>
<totfact> 0.56829684E+04</totfact>
</mgrwt>
</event>
<event>
 7    0  0.4779893E-002  0.4522580E+03  0.7546771E-02  0.1027051E+00
         21   -1    0    0  502  501  0.00000000000E+00  0.00000000000E+00  0.98220193963E+03  0.98220193963E+03  0.00000000000E+00 0. -1.
         21   -1    0    0  501  502 -0.00000000000E+00 -0.00000000000E+00 -0.52060899886E+02  0.52060899886E+02  0.00000000000E+00 0. -1.
      99926    2    1    2    0    0 -0.71054273576E-14  0.14210854715E-13  0.93014103974E+03  0.10342628395E+04  0.45225796553E+03 0.  0.
      99925    2    3    3    0    0 -0.36630797004E+02  0.10365944769E+03  0.55932750002E+03  0.62776894568E+03  0.26298193948E+03 0.  0.
         25    1    4    4    0    0 -0.13447175690E+02  0.87194453012E+02  0.25356141841E+03  0.29618338943E+03  0.12509000000E+03 0.  0.
         25    1    4    4    0    0 -0.23183621314E+02  0.16464994680E+02  0.30576608161E+03  0.33158555625E+03  0.12509000000E+03 0.  0.
         25    1    3    3    0    0  0.36630797004E+02 -0.10365944769E+03  0.37081353972E+03  0.40649389383E+03  0.12509000000E+03 0.  0.
<mgrwt>
<rscale>  2 0.45225797E+03</rscale>
<asrwt>0</asrwt>
<pdfrwt beam="1">  1       21 0.14444145E+00 0.45225797E+03</pdfrwt>
<pdfrwt beam="2">  1       21 0.76560153E-02 0.45225797E+03</pdfrwt>
<totfact> 0.38681594E+04</totfact>
</mgrwt>
</event>
<event>
 7    0  0.4779893E-002  0.4444212E+03  0.7546771E-02  0.1029399E+00
         21   -1    0    0  502  501  0.00000000000E+00  0.00000000000E+00  0.31008923002E+03  0.31008923002E+03  0.00000000000E+00 0.  1.
         21   -1    0    0  501  502 -0.00000000000E+00 -0.00000000000E+00 -0.15923660055E+03  0.15923660055E+03  0.00000000000E+00 0.  1.
      99926    2    1    2    0    0  0.00000000000E+00  0.14210854715E-13  0.15085262947E+03  0.46932583057E+03  0.44442121847E+03 0.  0.
      99925    2    3    3    0    0 -0.53230648431E+02  0.68670751268E+02  0.15401770794E+03  0.31698837676E+03  0.26307984079E+03 0.  0.
         25    1    4    4    0    0  0.11824229863E+02  0.45993741789E+02  0.65505294349E+02  0.14897546235E+03  0.12509000000E+03 0.  0.
         25    1    3    3    0    0  0.53230648431E+02 -0.68670751268E+02 -0.31650784671E+01  0.15233745381E+03  0.12509000000E+03 0.  0.
         25    1    4    4    0    0 -0.65054878293E+02  0.22677009478E+02  0.88512413587E+02  0.16801291441E+03  0.12509000000E+03 0.  0.
<mgrwt>
<rscale>  2 0.44442122E+03</rscale>
<asrwt>0</asrwt>
<pdfrwt beam="1">  1       21 0.45601358E-01 0.44442122E+03</pdfrwt>
<pdfrwt beam="2">  1       21 0.23417147E-01 0.44442122E+03</pdfrwt>
<totfact> 0.73462022E+04</totfact>
</mgrwt>
</event>
<event>
 7    0  0.4779893E-002  0.4404126E+03  0.7546771E-02  0.1030620E+00
         21   -1    0    0  502  501  0.00000000000E+00  0.00000000000E+00  0.18822413113E+04  0.18822413113E+04  0.00000000000E+00 0. -1.
         21   -1    0    0  501  502 -0.00000000000E+00 -0.00000000000E+00 -0.25762270695E+02  0.25762270695E+02  0.00000000000E+00 0. -1.
      99926    2    1    2    0    0  0.00000000000E+00  0.00000000000E+00  0.18564790406E+04  0.19080035819E+04  0.44041258008E+03 0.  0.
      99925    2    3    3    0    0  0.46078628171E+02 -0.41336193378E+02  0.15190718722E+04  0.15428693241E+04  0.26274412961E+03 0.  0.
         25    1    4    4    0    0  0.19744178962E+02  0.19740051842E+02  0.74215780703E+03  0.75314355928E+03  0.12509000000E+03 0.  0.
         25    1    4    4    0    0  0.26334449209E+02 -0.61076245220E+02  0.77691406513E+03  0.78972576483E+03  0.12509000000E+03 0.  0.
         25    1    3    3    0    0 -0.46078628171E+02  0.41336193378E+02  0.33740716840E+03  0.36513425783E+03  0.12509000000E+03 0.  0.
<mgrwt>
<rscale>  2 0.44041258E+03</rscale>
<asrwt>0</asrwt>
<pdfrwt beam="1">  1       21 0.27680010E+00 0.44041258E+03</pdfrwt>
<pdfrwt beam="2">  1       21 0.37885705E-02 0.44041258E+03</pdfrwt>
<totfact> 0.17129186E+04</totfact>
</mgrwt>
</event>
<event>
 7    0  0.4779893E-002  0.4598593E+03  0.7546771E-02  0.1024822E+00
         21   -1    0    0  502  501  0.00000000000E+00  0.00000000000E+00  0.12614586616E+04  0.12614586616E+04  0.00000000000E+00 0. -1.
         21   -1    0    0  501  502 -0.00000000000E+00 -0.00000000000E+00 -0.41909934784E+02  0.41909934784E+02  0.00000000000E+00 0. -1.
      99926    2    1    2    0    0  0.00000000000E+00  0.71054273576E-14  0.12195487268E+04  0.13033685964E+04  0.45985932736E+03 0.  0.
      99925    2    3    3    0    0 -0.14189076713E+02 -0.35494076990E+02  0.10794177927E+04  0.11116778397E+04  0.26310395035E+03 0.  0.
         25    1    4    4    0    0  0.26240717589E+02 -0.28909262499E+02  0.62449930259E+03  0.63809968481E+03  0.12509000000E+03 0.  0.
         25    1    3    3    0    0  0.14189076713E+02  0.35494076990E+02  0.14013093411E+03  0.19169075667E+03  0.12509000000E+03 0.  0.
         25    1    4    4    0    0 -0.40429794302E+02 -0.65848144914E+01  0.45491849010E+03  0.47357815488E+03  0.12509000000E+03 0.  0.
<mgrwt>
<rscale>  2 0.45985933E+03</rscale>
<asrwt>0</asrwt>
<pdfrwt beam="1">  1       21 0.18550860E+00 0.45985933E+03</pdfrwt>
<pdfrwt beam="2">  1       21 0.61632266E-02 0.45985933E+03</pdfrwt>
<totfact> 0.27945789E+04</totfact>
</mgrwt>
</event>
<event>
 7    0  0.4779893E-002  0.4545005E+03  0.7546771E-02  0.1026388E+00
         21   -1    0    0  502  501  0.00000000000E+00  0.00000000000E+00  0.36218189744E+03  0.36218189744E+03  0.00000000000E+00 0. -1.
         21   -1    0    0  501  502 -0.00000000000E+00 -0.00000000000E+00 -0.14258770710E+03  0.14258770710E+03  0.00000000000E+00 0. -1.
      99926    2    1    2    0    0  0.14210854715E-13  0.35527136788E-14  0.21959419034E+03  0.50476960454E+03  0.45450054481E+03 0.  0.
      99925    2    3    3    0    0 -0.10762568567E+03 -0.31945543404E+02  0.14807191168E+03  0.32210392521E+03  0.26310044023E+03 0.  0.
         25    1    3    3    0    0  0.10762568567E+03  0.31945543404E+02  0.71522278656E+02  0.18266567932E+03  0.12509000000E+03 0.  0.
         25    1    4    4    0    0 -0.67117353023E+02 -0.27896902896E+02  0.11913037639E+03  0.18741006095E+03  0.12509000000E+03 0.  0.
         25    1    4    4    0    0 -0.40508332645E+02 -0.40486405076E+01  0.28941535291E+02  0.13469386426E+03  0.12509000000E+03 0.  0.
<mgrwt>
<rscale>  2 0.45450054E+03</rscale>
<asrwt>0</asrwt>
<pdfrwt beam="1">  1       21 0.53262043E-01 0.45450054E+03</pdfrwt>
<pdfrwt beam="2">  1       21 0.20968781E-01 0.45450054E+03</pdfrwt>
<totfact> 0.65194936E+04</totfact>
</mgrwt>
</event>
<event>
 7    0  0.4779893E-002  0.4571538E+03  0.7546771E-02  0.1025610E+00
         21   -1    0    0  502  501  0.00000000000E+00  0.00000000000E+00  0.71776270814E+03  0.71776270814E+03  0.00000000000E+00 0. -1.
         21   -1    0    0  501  502 -0.00000000000E+00 -0.00000000000E+00 -0.72792028748E+02  0.72792028748E+02  0.00000000000E+00 0. -1.
      99926    2    1    2    0    0  0.00000000000E+00  0.00000000000E+00  0.64497067939E+03  0.79055473689E+03  0.45715381956E+03 0.  0.
      99925    2    3    3    0    0 -0.11353248892E+03 -0.14122055035E+02  0.38115189835E+03  0.47696756271E+03  0.26293008154E+03 0.  0.
         25    1    3    3    0    0  0.11353248892E+03  0.14122055035E+02  0.26381878104E+03  0.31358717418E+03  0.12509000000E+03 0.  0.
         25    1    4    4    0    0 -0.85630328960E+02 -0.62548910145E+01  0.25648122157E+03  0.29799631208E+03  0.12509000000E+03 0.  0.
         25    1    4    4    0    0 -0.27902159963E+02 -0.78671640201E+01  0.12467067678E+03  0.17897125062E+03  0.12509000000E+03 0.  0.
<mgrwt>
<rscale>  2 0.45715382E+03</rscale>
<asrwt>0</asrwt>
<pdfrwt beam="1">  1       21 0.10555334E+00 0.45715382E+03</pdfrwt>
<pdfrwt beam="2">  1       21 0.10704711E-01 0.45715382E+03</pdfrwt>
<totfact> 0.47418422E+04</totfact>
</mgrwt>
</event>
<event>
 7    0  0.4779893E-002  0.4570817E+03  0.7546771E-02  0.1025631E+00
         21   -1    0    0  502  501  0.00000000000E+00  0.00000000000E+00  0.41674495783E+03  0.41674495783E+03  0.00000000000E+00 0.  1.
         21   -1    0    0  501  502 -0.00000000000E+00 -0.00000000000E+00 -0.12533063403E+03  0.12533063403E+03  0.00000000000E+00 0.  1.
      99926    2    1    2    0    0  0.00000000000E+00  0.00000000000E+00  0.29141432380E+03  0.54207559186E+03  0.45708165481E+03 0.  0.
      99925    2    3    3    0    0 -0.72576163997E+02 -0.84376094361E+02  0.21869313172E+03  0.35953106371E+03  0.26277228740E+03 0.  0.
         25    1    3    3    0    0  0.72576163997E+02  0.84376094361E+02  0.72721192079E+02  0.18254452815E+03  0.12509000000E+03 0.  0.
         25    1    4    4    0    0 -0.85083145852E+01 -0.64276387678E+02  0.85183093204E+02  0.16464359355E+03  0.12509000000E+03 0.  0.
         25    1    4    4    0    0 -0.64067849412E+02 -0.20099706683E+02  0.13351003852E+03  0.19488747015E+03  0.12509000000E+03 0.  0.
<mgrwt>
<rscale>  2 0.45708165E+03</rscale>
<asrwt>0</asrwt>
<pdfrwt beam="1">  1       21 0.61286023E-01 0.45708165E+03</pdfrwt>
<pdfrwt beam="2">  1       21 0.18430976E-01 0.45708165E+03</pdfrwt>
<totfact> 0.61375893E+04</totfact>
</mgrwt>
</event>
<event>
 7    0  0.4779893E-002  0.4548504E+03  0.7546771E-02  0.1026285E+00
         21   -1    0    0  502  501  0.00000000000E+00  0.00000000000E+00  0.89349595437E+02  0.89349595437E+02  0.00000000000E+00 0. -1.
         21   -1    0    0  501  502 -0.00000000000E+00 -0.00000000000E+00 -0.57887476809E+03  0.57887476809E+03  0.00000000000E+00 0. -1.
      99926    2    1    2    0    0  0.00000000000E+00 -0.14210854715E-13 -0.48952517265E+03  0.66822436352E+03  0.45485042085E+03 0.  0.
      99925    2    3    3    0    0 -0.66697348657E+01 -0.96981768128E+02 -0.39271628842E+03  0.48256495256E+03  0.26304543627E+03 0.  0.
         25    1    3    3    0    0  0.66697348657E+01  0.96981768128E+02 -0.96808884234E+02  0.18565941096E+03  0.12509000000E+03 0.  0.
         25    1    4    4    0    0 -0.92333239282E+01 -0.96149891455E+01 -0.20660302023E+03  0.24188844197E+03  0.12509000000E+03 0.  0.
         25    1    4    4    0    0  0.25635890625E+01 -0.87366778982E+02 -0.18611326818E+03  0.24067651060E+03  0.12509000000E+03 0.  0.
<mgrwt>
<rscale>  2 0.45485042E+03</rscale>
<asrwt>0</asrwt>
<pdfrwt beam="1">  1       21 0.13139646E-01 0.45485042E+03</pdfrwt>
<pdfrwt beam="2">  1       21 0.85128642E-01 0.45485042E+03</pdfrwt>
<totfact> 0.54726834E+04</totfact>
</mgrwt>
</event>
<event>
 7    0  0.4779893E-002  0.4251629E+03  0.7546771E-02  0.1035399E+00
         21   -1    0    0  502  501  0.00000000000E+00  0.00000000000E+00  0.41633554738E+02  0.41633554738E+02  0.00000000000E+00 0.  1.
         21   -1    0    0  501  502 -0.00000000000E+00 -0.00000000000E+00 -0.10854436285E+04  0.10854436285E+04  0.00000000000E+00 0.  1.
      99926    2    1    2    0    0 -0.57731597281E-14  0.00000000000E+00 -0.10438100738E+04  0.11270771833E+04  0.42516291806E+03 0.  0.
      99925    2    3    3    0    0  0.17979485326E+01  0.81664857645E+02 -0.67661661641E+03  0.73065452393E+03  0.26338869783E+03 0.  0.
         25    1    3    3    0    0 -0.17979485326E+01 -0.81664857645E+02 -0.36719345739E+03  0.39642265934E+03  0.12509000000E+03 0.  0.
         25    1    4    4    0    0  0.34688078780E+02  0.24034634797E+02 -0.28116451160E+03  0.31061538462E+03  0.12509000000E+03 0.  0.
         25    1    4    4    0    0 -0.32890130248E+02  0.57630222848E+02 -0.39545210481E+03  0.42003913931E+03  0.12509000000E+03 0.  0.
<mgrwt>
<rscale>  2 0.42516292E+03</rscale>
<asrwt>0</asrwt>
<pdfrwt beam="1">  1       21 0.61225810E-02 0.42516292E+03</pdfrwt>
<pdfrwt beam="2">  1       21 0.15962408E+00 0.42516292E+03</pdfrwt>
<totfact> 0.43916721E+04</totfact>
</mgrwt>
</event>
<event>
 7    0  0.4779893E-002  0.4221693E+03  0.7546771E-02  0.1036363E+00
         21   -1    0    0  502  501  0.00000000000E+00  0.00000000000E+00  0.16665621665E+03  0.16665621665E+03  0.00000000000E+00 0. -1.
         21   -1    0    0  501  502 -0.00000000000E+00 -0.00000000000E+00 -0.26735718374E+03  0.26735718374E+03  0.00000000000E+00 0. -1.
      99926    2    1    2    0    0 -0.35527136788E-14  0.00000000000E+00 -0.10070096708E+03  0.43401340039E+03  0.42216933445E+03 0.  0.
      99925    2    3    3    0    0 -0.82378034768E+01 -0.77894049512E+02 -0.65186563478E+02  0.28221048435E+03  0.26316938474E+03 0.  0.
         25    1    4    4    0    0  0.21612420539E+02 -0.95038138067E+01 -0.45715914700E+02  0.13525853820E+03  0.12509000000E+03 0.  0.
         25    1    3    3    0    0  0.82378034768E+01  0.77894049512E+02 -0.35514403606E+02  0.15180291604E+03  0.12509000000E+03 0.  0.
         25    1    4    4    0    0 -0.29850224016E+02 -0.68390235705E+02 -0.19470648778E+02  0.14695194615E+03  0.12509000000E+03 0.  0.
<mgrwt>
<rscale>  2 0.42216933E+03</rscale>
<asrwt>0</asrwt>
<pdfrwt beam="1">  1       21 0.24508267E-01 0.42216933E+03</pdfrwt>
<pdfrwt beam="2">  1       21 0.39317233E-01 0.42216933E+03</pdfrwt>
<totfact> 0.91908366E+04</totfact>
</mgrwt>
</event>
<event>
 7    0  0.4779893E-002  0.4521738E+03  0.7546771E-02  0.1027076E+00
         21   -1    0    0  502  501  0.00000000000E+00  0.00000000000E+00  0.37891686591E+02  0.37891686591E+02  0.00000000000E+00 0. -1.
         21   -1    0    0  501  502 -0.00000000000E+00 -0.00000000000E+00 -0.13489841281E+04  0.13489841281E+04  0.00000000000E+00 0. -1.
      99926    2    1    2    0    0  0.00000000000E+00  0.00000000000E+00 -0.13110924415E+04  0.13868758147E+04  0.45217378870E+03 0.  0.
      99925    2    3    3    0    0  0.37924409973E+02  0.11488963435E+02 -0.11429351366E+04  0.11735810786E+04  0.26347972291E+03 0.  0.
         25    1    3    3    0    0 -0.37924409973E+02 -0.11488963435E+02 -0.16815730487E+03  0.21329473607E+03  0.12509000000E+03 0.  0.
         25    1    4    4    0    0 -0.84584144967E+01  0.33868252460E+02 -0.50211374180E+03  0.51863698393E+03  0.12509000000E+03 0.  0.
         25    1    4    4    0    0  0.46382824470E+02 -0.22379289025E+02 -0.64082139482E+03  0.65494409467E+03  0.12509000000E+03 0.  0.
<mgrwt>
<rscale>  2 0.45217379E+03</rscale>
<asrwt>0</asrwt>
<pdfrwt beam="1">  1       21 0.55723075E-02 0.45217379E+03</pdfrwt>
<pdfrwt beam="2">  1       21 0.19838000E+00 0.45217379E+03</pdfrwt>
<totfact> 0.27278097E+04</totfact>
</mgrwt>
</event>
<event>
 7    0  0.4779893E-002  0.4456185E+03  0.7546771E-02  0.1029037E+00
         21   -1    0    0  502  501  0.00000000000E+00  0.00000000000E+00  0.80873644501E+03  0.80873644501E+03  0.00000000000E+00 0. -1.
         21   -1    0    0  501  502 -0.00000000000E+00 -0.00000000000E+00 -0.61384599298E+02  0.61384599298E+02  0.00000000000E+00 0. -1.
      99926    2    1    2    0    0  0.00000000000E+00  0.00000000000E+00  0.74735184571E+03  0.87012104430E+03  0.44561850327E+03 0.  0.
      99925    2    3    3    0    0  0.20235057832E+02 -0.99167215187E+02  0.51713430756E+03  0.58924524061E+03  0.26370147399E+03 0.  0.
         25    1    4    4    0    0  0.48266554106E+01 -0.82823895545E+01  0.26259804434E+03  0.29102772302E+03  0.12509000000E+03 0.  0.
         25    1    4    4    0    0  0.15408402422E+02 -0.90884825632E+02  0.25453626322E+03  0.29821751758E+03  0.12509000000E+03 0.  0.
         25    1    3    3    0    0 -0.20235057832E+02  0.99167215187E+02  0.23021753815E+03  0.28087580370E+03  0.12509000000E+03 0.  0.
<mgrwt>
<rscale>  2 0.44561850E+03</rscale>
<asrwt>0</asrwt>
<pdfrwt beam="1">  1       21 0.11893182E+00 0.44561850E+03</pdfrwt>
<pdfrwt beam="2">  1       21 0.90271474E-02 0.44561850E+03</pdfrwt>
<totfact> 0.47980765E+04</totfact>
</mgrwt>
</event>
<event>
 6    0  0.4779893E-002  0.4432046E+03  0.7546771E-02  0.1029768E+00
         21   -1    0    0  502  501  0.00000000000E+00  0.00000000000E+00  0.74230035214E+02  0.74230035214E+02  0.00000000000E+00 0. -1.
         21   -1    0    0  501  502 -0.00000000000E+00 -0.00000000000E+00 -0.66155946012E+03  0.66155946012E+03  0.00000000000E+00 0. -1.
      99926    2    1    2    0    0  0.00000000000E+00  0.00000000000E+00 -0.58732942491E+03  0.73578949533E+03  0.44320461198E+03 0.  0.
         25    1    3    3    0    0 -0.92793904620E+02  0.31055070737E+02 -0.22377009379E+03  0.27440059972E+03  0.12509000000E+03 0.  0.
         25    1    3    3    0    0  0.14835998575E+02 -0.38885608582E+02 -0.21336479453E+03  0.25080717903E+03  0.12509000000E+03 0.  0.
         25    1    3    3    0    0  0.77957906045E+02  0.78305378453E+01 -0.15019453659E+03  0.21058171658E+03  0.12509000000E+03 0.  0.
<mgrwt>
<rscale>  2 0.44320461E+03</rscale>
<asrwt>0</asrwt>
<pdfrwt beam="1">  1       21 0.10916182E-01 0.44320461E+03</pdfrwt>
<pdfrwt beam="2">  1       21 0.97288150E-01 0.44320461E+03</pdfrwt>
<totfact> 0.56019752E+04</totfact>
</mgrwt>
</event>
<event>
 7    0  0.4779893E-002  0.4444118E+03  0.7546771E-02  0.1029402E+00
         21   -1    0    0  502  501  0.00000000000E+00  0.00000000000E+00  0.25610010597E+03  0.25610010597E+03  0.00000000000E+00 0. -1.
         21   -1    0    0  501  502 -0.00000000000E+00 -0.00000000000E+00 -0.19279749672E+03  0.19279749672E+03  0.00000000000E+00 0. -1.
      99926    2    1    2    0    0  0.00000000000E+00  0.35527136788E-14  0.63302609254E+02  0.44889760269E+03  0.44441178806E+03 0.  0.
      99925    2    3    3    0    0  0.10172604592E+03 -0.94188992983E+01  0.28596218018E+02  0.28370394127E+03  0.26312217414E+03 0.  0.
         25    1    4    4    0    0  0.42875438407E+02  0.27277948728E+02 -0.10503277016E+02  0.13542605596E+03  0.12509000000E+03 0.  0.
         25    1    3    3    0    0 -0.10172604592E+03  0.94188992983E+01  0.34706391236E+02  0.16519366142E+03  0.12509000000E+03 0.  0.
         25    1    4    4    0    0  0.58850607509E+02 -0.36696848027E+02  0.39099495033E+02  0.14827788531E+03  0.12509000000E+03 0.  0.
<mgrwt>
<rscale>  2 0.44441179E+03</rscale>
<asrwt>0</asrwt>
<pdfrwt beam="1">  1       21 0.37661780E-01 0.44441179E+03</pdfrwt>
<pdfrwt beam="2">  1       21 0.28352573E-01 0.44441179E+03</pdfrwt>
<totfact> 0.75144801E+04</totfact>
</mgrwt>
</event>
<event>
 7    0  0.4779893E-002  0.4734208E+03  0.7546771E-02  0.1020959E+00
         21   -1    0    0  502  501  0.00000000000E+00  0.00000000000E+00  0.15541180696E+03  0.15541180696E+03  0.00000000000E+00 0. -1.
         21   -1    0    0  501  502 -0.00000000000E+00 -0.00000000000E+00 -0.36053775047E+03  0.36053775047E+03  0.00000000000E+00 0. -1.
      99926    2    1    2    0    0  0.00000000000E+00  0.00000000000E+00 -0.20512594351E+03  0.51594955742E+03  0.47342084143E+03 0.  0.
      99925    2    3    3    0    0 -0.37828442951E+02  0.11045331712E+03 -0.65676525167E+02  0.29521312016E+03  0.26307119568E+03 0.  0.
         25    1    3    3    0    0  0.37828442951E+02 -0.11045331712E+03 -0.13944941834E+03  0.22073643726E+03  0.12509000000E+03 0.  0.
         25    1    4    4    0    0  0.20956102439E+02  0.42504010766E+02 -0.28219271731E+02  0.13670985538E+03  0.12509000000E+03 0.  0.
         25    1    4    4    0    0 -0.58784545390E+02  0.67949306355E+02 -0.37457253435E+02  0.15850326478E+03  0.12509000000E+03 0.  0.
<mgrwt>
<rscale>  2 0.47342084E+03</rscale>
<asrwt>0</asrwt>
<pdfrwt beam="1">  1       21 0.22854677E-01 0.47342084E+03</pdfrwt>
<pdfrwt beam="2">  1       21 0.53020258E-01 0.47342084E+03</pdfrwt>
<totfact> 0.55582043E+04</totfact>
</mgrwt>
</event>
<event>
 7    0  0.4779893E-002  0.4758977E+03  0.7546771E-02  0.1020269E+00
         21   -1    0    0  502  501  0.00000000000E+00  0.00000000000E+00  0.10280157159E+04  0.10280157159E+04  0.00000000000E+00 0.  1.
         21   -1    0    0  501  502 -0.00000000000E+00 -0.00000000000E+00 -0.55076642355E+02  0.55076642355E+02  0.00000000000E+00 0.  1.
      99926    2    1    2    0    0 -0.71054273576E-14  0.00000000000E+00  0.97293907357E+03  0.10830923583E+04  0.47589769456E+03 0.  0.
      99925    2    3    3    0    0 -0.40119572380E+02 -0.87869625498E+02  0.39753286547E+03  0.48637595697E+03  0.26305615601E+03 0.  0.
         25    1    4    4    0    0  0.16665649621E+02 -0.59355736082E+02  0.18409433583E+03  0.23095254896E+03  0.12509000000E+03 0.  0.
         25    1    3    3    0    0  0.40119572380E+02  0.87869625498E+02  0.57540620810E+03  0.59671640131E+03  0.12509000000E+03 0.  0.
         25    1    4    4    0    0 -0.56785222001E+02 -0.28513889416E+02  0.21343852963E+03  0.25542340801E+03  0.12509000000E+03 0.  0.
<mgrwt>
<rscale>  2 0.47589769E+03</rscale>
<asrwt>0</asrwt>
<pdfrwt beam="1">  1       21 0.15117877E+00 0.47589769E+03</pdfrwt>
<pdfrwt beam="2">  1       21 0.80995069E-02 0.47589769E+03</pdfrwt>
<totfact> 0.30756371E+04</totfact>
</mgrwt>
</event>
<event>
 7    0  0.4779893E-002  0.4516629E+03  0.7546771E-02  0.1027227E+00
         21   -1    0    0  502  501  0.00000000000E+00  0.00000000000E+00  0.58802590108E+02  0.58802590108E+02  0.00000000000E+00 0.  1.
         21   -1    0    0  501  502 -0.00000000000E+00 -0.00000000000E+00 -0.86730623905E+03  0.86730623905E+03  0.00000000000E+00 0.  1.
      99926    2    1    2    0    0  0.00000000000E+00 -0.11102230246E-15 -0.80850364894E+03  0.92610882916E+03  0.45166294191E+03 0.  0.
      99925    2    3    3    0    0  0.10446772263E+03  0.69071005168E+00 -0.43973683362E+03  0.52293336570E+03  0.26301490446E+03 0.  0.
         25    1    4    4    0    0  0.72944722205E+02  0.36024819078E+02 -0.22795185926E+03  0.27244867099E+03  0.12509000000E+03 0.  0.
         25    1    4    4    0    0  0.31523000426E+02 -0.35334109026E+02 -0.21178497436E+03  0.25048469471E+03  0.12509000000E+03 0.  0.
         25    1    3    3    0    0 -0.10446772263E+03 -0.69071005168E+00 -0.36876681532E+03  0.40317546346E+03  0.12509000000E+03 0.  0.
<mgrwt>
<rscale>  2 0.45166294E+03</rscale>
<asrwt>0</asrwt>
<pdfrwt beam="1">  1       21 0.86474399E-02 0.45166294E+03</pdfrwt>
<pdfrwt beam="2">  1       21 0.12754503E+00 0.45166294E+03</pdfrwt>
<totfact> 0.43241417E+04</totfact>
</mgrwt>
</event>
<event>
 7    0  0.4779893E-002  0.4566701E+03  0.7546771E-02  0.1025751E+00
         21   -1    0    0  502  501  0.00000000000E+00  0.00000000000E+00  0.19846432107E+04  0.19846432107E+04  0.00000000000E+00 0. -1.
         21   -1    0    0  501  502 -0.00000000000E+00 -0.00000000000E+00 -0.26270158108E+02  0.26270158108E+02  0.00000000000E+00 0. -1.
      99926    2    1    2    0    0  0.00000000000E+00  0.00000000000E+00  0.19583730525E+04  0.20109133688E+04  0.45667008193E+03 0.  0.
      99925    2    3    3    0    0  0.73744173986E+02 -0.73978839465E+02  0.10168805763E+04  0.10554204788E+04  0.26259323807E+03 0.  0.
         25    1    4    4    0    0  0.25037689316E+02 -0.66132717100E+02  0.43159909239E+03  0.45489087352E+03  0.12509000000E+03 0.  0.
         25    1    4    4    0    0  0.48706484670E+02 -0.78461223646E+01  0.58528148394E+03  0.60052960529E+03  0.12509000000E+03 0.  0.
         25    1    3    3    0    0 -0.73744173986E+02  0.73978839465E+02  0.94149247621E+03  0.95549288995E+03  0.12509000000E+03 0.  0.
<mgrwt>
<rscale>  2 0.45667008E+03</rscale>
<asrwt>0</asrwt>
<pdfrwt beam="1">  1       21 0.29185919E+00 0.45667008E+03</pdfrwt>
<pdfrwt beam="2">  1       21 0.38632599E-02 0.45667008E+03</pdfrwt>
<totfact> 0.13358278E+04</totfact>
</mgrwt>
</event>
<event>
 7    0  0.4779893E-002  0.4484103E+03  0.7546771E-02  0.1028197E+00
         21   -1    0    0  502  501  0.00000000000E+00  0.00000000000E+00  0.64867351088E+03  0.64867351088E+03  0.00000000000E+00 0.  1.
         21   -1    0    0  501  502 -0.00000000000E+00 -0.00000000000E+00 -0.77493452640E+02  0.77493452640E+02  0.00000000000E+00 0.  1.
      99926    2    1    2    0    0 -0.88817841970E-15  0.00000000000E+00  0.57118005824E+03  0.72616696352E+03  0.44841030316E+03 0.  0.
      99925    2    3    3    0    0 -0.65317070143E+01 -0.76145649146E+02  0.48264526713E+03  0.55491644405E+03  0.26295433619E+03 0.  0.
         25    1    4    4    0    0  0.33594889096E+02 -0.54850172471E+02  0.24072352873E+03  0.27880545794E+03  0.12509000000E+03 0.  0.
         25    1    4    4    0    0 -0.40126596110E+02 -0.21295476675E+02  0.24192173840E+03  0.27611098611E+03  0.12509000000E+03 0.  0.
         25    1    3    3    0    0  0.65317070143E+01  0.76145649146E+02  0.88534791113E+02  0.17125051947E+03  0.12509000000E+03 0.  0.
<mgrwt>
<rscale>  2 0.44841030E+03</rscale>
<asrwt>0</asrwt>
<pdfrwt beam="1">  1       21 0.95393160E-01 0.44841030E+03</pdfrwt>
<pdfrwt beam="2">  1       21 0.11396096E-01 0.44841030E+03</pdfrwt>
<totfact> 0.54263093E+04</totfact>
</mgrwt>
</event>
<event>
 7    0  0.4779893E-002  0.4431029E+03  0.7546771E-02  0.1029799E+00
         21   -1    0    0  502  501  0.00000000000E+00  0.00000000000E+00  0.60022949970E+02  0.60022949970E+02  0.00000000000E+00 0. -1.
         21   -1    0    0  501  502 -0.00000000000E+00 -0.00000000000E+00 -0.81777137101E+03  0.81777137101E+03  0.00000000000E+00 0. -1.
      99926    2    1    2    0    0 -0.71054273576E-14 -0.71054273576E-14 -0.75774842104E+03  0.87779432098E+03  0.44310292298E+03 0.  0.
      99925    2    3    3    0    0 -0.59603544496E+02 -0.47577067572E+02 -0.61664659501E+03  0.67438981443E+03  0.26216872201E+03 0.  0.
         25    1    4    4    0    0 -0.63498951687E+02 -0.71021323487E+01 -0.28899355199E+03  0.32132123855E+03  0.12509000000E+03 0.  0.
         25    1    4    4    0    0  0.38954071915E+01 -0.40474935223E+02 -0.32765304301E+03  0.35306857588E+03  0.12509000000E+03 0.  0.
         25    1    3    3    0    0  0.59603544496E+02  0.47577067572E+02 -0.14110182603E+03  0.20340450655E+03  0.12509000000E+03 0.  0.
<mgrwt>
<rscale>  2 0.44310292E+03</rscale>
<asrwt>0</asrwt>
<pdfrwt beam="1">  1       21 0.88269045E-02 0.44310292E+03</pdfrwt>
<pdfrwt beam="2">  1       21 0.12026049E+00 0.44310292E+03</pdfrwt>
<totfact> 0.48578102E+04</totfact>
</mgrwt>
</event>
<event>
 7    0  0.4779893E-002  0.4404478E+03  0.7546771E-02  0.1030609E+00
         21   -1    0    0  502  501  0.00000000000E+00  0.00000000000E+00  0.24380436368E+03  0.24380436368E+03  0.00000000000E+00 0. -1.
         21   -1    0    0  501  502 -0.00000000000E+00 -0.00000000000E+00 -0.19892412472E+03  0.19892412472E+03  0.00000000000E+00 0. -1.
      99926    2    1    2    0    0  0.14210854715E-13  0.14210854715E-13  0.44880238966E+02  0.44272848840E+03  0.44044781596E+03 0.  0.
      99925    2    3    3    0    0 -0.67177053446E+02 -0.64140700583E+02 -0.55036656490E+01  0.27898224592E+03  0.26300953827E+03 0.  0.
         25    1    4    4    0    0  0.20771129946E+01 -0.47976598155E+02 -0.14709842900E+02  0.13479597897E+03  0.12509000000E+03 0.  0.
         25    1    4    4    0    0 -0.69254166440E+02 -0.16164102428E+02  0.92061772510E+01  0.14418626695E+03  0.12509000000E+03 0.  0.
         25    1    3    3    0    0  0.67177053446E+02  0.64140700583E+02  0.50383904615E+02  0.16374624248E+03  0.12509000000E+03 0.  0.
<mgrwt>
<rscale>  2 0.44044782E+03</rscale>
<asrwt>0</asrwt>
<pdfrwt beam="1">  1       21 0.35853583E-01 0.44044782E+03</pdfrwt>
<pdfrwt beam="2">  1       21 0.29253548E-01 0.44044782E+03</pdfrwt>
<totfact> 0.78140237E+04</totfact>
</mgrwt>
</event>
<event>
 7    0  0.4779893E-002  0.4602203E+03  0.7546771E-02  0.1024717E+00
         21   -1    0    0  502  501  0.00000000000E+00  0.00000000000E+00  0.52432671348E+02  0.52432671348E+02  0.00000000000E+00 0.  1.
         21   -1    0    0  501  502 -0.00000000000E+00 -0.00000000000E+00 -0.10098795829E+04  0.10098795829E+04  0.00000000000E+00 0.  1.
      99926    2    1    2    0    0  0.00000000000E+00 -0.71054273576E-14 -0.95744691157E+03  0.10623122543E+04  0.46022031364E+03 0.  0.
      99925    2    3    3    0    0  0.77063872323E+01 -0.46974183167E+02 -0.84901216531E+03  0.89005789413E+03  0.26289814715E+03 0.  0.
         25    1    4    4    0    0  0.16156026296E+02 -0.33883336008E+02 -0.55504874104E+03  0.57020672626E+03  0.12509000000E+03 0.  0.
         25    1    3    3    0    0 -0.77063872323E+01  0.46974183167E+02 -0.10843474626E+03  0.17225436013E+03  0.12509000000E+03 0.  0.
         25    1    4    4    0    0 -0.84496390640E+01 -0.13090847159E+02 -0.29396342427E+03  0.31985116787E+03  0.12509000000E+03 0.  0.
<mgrwt>
<rscale>  2 0.46022031E+03</rscale>
<asrwt>0</asrwt>
<pdfrwt beam="1">  1       21 0.77106862E-02 0.46022031E+03</pdfrwt>
<pdfrwt beam="2">  1       21 0.14851172E+00 0.46022031E+03</pdfrwt>
<totfact> 0.35365877E+04</totfact>
</mgrwt>
</event>
<event>
 7    0  0.4779893E-002  0.4253305E+03  0.7546771E-02  0.1035345E+00
         21   -1    0    0  502  501  0.00000000000E+00  0.00000000000E+00  0.29462270215E+03  0.29462270215E+03  0.00000000000E+00 0. -1.
         21   -1    0    0  501  502 -0.00000000000E+00 -0.00000000000E+00 -0.15350655686E+03  0.15350655686E+03  0.00000000000E+00 0. -1.
      99926    2    1    2    0    0  0.35527136788E-14  0.00000000000E+00  0.14111614529E+03  0.44812925901E+03  0.42533053772E+03 0.  0.
      99925    2    3    3    0    0  0.30424825989E+02  0.75774233739E+02  0.80486470847E+02  0.28691241728E+03  0.26300809619E+03 0.  0.
         25    1    3    3    0    0 -0.30424825989E+02 -0.75774233739E+02  0.60629674448E+02  0.16121684173E+03  0.12509000000E+03 0.  0.
         25    1    4    4    0    0 -0.10093580735E+02  0.25777245547E+02  0.72613764749E+01  0.12832218221E+03  0.12509000000E+03 0.  0.
         25    1    4    4    0    0  0.40518406724E+02  0.49996988191E+02  0.73225094372E+02  0.15859023506E+03  0.12509000000E+03 0.  0.
<mgrwt>
<rscale>  2 0.42533054E+03</rscale>
<asrwt>0</asrwt>
<pdfrwt beam="1">  1       21 0.43326868E-01 0.42533054E+03</pdfrwt>
<pdfrwt beam="2">  1       21 0.22574493E-01 0.42533054E+03</pdfrwt>
<totfact> 0.88073628E+04</totfact>
</mgrwt>
</event>
<event>
 7    0  0.4779893E-002  0.4518767E+03  0.7546771E-02  0.1027164E+00
         21   -1    0    0  502  501  0.00000000000E+00  0.00000000000E+00  0.42066046198E+02  0.42066046198E+02  0.00000000000E+00 0. -1.
         21   -1    0    0  501  502 -0.00000000000E+00 -0.00000000000E+00 -0.12135234239E+04  0.12135234239E+04  0.00000000000E+00 0. -1.
      99926    2    1    2    0    0  0.00000000000E+00  0.00000000000E+00 -0.11714573777E+04  0.12555894701E+04  0.45187667527E+03 0.  0.
      99925    2    3    3    0    0 -0.85743294461E+02  0.68851662578E+02 -0.71860795411E+03  0.77308291830E+03  0.26299684954E+03 0.  0.
         25    1    3    3    0    0  0.85743294461E+02 -0.68851662578E+02 -0.45284942361E+03  0.48250655182E+03  0.12509000000E+03 0.  0.
         25    1    4    4    0    0 -0.34406973092E+02  0.26044307519E+02 -0.24193410547E+03  0.27575671387E+03  0.12509000000E+03 0.  0.
         25    1    4    4    0    0 -0.51336321369E+02  0.42807355059E+02 -0.47667384864E+03  0.49732620443E+03  0.12509000000E+03 0.  0.
<mgrwt>
<rscale>  2 0.45187668E+03</rscale>
<asrwt>0</asrwt>
<pdfrwt beam="1">  1       21 0.61861828E-02 0.45187668E+03</pdfrwt>
<pdfrwt beam="2">  1       21 0.17845934E+00 0.45187668E+03</pdfrwt>
<totfact> 0.31183474E+04</totfact>
</mgrwt>
</event>
<event>
 7    0  0.4779893E-002  0.4550278E+03  0.7546771E-02  0.1026233E+00
         21   -1    0    0  502  501  0.00000000000E+00  0.00000000000E+00  0.72280691393E+03  0.72280691393E+03  0.00000000000E+00 0.  1.
         21   -1    0    0  501  502 -0.00000000000E+00 -0.00000000000E+00 -0.71613269281E+02  0.71613269281E+02  0.00000000000E+00 0.  1.
      99926    2    1    2    0    0 -0.14210854715E-13  0.71054273576E-14  0.65119364465E+03  0.79442018321E+03  0.45502776252E+03 0.  0.
      99925    2    3    3    0    0  0.82920491085E+02 -0.60461433891E+02  0.49336726454E+03  0.56839348747E+03  0.26292300403E+03 0.  0.
         25    1    4    4    0    0  0.17150965412E+02 -0.57867328451E+02  0.21076651339E+03  0.25241397462E+03  0.12509000000E+03 0.  0.
         25    1    3    3    0    0 -0.82920491085E+02  0.60461433891E+02  0.15782638011E+03  0.22602669575E+03  0.12509000000E+03 0.  0.
         25    1    4    4    0    0  0.65769525673E+02 -0.25941054398E+01  0.28260075115E+03  0.31597951285E+03  0.12509000000E+03 0.  0.
<mgrwt>
<rscale>  2 0.45502776E+03</rscale>
<asrwt>0</asrwt>
<pdfrwt beam="1">  1       21 0.10629513E+00 0.45502776E+03</pdfrwt>
<pdfrwt beam="2">  1       21 0.10531364E-01 0.45502776E+03</pdfrwt>
<totfact> 0.48025426E+04</totfact>
</mgrwt>
</event>
<event>
 7    0  0.4779893E-002  0.4656333E+03  0.7546771E-02  0.1023160E+00
         21   -1    0    0  502  501  0.00000000000E+00  0.00000000000E+00  0.11496907492E+04  0.11496907492E+04  0.00000000000E+00 0. -1.
         21   -1    0    0  501  502 -0.00000000000E+00 -0.00000000000E+00 -0.47146244156E+02  0.47146244156E+02  0.00000000000E+00 0. -1.
      99926    2    1    2    0    0  0.00000000000E+00  0.00000000000E+00  0.11025445050E+04  0.11968369933E+04  0.46563333543E+03 0.  0.
      99925    2    3    3    0    0 -0.72777692094E+02  0.17988611006E+02  0.43673203290E+03  0.51524038336E+03  0.26290226605E+03 0.  0.
         25    1    3    3    0    0  0.72777692094E+02 -0.17988611006E+02  0.66581247213E+03  0.68159660998E+03  0.12509000000E+03 0.  0.
         25    1    4    4    0    0 -0.67252929820E+02 -0.13945307851E+02  0.25560432255E+03  0.29274307163E+03  0.12509000000E+03 0.  0.
         25    1    4    4    0    0 -0.55247622740E+01  0.31933918857E+02  0.18112771034E+03  0.22249731173E+03  0.12509000000E+03 0.  0.
<mgrwt>
<rscale>  2 0.46563334E+03</rscale>
<asrwt>0</asrwt>
<pdfrwt beam="1">  1       21 0.16907215E+00 0.46563334E+03</pdfrwt>
<pdfrwt beam="2">  1       21 0.69332719E-02 0.46563334E+03</pdfrwt>
<totfact> 0.29717303E+04</totfact>
</mgrwt>
</event>
<event>
 7    0  0.4779893E-002  0.4084857E+03  0.7546771E-02  0.1040880E+00
         21   -1    0    0  502  501  0.00000000000E+00  0.00000000000E+00  0.17035190850E+03  0.17035190850E+03  0.00000000000E+00 0. -1.
         21   -1    0    0  501  502 -0.00000000000E+00 -0.00000000000E+00 -0.24487623017E+03  0.24487623017E+03  0.00000000000E+00 0. -1.
      99926    2    1    2    0    0 -0.17763568394E-14  0.35527136788E-14 -0.74524321662E+02  0.41522813867E+03  0.40848565780E+03 0.  0.
      99925    2    3    3    0    0  0.10007379300E+02 -0.20476539135E+02 -0.10551605727E+03  0.28435632325E+03  0.26306927593E+03 0.  0.
         25    1    3    3    0    0 -0.10007379300E+02  0.20476539135E+02  0.30991735607E+02  0.13087181542E+03  0.12509000000E+03 0.  0.
         25    1    4    4    0    0  0.15381714041E+02 -0.16778194582E+02 -0.11352101247E+02  0.12764984623E+03  0.12509000000E+03 0.  0.
         25    1    4    4    0    0 -0.53743347410E+01 -0.36983445536E+01 -0.94163956022E+02  0.15670647702E+03  0.12509000000E+03 0.  0.
<mgrwt>
<rscale>  2 0.40848566E+03</rscale>
<asrwt>0</asrwt>
<pdfrwt beam="1">  1       21 0.25051751E-01 0.40848566E+03</pdfrwt>
<pdfrwt beam="2">  1       21 0.36011210E-01 0.40848566E+03</pdfrwt>
<totfact> 0.10563961E+05</totfact>
</mgrwt>
</event>
<event>
 7    0  0.4779893E-002  0.4474483E+03  0.7546771E-02  0.1028486E+00
         21   -1    0    0  502  501  0.00000000000E+00  0.00000000000E+00  0.22688521115E+03  0.22688521115E+03  0.00000000000E+00 0. -1.
         21   -1    0    0  501  502 -0.00000000000E+00 -0.00000000000E+00 -0.22060716618E+03  0.22060716618E+03  0.00000000000E+00 0. -1.
      99926    2    1    2    0    0  0.00000000000E+00  0.00000000000E+00  0.62780449692E+01  0.44749237733E+03  0.44744833659E+03 0.  0.
      99925    2    3    3    0    0 -0.22294484443E+02 -0.78794376156E+02  0.71234770463E+02  0.28448169658E+03  0.26296358192E+03 0.  0.
         25    1    4    4    0    0 -0.50400761997E+02 -0.29777582413E+02  0.33042135722E+02  0.14200785914E+03  0.12509000000E+03 0.  0.
         25    1    4    4    0    0  0.28106277554E+02 -0.49016793743E+02  0.38192634740E+02  0.14247383744E+03  0.12509000000E+03 0.  0.
         25    1    3    3    0    0  0.22294484443E+02  0.78794376156E+02 -0.64956725493E+02  0.16301068075E+03  0.12509000000E+03 0.  0.
<mgrwt>
<rscale>  2 0.44744834E+03</rscale>
<asrwt>0</asrwt>
<pdfrwt beam="1">  1       21 0.33365472E-01 0.44744834E+03</pdfrwt>
<pdfrwt beam="2">  1       21 0.32442230E-01 0.44744834E+03</pdfrwt>
<totfact> 0.73424759E+04</totfact>
</mgrwt>
</event>
<event>
 7    0  0.4779893E-002  0.4537418E+03  0.7546771E-02  0.1026612E+00
         21   -1    0    0  502  501  0.00000000000E+00  0.00000000000E+00  0.69926107915E+02  0.69926107915E+02  0.00000000000E+00 0.  1.
         21   -1    0    0  501  502 -0.00000000000E+00 -0.00000000000E+00 -0.73606856084E+03  0.73606856084E+03  0.00000000000E+00 0.  1.
      99926    2    1    2    0    0 -0.14210854715E-13  0.00000000000E+00 -0.66614245293E+03  0.80599466876E+03  0.45374181918E+03 0.  0.
      99925    2    3    3    0    0 -0.85048770765E+02 -0.72445401203E+01 -0.29195557109E+03  0.40232511651E+03  0.26332805987E+03 0.  0.
         25    1    4    4    0    0 -0.83548724658E+02  0.63204942921E+00 -0.14178072967E+03  0.20671253538E+03  0.12509000000E+03 0.  0.
         25    1    3    3    0    0  0.85048770765E+02  0.72445401203E+01 -0.37418688184E+03  0.40366955224E+03  0.12509000000E+03 0.  0.
         25    1    4    4    0    0 -0.15000461068E+01 -0.78765895495E+01 -0.15017484142E+03  0.19561258113E+03  0.12509000000E+03 0.  0.
<mgrwt>
<rscale>  2 0.45374182E+03</rscale>
<asrwt>0</asrwt>
<pdfrwt beam="1">  1       21 0.10283252E-01 0.45374182E+03</pdfrwt>
<pdfrwt beam="2">  1       21 0.10824537E+00 0.45374182E+03</pdfrwt>
<totfact> 0.47947884E+04</totfact>
</mgrwt>
</event>
<event>
 7    0  0.4779893E-002  0.4522699E+03  0.7546771E-02  0.1027047E+00
         21   -1    0    0  502  501  0.00000000000E+00  0.00000000000E+00  0.74166832735E+03  0.74166832735E+03  0.00000000000E+00 0. -1.
         21   -1    0    0  501  502 -0.00000000000E+00 -0.00000000000E+00 -0.68948636194E+02  0.68948636194E+02  0.00000000000E+00 0. -1.
      99926    2    1    2    0    0  0.00000000000E+00  0.00000000000E+00  0.67271969116E+03  0.81061696354E+03  0.45226991799E+03 0.  0.
      99925    2    3    3    0    0  0.62848645746E+02 -0.50661493872E+02  0.55969806200E+03  0.62370004085E+03  0.26310317580E+03 0.  0.
         25    1    4    4    0    0  0.53382475177E+02 -0.12168533247E+02  0.21310945339E+03  0.25310256633E+03  0.12509000000E+03 0.  0.
         25    1    3    3    0    0 -0.62848645746E+02  0.50661493872E+02  0.11302162916E+03  0.18691692270E+03  0.12509000000E+03 0.  0.
         25    1    4    4    0    0  0.94661705690E+01 -0.38492960625E+02  0.34658860861E+03  0.37059747452E+03  0.12509000000E+03 0.  0.
<mgrwt>
<rscale>  2 0.45226992E+03</rscale>
<asrwt>0</asrwt>
<pdfrwt beam="1">  1       21 0.10906887E+00 0.45226992E+03</pdfrwt>
<pdfrwt beam="2">  1       21 0.10139506E-01 0.45226992E+03</pdfrwt>
<totfact> 0.48281646E+04</totfact>
</mgrwt>
</event>
<event>
 7    0  0.4779893E-002  0.4576127E+03  0.7546771E-02  0.1025476E+00
         21   -1    0    0  502  501  0.00000000000E+00  0.00000000000E+00  0.86614492262E+02  0.86614492262E+02  0.00000000000E+00 0. -1.
         21   -1    0    0  501  502 -0.00000000000E+00 -0.00000000000E+00 -0.60442947968E+03  0.60442947968E+03  0.00000000000E+00 0. -1.
      99926    2    1    2    0    0  0.00000000000E+00  0.19984014443E-14 -0.51781498742E+03  0.69104397194E+03  0.45761272924E+03 0.  0.
      99925    2    3    3    0    0  0.43170450226E+02 -0.48724623185E+00 -0.16318203302E+03  0.31252585398E+03  0.26302111764E+03 0.  0.
         25    1    3    3    0    0 -0.43170450226E+02  0.48724623185E+00 -0.35463295440E+03  0.37851811796E+03  0.12509000000E+03 0.  0.
         25    1    4    4    0    0  0.42888584257E+02  0.16295656458E+02 -0.47892439690E+02  0.14158450819E+03  0.12509000000E+03 0.  0.
         25    1    4    4    0    0  0.28186596882E+00 -0.16782902689E+02 -0.11528959333E+03  0.17094134579E+03  0.12509000000E+03 0.  0.
<mgrwt>
<rscale>  2 0.45761273E+03</rscale>
<asrwt>0</asrwt>
<pdfrwt beam="1">  1       21 0.12737425E-01 0.45761273E+03</pdfrwt>
<pdfrwt beam="2">  1       21 0.88886688E-01 0.45761273E+03</pdfrwt>
<totfact> 0.52307857E+04</totfact>
</mgrwt>
</event>
<event>
 7    0  0.4779893E-002  0.4729259E+03  0.7546771E-02  0.1021098E+00
         21   -1    0    0  502  501  0.00000000000E+00  0.00000000000E+00  0.19063996218E+03  0.19063996218E+03  0.00000000000E+00 0. -1.
         21   -1    0    0  501  502 -0.00000000000E+00 -0.00000000000E+00 -0.29330016678E+03  0.29330016678E+03  0.00000000000E+00 0. -1.
      99926    2    1    2    0    0  0.35527136788E-14  0.00000000000E+00 -0.10266020460E+03  0.48394012897E+03  0.47292592529E+03 0.  0.
      99925    2    3    3    0    0 -0.22631008987E+02  0.38511837986E+02 -0.18779464937E+03  0.32617224244E+03  0.26291857518E+03 0.  0.
         25    1    4    4    0    0 -0.27470789806E+02  0.49498626640E+02 -0.12504883593E+03  0.18571342924E+03  0.12509000000E+03 0.  0.
         25    1    4    4    0    0  0.48397808196E+01 -0.10986788653E+02 -0.62745813435E+02  0.14045881320E+03  0.12509000000E+03 0.  0.
         25    1    3    3    0    0  0.22631008987E+02 -0.38511837986E+02  0.85134444762E+02  0.15776788652E+03  0.12509000000E+03 0.  0.
<mgrwt>
<rscale>  2 0.47292593E+03</rscale>
<asrwt>0</asrwt>
<pdfrwt beam="1">  1       21 0.28035289E-01 0.47292593E+03</pdfrwt>
<pdfrwt beam="2">  1       21 0.43132377E-01 0.47292593E+03</pdfrwt>
<totfact> 0.57749024E+04</totfact>
</mgrwt>
</event>
<event>
 7    0  0.4779893E-002  0.4538073E+03  0.7546771E-02  0.1026593E+00
         21   -1    0    0  502  501  0.00000000000E+00  0.00000000000E+00  0.17189050107E+03  0.17189050107E+03  0.00000000000E+00 0.  1.
         21   -1    0    0  501  502 -0.00000000000E+00 -0.00000000000E+00 -0.29952366816E+03  0.29952366816E+03  0.00000000000E+00 0.  1.
      99926    2    1    2    0    0 -0.14210854715E-13  0.00000000000E+00 -0.12763316709E+03  0.47141416923E+03  0.45380733093E+03 0.  0.
      99925    2    3    3    0    0  0.94496238534E+02 -0.19444768014E+02 -0.13996344370E+03  0.31296170973E+03  0.26276915360E+03 0.  0.
         25    1    4    4    0    0  0.58396766188E+02  0.81969056733E+01 -0.10957133233E+03  0.17643910148E+03  0.12509000000E+03 0.  0.
         25    1    3    3    0    0 -0.94496238534E+02  0.19444768014E+02  0.12330276612E+02  0.15845245950E+03  0.12509000000E+03 0.  0.
         25    1    4    4    0    0  0.36099472345E+02 -0.27641673687E+02 -0.30392111372E+02  0.13652260824E+03  0.12509000000E+03 0.  0.
<mgrwt>
<rscale>  2 0.45380733E+03</rscale>
<asrwt>0</asrwt>
<pdfrwt beam="1">  1       21 0.25278015E-01 0.45380733E+03</pdfrwt>
<pdfrwt beam="2">  1       21 0.44047598E-01 0.45380733E+03</pdfrwt>
<totfact> 0.67971621E+04</totfact>
</mgrwt>
</event>
<event>
 7    0  0.4779893E-002  0.4585311E+03  0.7546771E-02  0.1025208E+00
         21   -1    0    0  502  501  0.00000000000E+00  0.00000000000E+00  0.29728707455E+03  0.29728707455E+03  0.00000000000E+00 0. -1.
         21   -1    0    0  501  502 -0.00000000000E+00 -0.00000000000E+00 -0.17680785215E+03  0.17680785215E+03  0.00000000000E+00 0. -1.
      99926    2    1    2    0    0  0.00000000000E+00  0.00000000000E+00  0.12047922240E+03  0.47409492670E+03  0.45853108564E+03 0.  0.
      99925    2    3    3    0    0 -0.27376054559E+02  0.11314412250E+03  0.83286032315E+02  0.29921816350E+03  0.26276206988E+03 0.  0.
         25    1    4    4    0    0 -0.30222873296E+02  0.34320405421E+02  0.83861812651E+01  0.13345092145E+03  0.12509000000E+03 0.  0.
         25    1    3    3    0    0  0.27376054559E+02 -0.11314412250E+03  0.37193190082E+02  0.17487676320E+03  0.12509000000E+03 0.  0.
         25    1    4    4    0    0  0.28468187367E+01  0.78823717078E+02  0.74899851050E+02  0.16576724205E+03  0.12509000000E+03 0.  0.
<mgrwt>
<rscale>  2 0.45853109E+03</rscale>
<asrwt>0</asrwt>
<pdfrwt beam="1">  1       21 0.43718687E-01 0.45853109E+03</pdfrwt>
<pdfrwt beam="2">  1       21 0.26001155E-01 0.45853109E+03</pdfrwt>
<totfact> 0.65284251E+04</totfact>
</mgrwt>
</event>
<event>
 7    0  0.4779893E-002  0.4630945E+03  0.7546771E-02  0.1023888E+00
         21   -1    0    0  502  501  0.00000000000E+00  0.00000000000E+00  0.13763990804E+03  0.13763990804E+03  0.00000000000E+00 0. -1.
         21   -1    0    0  501  502 -0.00000000000E+00 -0.00000000000E+00 -0.38952459123E+03  0.38952459123E+03  0.00000000000E+00 0. -1.
      99926    2    1    2    0    0  0.00000000000E+00  0.00000000000E+00 -0.25188468319E+03  0.52716449926E+03  0.46309449971E+03 0.  0.
      99925    2    3    3    0    0  0.16343481143E+02 -0.68431868687E+02 -0.46149105717E+02  0.27631660518E+03  0.26319402788E+03 0.  0.
         25    1    4    4    0    0  0.64449478953E+01 -0.21340422087E+02  0.16937646582E+02  0.12818479996E+03  0.12509000000E+03 0.  0.
         25    1    3    3    0    0 -0.16343481143E+02  0.68431868687E+02 -0.20573557747E+03  0.25084789408E+03  0.12509000000E+03 0.  0.
         25    1    4    4    0    0  0.98985332473E+01 -0.47091446600E+02 -0.63086752299E+02  0.14813180522E+03  0.12509000000E+03 0.  0.
<mgrwt>
<rscale>  2 0.46309450E+03</rscale>
<asrwt>0</asrwt>
<pdfrwt beam="1">  1       21 0.20241163E-01 0.46309450E+03</pdfrwt>
<pdfrwt beam="2">  1       21 0.57283028E-01 0.46309450E+03</pdfrwt>
<totfact> 0.59488685E+04</totfact>
</mgrwt>
</event>
<event>
 7    0  0.4779893E-002  0.4376035E+03  0.7546771E-02  0.1031485E+00
         21   -1    0    0  502  501  0.00000000000E+00  0.00000000000E+00  0.40178317343E+02  0.40178317343E+02  0.00000000000E+00 0. -1.
         21   -1    0    0  501  502 -0.00000000000E+00 -0.00000000000E+00 -0.11915433695E+04  0.11915433695E+04  0.00000000000E+00 0. -1.
      99926    2    1    2    0    0  0.14210854715E-13  0.00000000000E+00 -0.11513650521E+04  0.12317216868E+04  0.43760350834E+03 0.  0.
      99925    2    3    3    0    0 -0.80683411476E+02 -0.31184848463E+02 -0.61965726267E+03  0.67869095609E+03  0.26299046186E+03 0.  0.
         25    1    4    4    0    0 -0.48723292106E+01  0.66597860163E+01 -0.29929630962E+03  0.32449018690E+03  0.12509000000E+03 0.  0.
         25    1    3    3    0    0  0.80683411476E+02  0.31184848463E+02 -0.53170778946E+03  0.55303073074E+03  0.12509000000E+03 0.  0.
         25    1    4    4    0    0 -0.75811082265E+02 -0.37844634480E+02 -0.32036095305E+03  0.35420076919E+03  0.12509000000E+03 0.  0.
<mgrwt>
<rscale>  2 0.43760351E+03</rscale>
<asrwt>0</asrwt>
<pdfrwt beam="1">  1       21 0.59085756E-02 0.43760351E+03</pdfrwt>
<pdfrwt beam="2">  1       21 0.17522698E+00 0.43760351E+03</pdfrwt>
<totfact> 0.35767260E+04</totfact>
</mgrwt>
</event>
<event>
 7    0  0.4779893E-002  0.4558345E+03  0.7546771E-02  0.1025996E+00
         21   -1    0    0  502  501  0.00000000000E+00  0.00000000000E+00  0.33115178562E+03  0.33115178562E+03  0.00000000000E+00 0.  1.
         21   -1    0    0  501  502 -0.00000000000E+00 -0.00000000000E+00 -0.15686542284E+03  0.15686542284E+03  0.00000000000E+00 0.  1.
      99926    2    1    2    0    0  0.00000000000E+00  0.00000000000E+00  0.17428636278E+03  0.48801720847E+03  0.45583446503E+03 0.  0.
      99925    2    3    3    0    0  0.77101758011E+02 -0.74438881095E+02  0.15082376567E+03  0.32163262484E+03  0.26308536440E+03 0.  0.
         25    1    3    3    0    0 -0.77101758011E+02  0.74438881095E+02  0.23462597109E+02  0.16638458363E+03  0.12509000000E+03 0.  0.
         25    1    4    4    0    0 -0.12314652573E+01 -0.47064553460E+02  0.63544163297E+02  0.14799309946E+03  0.12509000000E+03 0.  0.
         25    1    4    4    0    0  0.78333223268E+02 -0.27374327635E+02  0.87279602376E+02  0.17363952537E+03  0.12509000000E+03 0.  0.
<mgrwt>
<rscale>  2 0.45583447E+03</rscale>
<asrwt>0</asrwt>
<pdfrwt beam="1">  1       21 0.48698792E-01 0.45583447E+03</pdfrwt>
<pdfrwt beam="2">  1       21 0.23068444E-01 0.45583447E+03</pdfrwt>
<totfact> 0.65684769E+04</totfact>
</mgrwt>
</event>
<event>
 7    0  0.4779893E-002  0.4515780E+03  0.7546771E-02  0.1027252E+00
         21   -1    0    0  502  501  0.00000000000E+00  0.00000000000E+00  0.10601816523E+03  0.10601816523E+03  0.00000000000E+00 0. -1.
         21   -1    0    0  501  502 -0.00000000000E+00 -0.00000000000E+00 -0.48086742920E+03  0.48086742920E+03  0.00000000000E+00 0. -1.
      99926    2    1    2    0    0  0.71054273576E-14 -0.14210854715E-13 -0.37484926397E+03  0.58688559444E+03  0.45157804448E+03 0.  0.
      99925    2    3    3    0    0  0.36331446068E+02 -0.75466016080E+02 -0.14363147905E+03  0.31097933188E+03  0.26279849605E+03 0.  0.
         25    1    3    3    0    0 -0.36331446068E+02  0.75466016080E+02 -0.23121778492E+03  0.27590626256E+03  0.12509000000E+03 0.  0.
         25    1    4    4    0    0  0.89330322616E+01 -0.33614456558E+02 -0.11457442953E+03  0.17316044224E+03  0.12509000000E+03 0.  0.
         25    1    4    4    0    0  0.27398413806E+02 -0.41851559522E+02 -0.29057049518E+02  0.13781888964E+03  0.12509000000E+03 0.  0.
<mgrwt>
<rscale>  2 0.45157804E+03</rscale>
<asrwt>0</asrwt>
<pdfrwt beam="1">  1       21 0.15590907E-01 0.45157804E+03</pdfrwt>
<pdfrwt beam="2">  1       21 0.70715798E-01 0.45157804E+03</pdfrwt>
<totfact> 0.61129539E+04</totfact>
</mgrwt>
</event>
<event>
 7    0  0.4779893E-002  0.4631879E+03  0.7546771E-02  0.1023861E+00
         21   -1    0    0  502  501  0.00000000000E+00  0.00000000000E+00  0.54014521561E+03  0.54014521561E+03  0.00000000000E+00 0.  1.
         21   -1    0    0  501  502 -0.00000000000E+00 -0.00000000000E+00 -0.99298771104E+02  0.99298771104E+02  0.00000000000E+00 0.  1.
      99926    2    1    2    0    0 -0.35527136788E-14  0.00000000000E+00  0.44084644450E+03  0.63944398671E+03  0.46318789331E+03 0.  0.
      99925    2    3    3    0    0  0.27278654867E+02 -0.11635091966E+03  0.25269708165E+03  0.38384791405E+03  0.26306224460E+03 0.  0.
         25    1    3    3    0    0 -0.27278654867E+02  0.11635091966E+03  0.18814936285E+03  0.25559607266E+03  0.12509000000E+03 0.  0.
         25    1    4    4    0    0 -0.14180021377E+01 -0.16409286530E+02  0.11545500294E+03  0.17102234129E+03  0.12509000000E+03 0.  0.
         25    1    4    4    0    0  0.28696657005E+02 -0.99941633128E+02  0.13724207871E+03  0.21282557277E+03  0.12509000000E+03 0.  0.
<mgrwt>
<rscale>  2 0.46318789E+03</rscale>
<asrwt>0</asrwt>
<pdfrwt beam="1">  1       21 0.79433119E-01 0.46318789E+03</pdfrwt>
<pdfrwt beam="2">  1       21 0.14602761E-01 0.46318789E+03</pdfrwt>
<totfact> 0.52817048E+04</totfact>
</mgrwt>
</event>
<event>
 7    0  0.4779893E-002  0.4467342E+03  0.7546771E-02  0.1028700E+00
         21   -1    0    0  502  501  0.00000000000E+00  0.00000000000E+00  0.15310996086E+03  0.15310996086E+03  0.00000000000E+00 0.  1.
         21   -1    0    0  501  502 -0.00000000000E+00 -0.00000000000E+00 -0.32586288932E+03  0.32586288932E+03  0.00000000000E+00 0.  1.
      99926    2    1    2    0    0  0.00000000000E+00  0.00000000000E+00 -0.17275292846E+03  0.47897285018E+03  0.44673416807E+03 0.  0.
      99925    2    3    3    0    0  0.89750384125E+02  0.36583071619E+02 -0.15344999653E+03  0.31955652774E+03  0.26301334645E+03 0.  0.
         25    1    4    4    0    0  0.51601650499E+02  0.48096503395E+02 -0.11124328806E+03  0.18165511612E+03  0.12509000000E+03 0.  0.
         25    1    4    4    0    0  0.38148733626E+02 -0.11513431776E+02 -0.42206708471E+02  0.13790141163E+03  0.12509000000E+03 0.  0.
         25    1    3    3    0    0 -0.89750384125E+02 -0.36583071619E+02 -0.19302931929E+02  0.15941632244E+03  0.12509000000E+03 0.  0.
<mgrwt>
<rscale>  2 0.44673417E+03</rscale>
<asrwt>0</asrwt>
<pdfrwt beam="1">  1       21 0.22516171E-01 0.44673417E+03</pdfrwt>
<pdfrwt beam="2">  1       21 0.47921013E-01 0.44673417E+03</pdfrwt>
<totfact> 0.71342436E+04</totfact>
</mgrwt>
</event>
<event>
 7    0  0.4779893E-002  0.4563211E+03  0.7546771E-02  0.1025854E+00
         21   -1    0    0  502  501  0.00000000000E+00  0.00000000000E+00  0.56951944113E+03  0.56951944113E+03  0.00000000000E+00 0. -1.
         21   -1    0    0  501  502 -0.00000000000E+00 -0.00000000000E+00 -0.91405540211E+02  0.91405540211E+02  0.00000000000E+00 0. -1.
      99926    2    1    2    0    0  0.00000000000E+00  0.00000000000E+00  0.47811390092E+03  0.66092498134E+03  0.45632108072E+03 0.  0.
      99925    2    3    3    0    0  0.11339426311E+03 -0.11224347455E+02  0.31818467147E+03  0.42809647919E+03  0.26275628528E+03 0.  0.
         25    1    4    4    0    0  0.73492602957E+02 -0.27814478497E+02  0.12274841030E+03  0.19206636414E+03  0.12509000000E+03 0.  0.
         25    1    3    3    0    0 -0.11339426311E+03  0.11224347455E+02  0.15992922945E+03  0.23282850215E+03  0.12509000000E+03 0.  0.
         25    1    4    4    0    0  0.39901660149E+02  0.16590131042E+02  0.19543626116E+03  0.23603011505E+03  0.12509000000E+03 0.  0.
<mgrwt>
<rscale>  2 0.45632108E+03</rscale>
<asrwt>0</asrwt>
<pdfrwt beam="1">  1       21 0.83752858E-01 0.45632108E+03</pdfrwt>
<pdfrwt beam="2">  1       21 0.13441991E-01 0.45632108E+03</pdfrwt>
<totfact> 0.54505905E+04</totfact>
</mgrwt>
</event>
<event>
 7    0  0.4779893E-002  0.4534879E+03  0.7546771E-02  0.1026687E+00
         21   -1    0    0  502  501  0.00000000000E+00  0.00000000000E+00  0.81543686422E+03  0.81543686422E+03  0.00000000000E+00 0. -1.
         21   -1    0    0  501  502 -0.00000000000E+00 -0.00000000000E+00 -0.63049422517E+02  0.63049422517E+02  0.00000000000E+00 0. -1.
      99926    2    1    2    0    0  0.00000000000E+00  0.71054273576E-14  0.75238744170E+03  0.87848628673E+03  0.45348791996E+03 0.  0.
      99925    2    3    3    0    0 -0.98794513593E+02 -0.49511008405E+02  0.44613488817E+03  0.52970292917E+03  0.26331949958E+03 0.  0.
         25    1    3    3    0    0  0.98794513593E+02  0.49511008405E+02  0.30625255353E+03  0.34878335756E+03  0.12509000000E+03 0.  0.
         25    1    4    4    0    0 -0.11264687493E+02 -0.26963322548E+02  0.16633490344E+03  0.21016356047E+03  0.12509000000E+03 0.  0.
         25    1    4    4    0    0 -0.87529826100E+02 -0.22547685857E+02  0.27979998473E+03  0.31953936870E+03  0.12509000000E+03 0.  0.
<mgrwt>
<rscale>  2 0.45348792E+03</rscale>
<asrwt>0</asrwt>
<pdfrwt beam="1">  1       21 0.11991718E+00 0.45348792E+03</pdfrwt>
<pdfrwt beam="2">  1       21 0.92719744E-02 0.45348792E+03</pdfrwt>
<totfact> 0.44704044E+04</totfact>
</mgrwt>
</event>
<event>
 7    0  0.4779893E-002  0.4548749E+03  0.7546771E-02  0.1026278E+00
         21   -1    0    0  502  501  0.00000000000E+00  0.00000000000E+00  0.19511255167E+03  0.19511255167E+03  0.00000000000E+00 0.  1.
         21   -1    0    0  501  502 -0.00000000000E+00 -0.00000000000E+00 -0.26511775368E+03  0.26511775368E+03  0.00000000000E+00 0.  1.
      99926    2    1    2    0    0 -0.14210854715E-13  0.00000000000E+00 -0.70005202013E+02  0.46023030535E+03  0.45487493408E+03 0.  0.
      99925    2    3    3    0    0 -0.91543525709E+02 -0.11180481624E+02  0.22514169154E+02  0.27936416034E+03  0.26273984472E+03 0.  0.
         25    1    3    3    0    0  0.91543525709E+02  0.11180481624E+02 -0.92519371167E+02  0.18086614501E+03  0.12509000000E+03 0.  0.
         25    1    4    4    0    0 -0.85945093446E+02 -0.15212947370E+02  0.28999336466E+01  0.15255789252E+03  0.12509000000E+03 0.  0.
         25    1    4    4    0    0 -0.55984322625E+01  0.40324657456E+01  0.19614235507E+02  0.12680626782E+03  0.12509000000E+03 0.  0.
<mgrwt>
<rscale>  2 0.45487493E+03</rscale>
<asrwt>0</asrwt>
<pdfrwt beam="1">  1       21 0.28693022E-01 0.45487493E+03</pdfrwt>
<pdfrwt beam="2">  1       21 0.38987905E-01 0.45487493E+03</pdfrwt>
<totfact> 0.68231803E+04</totfact>
</mgrwt>
</event>
<event>
 7    0  0.4779893E-002  0.4524342E+03  0.7546771E-02  0.1026999E+00
         21   -1    0    0  502  501  0.00000000000E+00  0.00000000000E+00  0.68780029663E+03  0.68780029663E+03  0.00000000000E+00 0.  1.
         21   -1    0    0  501  502 -0.00000000000E+00 -0.00000000000E+00 -0.74402664806E+02  0.74402664806E+02  0.00000000000E+00 0.  1.
      99926    2    1    2    0    0  0.14210854715E-13  0.00000000000E+00  0.61339763182E+03  0.76220296144E+03  0.45243419377E+03 0.  0.
      99925    2    3    3    0    0 -0.10165275575E+03  0.39423188037E+02  0.41946413618E+03  0.50696742446E+03  0.26301775113E+03 0.  0.
         25    1    3    3    0    0  0.10165275575E+03 -0.39423188037E+02  0.19393349564E+03  0.25523553698E+03  0.12509000000E+03 0.  0.
         25    1    4    4    0    0 -0.23949454081E+02 -0.12561024171E+02  0.17298754560E+03  0.21518260783E+03  0.12509000000E+03 0.  0.
         25    1    4    4    0    0 -0.77703301667E+02  0.51984212208E+02  0.24647659058E+03  0.29178481662E+03  0.12509000000E+03 0.  0.
<mgrwt>
<rscale>  2 0.45243419E+03</rscale>
<asrwt>0</asrwt>
<pdfrwt beam="1">  1       21 0.10114710E+00 0.45243419E+03</pdfrwt>
<pdfrwt beam="2">  1       21 0.10941569E-01 0.45243419E+03</pdfrwt>
<totfact> 0.50659841E+04</totfact>
</mgrwt>
</event>
<event>
 7    0  0.4779893E-002  0.4670035E+03  0.7546771E-02  0.1022769E+00
         21   -1    0    0  502  501  0.00000000000E+00  0.00000000000E+00  0.38207847566E+02  0.38207847566E+02  0.00000000000E+00 0.  1.
         21   -1    0    0  501  502 -0.00000000000E+00 -0.00000000000E+00 -0.14270121094E+04  0.14270121094E+04  0.00000000000E+00 0.  1.
      99926    2    1    2    0    0  0.00000000000E+00 -0.14210854715E-13 -0.13888042618E+04  0.14652199570E+04  0.46700347387E+03 0.  0.
      99925    2    3    3    0    0 -0.33186765774E+02 -0.86895410659E+02 -0.60735036820E+03  0.66836999004E+03  0.26304334247E+03 0.  0.
         25    1    3    3    0    0  0.33186765774E+02  0.86895410659E+02 -0.78145389364E+03  0.79684996693E+03  0.12509000000E+03 0.  0.
         25    1    4    4    0    0  0.16533055807E+02 -0.36150950474E+02 -0.34573768982E+03  0.36981386050E+03  0.12509000000E+03 0.  0.
         25    1    4    4    0    0 -0.49719821581E+02 -0.50744460185E+02 -0.26161267838E+03  0.29855612954E+03  0.12509000000E+03 0.  0.
<mgrwt>
<rscale>  2 0.46700347E+03</rscale>
<asrwt>0</asrwt>
<pdfrwt beam="1">  1       21 0.56188018E-02 0.46700347E+03</pdfrwt>
<pdfrwt beam="2">  1       21 0.20985470E+00 0.46700347E+03</pdfrwt>
<totfact> 0.22474415E+04</totfact>
</mgrwt>
</event>
<event>
 7    0  0.4779893E-002  0.4520600E+03  0.7546771E-02  0.1027110E+00
         21   -1    0    0  502  501  0.00000000000E+00  0.00000000000E+00  0.31245679446E+03  0.31245679446E+03  0.00000000000E+00 0. -1.
         21   -1    0    0  501  502 -0.00000000000E+00 -0.00000000000E+00 -0.16350917364E+03  0.16350917364E+03  0.00000000000E+00 0. -1.
      99926    2    1    2    0    0  0.00000000000E+00  0.00000000000E+00  0.14894762082E+03  0.47596596810E+03  0.45205996177E+03 0.  0.
      99925    2    3    3    0    0 -0.91775204895E+02  0.50967450082E+02  0.12981060071E+03  0.31154546195E+03  0.26303880627E+03 0.  0.
         25    1    4    4    0    0 -0.42567772733E+02  0.87811295897E+01  0.22221643973E+02  0.13427744812E+03  0.12509000000E+03 0.  0.
         25    1    3    3    0    0  0.91775204895E+02 -0.50967450082E+02  0.19137020113E+02  0.16442050614E+03  0.12509000000E+03 0.  0.
         25    1    4    4    0    0 -0.49207432162E+02  0.42186320492E+02  0.10758895674E+03  0.17726801383E+03  0.12509000000E+03 0.  0.
<mgrwt>
<rscale>  2 0.45205996E+03</rscale>
<asrwt>0</asrwt>
<pdfrwt beam="1">  1       21 0.45949529E-01 0.45205996E+03</pdfrwt>
<pdfrwt beam="2">  1       21 0.24045467E-01 0.45205996E+03</pdfrwt>
<totfact> 0.68581324E+04</totfact>
</mgrwt>
</event>
<event>
 7    0  0.4779893E-002  0.4584416E+03  0.7546771E-02  0.1025234E+00
         21   -1    0    0  502  501  0.00000000000E+00  0.00000000000E+00  0.32219803426E+03  0.32219803426E+03  0.00000000000E+00 0. -1.
         21   -1    0    0  501  502 -0.00000000000E+00 -0.00000000000E+00 -0.16307415985E+03  0.16307415985E+03  0.00000000000E+00 0. -1.
      99926    2    1    2    0    0  0.00000000000E+00  0.00000000000E+00  0.15912387441E+03  0.48527219410E+03  0.45844159384E+03 0.  0.
      99925    2    3    3    0    0  0.73185953627E+02 -0.90573252546E+02  0.10087476162E+03  0.30471703598E+03  0.26290122974E+03 0.  0.
         25    1    3    3    0    0 -0.73185953627E+02  0.90573252546E+02  0.58249112789E+02  0.18055515813E+03  0.12509000000E+03 0.  0.
         25    1    4    4    0    0 -0.42151352735E+01 -0.36078909828E+02  0.37689568125E+02  0.13560039360E+03  0.12509000000E+03 0.  0.
         25    1    4    4    0    0  0.77401088900E+02 -0.54494342718E+02  0.63185193499E+02  0.16911664238E+03  0.12509000000E+03 0.  0.
<mgrwt>
<rscale>  2 0.45844159E+03</rscale>
<asrwt>0</asrwt>
<pdfrwt beam="1">  1       21 0.47382064E-01 0.45844159E+03</pdfrwt>
<pdfrwt beam="2">  1       21 0.23981494E-01 0.45844159E+03</pdfrwt>
<totfact> 0.64537044E+04</totfact>
</mgrwt>
</event>
<event>
 7    0  0.4779893E-002  0.4618429E+03  0.7546771E-02  0.1024248E+00
         21   -1    0    0  502  501  0.00000000000E+00  0.00000000000E+00  0.34259088949E+03  0.34259088949E+03  0.00000000000E+00 0. -1.
         21   -1    0    0  501  502 -0.00000000000E+00 -0.00000000000E+00 -0.15565132961E+03  0.15565132961E+03  0.00000000000E+00 0. -1.
      99926    2    1    2    0    0  0.00000000000E+00  0.00000000000E+00  0.18693955988E+03  0.49824221910E+03  0.46184294933E+03 0.  0.
      99925    2    3    3    0    0  0.75189524576E+02  0.66247651012E+02  0.46773363434E+02  0.28531902498E+03  0.26301517564E+03 0.  0.
         25    1    4    4    0    0  0.50824964436E+01  0.58442834035E+01  0.12172802641E+02  0.12591931005E+03  0.12509000000E+03 0.  0.
         25    1    4    4    0    0  0.70107028133E+02  0.60403367608E+02  0.34600560793E+02  0.15939971493E+03  0.12509000000E+03 0.  0.
         25    1    3    3    0    0 -0.75189524576E+02 -0.66247651012E+02  0.14016619644E+03  0.21292319412E+03  0.12509000000E+03 0.  0.
<mgrwt>
<rscale>  2 0.46184295E+03</rscale>
<asrwt>0</asrwt>
<pdfrwt beam="1">  1       21 0.50381013E-01 0.46184295E+03</pdfrwt>
<pdfrwt beam="2">  1       21 0.22889901E-01 0.46184295E+03</pdfrwt>
<totfact> 0.61959471E+04</totfact>
</mgrwt>
</event>
<event>
 7    0  0.4779893E-002  0.4518229E+03  0.7546771E-02  0.1027180E+00
         21   -1    0    0  502  501  0.00000000000E+00  0.00000000000E+00  0.81670781571E+03  0.81670781571E+03  0.00000000000E+00 0. -1.
         21   -1    0    0  501  502 -0.00000000000E+00 -0.00000000000E+00 -0.62489902752E+02  0.62489902752E+02  0.00000000000E+00 0. -1.
      99926    2    1    2    0    0  0.00000000000E+00  0.00000000000E+00  0.75421791296E+03  0.87919771847E+03  0.45182293869E+03 0.  0.
      99925    2    3    3    0    0 -0.46283807400E+02  0.56449718297E+02  0.63641106900E+03  0.69250352437E+03  0.26308424697E+03 0.  0.
         25    1    3    3    0    0  0.46283807400E+02 -0.56449718297E+02  0.11780684397E+03  0.18669419409E+03  0.12509000000E+03 0.  0.
         25    1    4    4    0    0 -0.28041974286E+02  0.45721746739E+02  0.23553724353E+03  0.27203332817E+03  0.12509000000E+03 0.  0.
         25    1    4    4    0    0 -0.18241833113E+02  0.10727971558E+02  0.40087382547E+03  0.42047019620E+03  0.12509000000E+03 0.  0.
<mgrwt>
<rscale>  2 0.45182294E+03</rscale>
<asrwt>0</asrwt>
<pdfrwt beam="1">  1       21 0.12010408E+00 0.45182294E+03</pdfrwt>
<pdfrwt beam="2">  1       21 0.91896921E-02 0.45182294E+03</pdfrwt>
<totfact> 0.45261113E+04</totfact>
</mgrwt>
</event>
<event>
 7    0  0.4779893E-002  0.4508844E+03  0.7546771E-02  0.1027459E+00
         21   -1    0    0  502  501  0.00000000000E+00  0.00000000000E+00  0.68254849809E+02  0.68254849809E+02  0.00000000000E+00 0.  1.
         21   -1    0    0  501  502 -0.00000000000E+00 -0.00000000000E+00 -0.74462381107E+03  0.74462381107E+03  0.00000000000E+00 0.  1.
      99926    2    1    2    0    0  0.00000000000E+00  0.71054273576E-14 -0.67636896126E+03  0.81287866087E+03  0.45088440376E+03 0.  0.
      99925    2    3    3    0    0 -0.72622495031E+02  0.48929490602E+02 -0.30949554838E+03  0.41549757047E+03  0.26302588231E+03 0.  0.
         25    1    4    4    0    0 -0.24005946813E+02  0.63116826957E+02 -0.15282820009E+03  0.20871987488E+03  0.12509000000E+03 0.  0.
         25    1    4    4    0    0 -0.48616548218E+02 -0.14187336355E+02 -0.15666734829E+03  0.20677769559E+03  0.12509000000E+03 0.  0.
         25    1    3    3    0    0  0.72622495031E+02 -0.48929490602E+02 -0.36687341287E+03  0.39738109040E+03  0.12509000000E+03 0.  0.
<mgrwt>
<rscale>  2 0.45088440E+03</rscale>
<asrwt>0</asrwt>
<pdfrwt beam="1">  1       21 0.10037478E-01 0.45088440E+03</pdfrwt>
<pdfrwt beam="2">  1       21 0.10950350E+00 0.45088440E+03</pdfrwt>
<totfact> 0.48702095E+04</totfact>
</mgrwt>
</event>
<event>
 7    0  0.4779893E-002  0.4303575E+03  0.7546771E-02  0.1033747E+00
         21   -1    0    0  502  501  0.00000000000E+00  0.00000000000E+00  0.49822633362E+03  0.49822633362E+03  0.00000000000E+00 0.  1.
         21   -1    0    0  501  502 -0.00000000000E+00 -0.00000000000E+00 -0.92933439705E+02  0.92933439705E+02  0.00000000000E+00 0.  1.
      99926    2    1    2    0    0  0.00000000000E+00  0.71054273576E-14  0.40529289391E+03  0.59115977332E+03  0.43035746507E+03 0.  0.
      99925    2    3    3    0    0 -0.72375676592E+02 -0.49929706919E+02  0.25370069758E+03  0.37584856534E+03  0.26299598080E+03 0.  0.
         25    1    3    3    0    0  0.72375676592E+02  0.49929706919E+02  0.15159219633E+03  0.21531120798E+03  0.12509000000E+03 0.  0.
         25    1    4    4    0    0 -0.46521778987E+02 -0.19810638685E+02  0.75731765654E+02  0.15472409558E+03  0.12509000000E+03 0.  0.
         25    1    4    4    0    0 -0.25853897605E+02 -0.30119068234E+02  0.17796893193E+03  0.22112446975E+03  0.12509000000E+03 0.  0.
<mgrwt>
<rscale>  2 0.43035747E+03</rscale>
<asrwt>0</asrwt>
<pdfrwt beam="1">  1       21 0.73268577E-01 0.43035747E+03</pdfrwt>
<pdfrwt beam="2">  1       21 0.13666683E-01 0.43035747E+03</pdfrwt>
<totfact> 0.72311821E+04</totfact>
</mgrwt>
</event>
<event>
 7    0  0.4779893E-002  0.4602531E+03  0.7546771E-02  0.1024708E+00
         21   -1    0    0  502  501  0.00000000000E+00  0.00000000000E+00  0.43321506487E+02  0.43321506487E+02  0.00000000000E+00 0.  1.
         21   -1    0    0  501  502 -0.00000000000E+00 -0.00000000000E+00 -0.12224464262E+04  0.12224464262E+04  0.00000000000E+00 0.  1.
      99926    2    1    2    0    0  0.00000000000E+00  0.00000000000E+00 -0.11791249197E+04  0.12657679327E+04  0.46025306422E+03 0.  0.
      99925    2    3    3    0    0 -0.11075881739E+03  0.40838634756E+02 -0.74193995607E+03  0.79596636792E+03  0.26296815535E+03 0.  0.
         25    1    3    3    0    0  0.11075881739E+03 -0.40838634756E+02 -0.43718496362E+03  0.46980156474E+03  0.12509000000E+03 0.  0.
         25    1    4    4    0    0 -0.78344157569E+02  0.55522622285E+02 -0.42980172896E+03  0.45781830777E+03  0.12509000000E+03 0.  0.
         25    1    4    4    0    0 -0.32414659825E+02 -0.14683987529E+02 -0.31213822711E+03  0.33814806015E+03  0.12509000000E+03 0.  0.
<mgrwt>
<rscale>  2 0.46025306E+03</rscale>
<asrwt>0</asrwt>
<pdfrwt beam="1">  1       21 0.63708108E-02 0.46025306E+03</pdfrwt>
<pdfrwt beam="2">  1       21 0.17977151E+00 0.46025306E+03</pdfrwt>
<totfact> 0.28924470E+04</totfact>
</mgrwt>
</event>
<event>
 7    0  0.4779893E-002  0.4545784E+03  0.7546771E-02  0.1026365E+00
         21   -1    0    0  502  501  0.00000000000E+00  0.00000000000E+00  0.43280114702E+03  0.43280114702E+03  0.00000000000E+00 0.  1.
         21   -1    0    0  501  502 -0.00000000000E+00 -0.00000000000E+00 -0.11936283478E+03  0.11936283478E+03  0.00000000000E+00 0.  1.
      99926    2    1    2    0    0  0.71054273576E-14 -0.14210854715E-13  0.31343831224E+03  0.55216398180E+03  0.45457836202E+03 0.  0.
      99925    2    3    3    0    0  0.63687658000E+02 -0.67521440802E+02  0.11983776989E+03  0.30368070098E+03  0.26314561427E+03 0.  0.
         25    1    4    4    0    0  0.29413749479E+02  0.38900400742E+01  0.35883076392E+02  0.13347435837E+03  0.12509000000E+03 0.  0.
         25    1    4    4    0    0  0.34273908522E+02 -0.71411480876E+02  0.83954693502E+02  0.17020634262E+03  0.12509000000E+03 0.  0.
         25    1    3    3    0    0 -0.63687658000E+02  0.67521440802E+02  0.19360054235E+03  0.24848328082E+03  0.12509000000E+03 0.  0.
<mgrwt>
<rscale>  2 0.45457836E+03</rscale>
<asrwt>0</asrwt>
<pdfrwt beam="1">  1       21 0.63647227E-01 0.45457836E+03</pdfrwt>
<pdfrwt beam="2">  1       21 0.17553358E-01 0.45457836E+03</pdfrwt>
<totfact> 0.61930067E+04</totfact>
</mgrwt>
</event>
<event>
 7    0  0.4779893E-002  0.4515526E+03  0.7546771E-02  0.1027260E+00
         21   -1    0    0  502  501  0.00000000000E+00  0.00000000000E+00  0.14714506653E+04  0.14714506653E+04  0.00000000000E+00 0. -1.
         21   -1    0    0  501  502 -0.00000000000E+00 -0.00000000000E+00 -0.34642639486E+02  0.34642639486E+02  0.00000000000E+00 0. -1.
      99926    2    1    2    0    0  0.71054273576E-14  0.00000000000E+00  0.14368080258E+04  0.15060933048E+04  0.45155258795E+03 0.  0.
      99925    2    3    3    0    0  0.61582331375E+02  0.85278028399E+02  0.80518105532E+03  0.85366333643E+03  0.26336255322E+03 0.  0.
         25    1    4    4    0    0  0.66887438114E+02  0.28166771633E+02  0.37075525805E+03  0.39796264382E+03  0.12509000000E+03 0.  0.
         25    1    3    3    0    0 -0.61582331375E+02 -0.85278028399E+02  0.63162697052E+03  0.65242996839E+03  0.12509000000E+03 0.  0.
         25    1    4    4    0    0 -0.53051067389E+01  0.57111256766E+02  0.43442579727E+03  0.45570069261E+03  0.12509000000E+03 0.  0.
<mgrwt>
<rscale>  2 0.45155259E+03</rscale>
<asrwt>0</asrwt>
<pdfrwt beam="1">  1       21 0.21638976E+00 0.45155259E+03</pdfrwt>
<pdfrwt beam="2">  1       21 0.50945068E-02 0.45155259E+03</pdfrwt>
<totfact> 0.24273677E+04</totfact>
</mgrwt>
</event>
<event>
 7    0  0.4779893E-002  0.4438680E+03  0.7546771E-02  0.1029567E+00
         21   -1    0    0  502  501  0.00000000000E+00  0.00000000000E+00  0.15709504693E+04  0.15709504693E+04  0.00000000000E+00 0. -1.
         21   -1    0    0  501  502 -0.00000000000E+00 -0.00000000000E+00 -0.31353433779E+02  0.31353433779E+02  0.00000000000E+00 0. -1.
      99926    2    1    2    0    0  0.00000000000E+00 -0.35527136788E-14  0.15395970355E+04  0.16023039031E+04  0.44386796014E+03 0.  0.
      99925    2    3    3    0    0  0.50154088996E+02  0.23046309590E+02  0.12897756484E+04  0.13175148608E+04  0.26320642137E+03 0.  0.
         25    1    4    4    0    0  0.49598937066E+02 -0.20440142725E+02  0.61825941577E+03  0.63306403095E+03  0.12509000000E+03 0.  0.
         25    1    4    4    0    0  0.55515193023E+00  0.43486452316E+02  0.67151623258E+03  0.68445082983E+03  0.12509000000E+03 0.  0.
         25    1    3    3    0    0 -0.50154088996E+02 -0.23046309590E+02  0.24982138716E+03  0.28478904230E+03  0.12509000000E+03 0.  0.
<mgrwt>
<rscale>  2 0.44386796E+03</rscale>
<asrwt>0</asrwt>
<pdfrwt beam="1">  1       21 0.23102207E+00 0.44386796E+03</pdfrwt>
<pdfrwt beam="2">  1       21 0.46108002E-02 0.44386796E+03</pdfrwt>
<totfact> 0.23330256E+04</totfact>
</mgrwt>
</event>
<event>
 7    0  0.4779893E-002  0.4564167E+03  0.7546771E-02  0.1025826E+00
         21   -1    0    0  502  501  0.00000000000E+00  0.00000000000E+00  0.29815440295E+03  0.29815440295E+03  0.00000000000E+00 0.  1.
         21   -1    0    0  501  502 -0.00000000000E+00 -0.00000000000E+00 -0.17467140210E+03  0.17467140210E+03  0.00000000000E+00 0.  1.
      99926    2    1    2    0    0  0.14210854715E-13 -0.14210854715E-13  0.12348300085E+03  0.47282580506E+03  0.45641668509E+03 0.  0.
      99925    2    3    3    0    0  0.73401677942E+02 -0.87504175010E+02  0.69744141914E+02  0.29511772975E+03  0.26303125691E+03 0.  0.
         25    1    4    4    0    0  0.56682660526E+01 -0.12432852263E+02  0.27170802204E+02  0.12873408891E+03  0.12509000000E+03 0.  0.
         25    1    3    3    0    0 -0.73401677942E+02  0.87504175010E+02  0.53738858932E+02  0.17770807530E+03  0.12509000000E+03 0.  0.
         25    1    4    4    0    0  0.67733411890E+02 -0.75071322747E+02  0.42573339710E+02  0.16638364084E+03  0.12509000000E+03 0.  0.
<mgrwt>
<rscale>  2 0.45641669E+03</rscale>
<asrwt>0</asrwt>
<pdfrwt beam="1">  1       21 0.43846236E-01 0.45641669E+03</pdfrwt>
<pdfrwt beam="2">  1       21 0.25686971E-01 0.45641669E+03</pdfrwt>
<totfact> 0.66475845E+04</totfact>
</mgrwt>
</event>
<event>
 7    0  0.4779893E-002  0.4118887E+03  0.7546771E-02  0.1039739E+00
         21   -1    0    0  502  501  0.00000000000E+00  0.00000000000E+00  0.32599586896E+02  0.32599586896E+02  0.00000000000E+00 0. -1.
         21   -1    0    0  501  502 -0.00000000000E+00 -0.00000000000E+00 -0.13010310637E+04  0.13010310637E+04  0.00000000000E+00 0. -1.
      99926    2    1    2    0    0  0.00000000000E+00  0.00000000000E+00 -0.12684314768E+04  0.13336306506E+04  0.41188869960E+03 0.  0.
      99925    2    3    3    0    0 -0.20432826644E+02  0.18113315340E+02 -0.10252128001E+04  0.10587699124E+04  0.26303393193E+03 0.  0.
         25    1    4    4    0    0 -0.32687531358E+01 -0.24447204127E+02 -0.58993220835E+03  0.60355270613E+03  0.12509000000E+03 0.  0.
         25    1    4    4    0    0 -0.17164073509E+02  0.42560519467E+02 -0.43528059171E+03  0.45521720624E+03  0.12509000000E+03 0.  0.
         25    1    3    3    0    0  0.20432826644E+02 -0.18113315340E+02 -0.24321867674E+03  0.27486073821E+03  0.12509000000E+03 0.  0.
<mgrwt>
<rscale>  2 0.41188870E+03</rscale>
<asrwt>0</asrwt>
<pdfrwt beam="1">  1       21 0.47940577E-02 0.41188870E+03</pdfrwt>
<pdfrwt beam="2">  1       21 0.19132807E+00 0.41188870E+03</pdfrwt>
<totfact> 0.39963452E+04</totfact>
</mgrwt>
</event>
<event>
 7    0  0.4779893E-002  0.4534604E+03  0.7546771E-02  0.1026695E+00
         21   -1    0    0  502  501  0.00000000000E+00  0.00000000000E+00  0.39210800475E+03  0.39210800475E+03  0.00000000000E+00 0. -1.
         21   -1    0    0  501  502 -0.00000000000E+00 -0.00000000000E+00 -0.13110312734E+03  0.13110312734E+03  0.00000000000E+00 0. -1.
      99926    2    1    2    0    0  0.00000000000E+00  0.00000000000E+00  0.26100487741E+03  0.52321113208E+03  0.45346040919E+03 0.  0.
      99925    2    3    3    0    0 -0.29617258802E+02 -0.10365858124E+03  0.13105326602E+03  0.31307495508E+03  0.26309444213E+03 0.  0.
         25    1    4    4    0    0 -0.42970576044E+02 -0.23514729207E+02  0.74028813456E+02  0.15338574320E+03  0.12509000000E+03 0.  0.
         25    1    3    3    0    0  0.29617258802E+02  0.10365858124E+03  0.12995161139E+03  0.21013617700E+03  0.12509000000E+03 0.  0.
         25    1    4    4    0    0  0.13353317242E+02 -0.80143852032E+02  0.57024452567E+02  0.15968921188E+03  0.12509000000E+03 0.  0.
<mgrwt>
<rscale>  2 0.45346041E+03</rscale>
<asrwt>0</asrwt>
<pdfrwt beam="1">  1       21 0.57662942E-01 0.45346041E+03</pdfrwt>
<pdfrwt beam="2">  1       21 0.19279872E-01 0.45346041E+03</pdfrwt>
<totfact> 0.64451455E+04</totfact>
</mgrwt>
</event>
<event>
 7    0  0.4779893E-002  0.4658868E+03  0.7546771E-02  0.1023088E+00
         21   -1    0    0  502  501  0.00000000000E+00  0.00000000000E+00  0.10599291692E+04  0.10599291692E+04  0.00000000000E+00 0. -1.
         21   -1    0    0  501  502 -0.00000000000E+00 -0.00000000000E+00 -0.51194581323E+02  0.51194581323E+02  0.00000000000E+00 0. -1.
      99926    2    1    2    0    0  0.00000000000E+00  0.00000000000E+00  0.10087345879E+04  0.11111237505E+04  0.46588681050E+03 0.  0.
      99925    2    3    3    0    0  0.10517435847E+03 -0.57326535440E+02  0.69642744761E+03  0.75400859360E+03  0.26300150586E+03 0.  0.
         25    1    4    4    0    0  0.15834523352E+02 -0.43363348278E+02  0.35873350715E+03  0.38271183592E+03  0.12509000000E+03 0.  0.
         25    1    3    3    0    0 -0.10517435847E+03  0.57326535440E+02  0.31230714027E+03  0.35711515693E+03  0.12509000000E+03 0.  0.
         25    1    4    4    0    0  0.89339835119E+02 -0.13963187162E+02  0.33769394046E+03  0.37129675768E+03  0.12509000000E+03 0.  0.
<mgrwt>
<rscale>  2 0.46588681E+03</rscale>
<asrwt>0</asrwt>
<pdfrwt beam="1">  1       21 0.15587192E+00 0.46588681E+03</pdfrwt>
<pdfrwt beam="2">  1       21 0.75286155E-02 0.46588681E+03</pdfrwt>
<totfact> 0.32278832E+04</totfact>
</mgrwt>
</event>
<event>
 7    0  0.4779893E-002  0.4523893E+03  0.7546771E-02  0.1027012E+00
         21   -1    0    0  502  501  0.00000000000E+00  0.00000000000E+00  0.74620870138E+02  0.74620870138E+02  0.00000000000E+00 0.  1.
         21   -1    0    0  501  502 -0.00000000000E+00 -0.00000000000E+00 -0.68565308096E+03  0.68565308096E+03  0.00000000000E+00 0.  1.
      99926    2    1    2    0    0  0.00000000000E+00  0.00000000000E+00 -0.61103221082E+03  0.76027395110E+03  0.45238934344E+03 0.  0.
      99925    2    3    3    0    0  0.10530887841E+03 -0.22115775001E+02 -0.42920890371E+03  0.51474128426E+03  0.26298144292E+03 0.  0.
         25    1    4    4    0    0  0.31305614851E+02 -0.42843175271E+02 -0.18040180758E+03  0.22584928485E+03  0.12509000000E+03 0.  0.
         25    1    4    4    0    0  0.74003263559E+02  0.20727400270E+02 -0.24880709613E+03  0.28889199941E+03  0.12509000000E+03 0.  0.
         25    1    3    3    0    0 -0.10530887841E+03  0.22115775001E+02 -0.18182330711E+03  0.24553266684E+03  0.12509000000E+03 0.  0.
<mgrwt>
<rscale>  2 0.45238934E+03</rscale>
<asrwt>0</asrwt>
<pdfrwt beam="1">  1       21 0.10973658E-01 0.45238934E+03</pdfrwt>
<pdfrwt beam="2">  1       21 0.10083133E+00 0.45238934E+03</pdfrwt>
<totfact> 0.50778740E+04</totfact>
</mgrwt>
</event>
<event>
 7    0  0.4779893E-002  0.4614167E+03  0.7546771E-02  0.1024371E+00
         21   -1    0    0  502  501  0.00000000000E+00  0.00000000000E+00  0.98129210405E+03  0.98129210405E+03  0.00000000000E+00 0. -1.
         21   -1    0    0  501  502 -0.00000000000E+00 -0.00000000000E+00 -0.54241088231E+02  0.54241088231E+02  0.00000000000E+00 0. -1.
      99926    2    1    2    0    0  0.00000000000E+00  0.00000000000E+00  0.92705101582E+03  0.10355331923E+04  0.46141673830E+03 0.  0.
      99925    2    3    3    0    0 -0.35291746883E+02  0.95223059476E+02  0.43967522066E+03  0.52221495546E+03  0.26283306790E+03 0.  0.
         25    1    4    4    0    0  0.49458437450E+01  0.76468309651E+02  0.26418525669E+03  0.30218077653E+03  0.12509000000E+03 0.  0.
         25    1    4    4    0    0 -0.40237590628E+02  0.18754749825E+02  0.17548996397E+03  0.22003417892E+03  0.12509000000E+03 0.  0.
         25    1    3    3    0    0  0.35291746883E+02 -0.95223059476E+02  0.48737579515E+03  0.51331823682E+03  0.12509000000E+03 0.  0.
<mgrwt>
<rscale>  2 0.46141674E+03</rscale>
<asrwt>0</asrwt>
<pdfrwt beam="1">  1       21 0.14430765E+00 0.46141674E+03</pdfrwt>
<pdfrwt beam="2">  1       21 0.79766312E-02 0.46141674E+03</pdfrwt>
<totfact> 0.35976527E+04</totfact>
</mgrwt>
</event>
<event>
 7    0  0.4779893E-002  0.4573798E+03  0.7546771E-02  0.1025544E+00
         21   -1    0    0  502  501  0.00000000000E+00  0.00000000000E+00  0.13497588476E+03  0.13497588476E+03  0.00000000000E+00 0.  1.
         21   -1    0    0  501  502 -0.00000000000E+00 -0.00000000000E+00 -0.38746968780E+03  0.38746968780E+03  0.00000000000E+00 0.  1.
      99926    2    1    2    0    0  0.00000000000E+00  0.00000000000E+00 -0.25249380304E+03  0.52244557256E+03  0.45737977187E+03 0.  0.
      99925    2    3    3    0    0  0.24137833120E+02  0.91862322626E+02 -0.23371171827E+03  0.36426341138E+03  0.26276480798E+03 0.  0.
         25    1    4    4    0    0  0.59703263100E+01  0.86644607712E+02 -0.13958911975E+03  0.20658064598E+03  0.12509000000E+03 0.  0.
         25    1    4    4    0    0  0.18167506810E+02  0.52177149139E+01 -0.94122598519E+02  0.15768276540E+03  0.12509000000E+03 0.  0.
         25    1    3    3    0    0 -0.24137833120E+02 -0.91862322626E+02 -0.18782084770E+02  0.15818216118E+03  0.12509000000E+03 0.  0.
<mgrwt>
<rscale>  2 0.45737977E+03</rscale>
<asrwt>0</asrwt>
<pdfrwt beam="1">  1       21 0.19849395E-01 0.45737977E+03</pdfrwt>
<pdfrwt beam="2">  1       21 0.56980837E-01 0.45737977E+03</pdfrwt>
<totfact> 0.62531969E+04</totfact>
</mgrwt>
</event>
<event>
 7    0  0.4779893E-002  0.4496788E+03  0.7546771E-02  0.1027818E+00
         21   -1    0    0  502  501  0.00000000000E+00  0.00000000000E+00  0.34992417553E+03  0.34992417553E+03  0.00000000000E+00 0. -1.
         21   -1    0    0  501  502 -0.00000000000E+00 -0.00000000000E+00 -0.14446775274E+03  0.14446775274E+03  0.00000000000E+00 0. -1.
      99926    2    1    2    0    0  0.17763568394E-14  0.00000000000E+00  0.20545642279E+03  0.49439192827E+03  0.44967881546E+03 0.  0.
      99925    2    3    3    0    0 -0.79165190554E+01  0.50111672086E+02  0.24974793730E+02  0.26901451707E+03  0.26300421882E+03 0.  0.
         25    1    4    4    0    0 -0.40137519945E+02  0.66836207207E+01  0.10153572382E+02  0.13193291638E+03  0.12509000000E+03 0.  0.
         25    1    4    4    0    0  0.32221000889E+02  0.43428051365E+02  0.14821221348E+02  0.13708160068E+03  0.12509000000E+03 0.  0.
         25    1    3    3    0    0  0.79165190554E+01 -0.50111672086E+02  0.18048162906E+03  0.22537741120E+03  0.12509000000E+03 0.  0.
<mgrwt>
<rscale>  2 0.44967882E+03</rscale>
<asrwt>0</asrwt>
<pdfrwt beam="1">  1       21 0.51459438E-01 0.44967882E+03</pdfrwt>
<pdfrwt beam="2">  1       21 0.21245258E-01 0.44967882E+03</pdfrwt>
<totfact> 0.68515220E+04</totfact>
</mgrwt>
</event>
<event>
 7    0  0.4779893E-002  0.4473098E+03  0.7546771E-02  0.1028527E+00
         21   -1    0    0  502  501  0.00000000000E+00  0.00000000000E+00  0.36005400861E+03  0.36005400861E+03  0.00000000000E+00 0.  1.
         21   -1    0    0  501  502 -0.00000000000E+00 -0.00000000000E+00 -0.13892779822E+03  0.13892779822E+03  0.00000000000E+00 0.  1.
      99926    2    1    2    0    0 -0.14210854715E-13  0.00000000000E+00  0.22112621040E+03  0.49898180683E+03  0.44730978373E+03 0.  0.
      99925    2    3    3    0    0  0.87891814052E+02 -0.18268743996E+02  0.77656181762E+02  0.28853020859E+03  0.26298380315E+03 0.  0.
         25    1    3    3    0    0 -0.87891814052E+02  0.18268743996E+02  0.14347002864E+03  0.21045159824E+03  0.12509000000E+03 0.  0.
         25    1    4    4    0    0  0.83647713213E+02 -0.24470758306E+02  0.46666882724E+02  0.15943984440E+03  0.12509000000E+03 0.  0.
         25    1    4    4    0    0  0.42441008394E+01  0.62020143099E+01  0.30989299038E+02  0.12909036420E+03  0.12509000000E+03 0.  0.
<mgrwt>
<rscale>  2 0.44730978E+03</rscale>
<asrwt>0</asrwt>
<pdfrwt beam="1">  1       21 0.52949119E-01 0.44730978E+03</pdfrwt>
<pdfrwt beam="2">  1       21 0.20430559E-01 0.44730978E+03</pdfrwt>
<totfact> 0.69488006E+04</totfact>
</mgrwt>
</event>
<event>
 7    0  0.4779893E-002  0.4529724E+03  0.7546771E-02  0.1026839E+00
         21   -1    0    0  502  501  0.00000000000E+00  0.00000000000E+00  0.98009798846E+03  0.98009798846E+03  0.00000000000E+00 0.  1.
         21   -1    0    0  501  502 -0.00000000000E+00 -0.00000000000E+00 -0.52337615754E+02  0.52337615754E+02  0.00000000000E+00 0.  1.
      99926    2    1    2    0    0  0.00000000000E+00  0.00000000000E+00  0.92776037271E+03  0.10324356042E+04  0.45297236967E+03 0.  0.
      99925    2    3    3    0    0  0.36639585323E+02  0.56078308900E+02  0.78740281236E+03  0.83284855857E+03  0.26295683421E+03 0.  0.
         25    1    3    3    0    0 -0.36639585323E+02 -0.56078308900E+02  0.14035756034E+03  0.19958704564E+03  0.12509000000E+03 0.  0.
         25    1    4    4    0    0 -0.22133484939E+02  0.22713559021E+02  0.38742618352E+03  0.40835322051E+03  0.12509000000E+03 0.  0.
         25    1    4    4    0    0  0.58773070262E+02  0.33364749879E+02  0.39997662884E+03  0.42449533807E+03  0.12509000000E+03 0.  0.
<mgrwt>
<rscale>  2 0.45297237E+03</rscale>
<asrwt>0</asrwt>
<pdfrwt beam="1">  1       21 0.14413205E+00 0.45297237E+03</pdfrwt>
<pdfrwt beam="2">  1       21 0.76967088E-02 0.45297237E+03</pdfrwt>
<totfact> 0.38534933E+04</totfact>
</mgrwt>
</event>
<event>
 7    0  0.4779893E-002  0.4726468E+03  0.7546771E-02  0.1021176E+00
         21   -1    0    0  502  501  0.00000000000E+00  0.00000000000E+00  0.23317344314E+04  0.23317344314E+04  0.00000000000E+00 0. -1.
         21   -1    0    0  501  502 -0.00000000000E+00 -0.00000000000E+00 -0.23951592945E+02  0.23951592945E+02  0.00000000000E+00 0. -1.
      99926    2    1    2    0    0  0.00000000000E+00 -0.35527136788E-14  0.23077828385E+04  0.23556860244E+04  0.47264681934E+03 0.  0.
      99925    2    3    3    0    0  0.65098382745E+02 -0.29523667410E+02  0.89429892437E+03  0.93487860254E+03  0.26290300300E+03 0.  0.
         25    1    4    4    0    0  0.27558673449E+02 -0.53447935512E+02  0.41949029546E+03  0.44185492911E+03  0.12509000000E+03 0.  0.
         25    1    4    4    0    0  0.37539709296E+02  0.23924268102E+02  0.47480862890E+03  0.49302367343E+03  0.12509000000E+03 0.  0.
         25    1    3    3    0    0 -0.65098382745E+02  0.29523667410E+02  0.14134839141E+04  0.14208074218E+04  0.12509000000E+03 0.  0.
<mgrwt>
<rscale>  2 0.47264682E+03</rscale>
<asrwt>0</asrwt>
<pdfrwt beam="1">  1       21 0.34290197E+00 0.47264682E+03</pdfrwt>
<pdfrwt beam="2">  1       21 0.35222947E-02 0.47264682E+03</pdfrwt>
<totfact> 0.76232683E+03</totfact>
</mgrwt>
</event>
<event>
 7    0  0.4779893E-002  0.4554775E+03  0.7546771E-02  0.1026101E+00
         21   -1    0    0  502  501  0.00000000000E+00  0.00000000000E+00  0.14681700793E+03  0.14681700793E+03  0.00000000000E+00 0. -1.
         21   -1    0    0  501  502 -0.00000000000E+00 -0.00000000000E+00 -0.35326252142E+03  0.35326252142E+03  0.00000000000E+00 0. -1.
      99926    2    1    2    0    0 -0.13322676296E-14  0.71054273576E-14 -0.20644551348E+03  0.50007952935E+03  0.45547753582E+03 0.  0.
      99925    2    3    3    0    0  0.38293762505E+01  0.62636156735E+02 -0.25743802887E+02  0.27152194675E+03  0.26291343048E+03 0.  0.
         25    1    4    4    0    0  0.35547356488E+02  0.13553351016E+02 -0.26726669811E+02  0.13345085558E+03  0.12509000000E+03 0.  0.
         25    1    4    4    0    0 -0.31717980238E+02  0.49082805718E+02  0.98286692396E+00  0.13807109116E+03  0.12509000000E+03 0.  0.
         25    1    3    3    0    0 -0.38293762505E+01 -0.62636156735E+02 -0.18070171060E+03  0.22855758260E+03  0.12509000000E+03 0.  0.
<mgrwt>
<rscale>  2 0.45547754E+03</rscale>
<asrwt>0</asrwt>
<pdfrwt beam="1">  1       21 0.21590737E-01 0.45547754E+03</pdfrwt>
<pdfrwt beam="2">  1       21 0.51950370E-01 0.45547754E+03</pdfrwt>
<totfact> 0.65018259E+04</totfact>
</mgrwt>
</event>
<event>
 7    0  0.4779893E-002  0.4542994E+03  0.7546771E-02  0.1026448E+00
         21   -1    0    0  502  501  0.00000000000E+00  0.00000000000E+00  0.12364736618E+03  0.12364736618E+03  0.00000000000E+00 0.  1.
         21   -1    0    0  501  502 -0.00000000000E+00 -0.00000000000E+00 -0.41729136045E+03  0.41729136045E+03  0.00000000000E+00 0.  1.
      99926    2    1    2    0    0  0.00000000000E+00  0.00000000000E+00 -0.29364399427E+03  0.54093872663E+03  0.45429936231E+03 0.  0.
      99925    2    3    3    0    0 -0.64571665703E+02 -0.91016783402E+02 -0.20232289488E+03  0.35004449894E+03  0.26295064664E+03 0.  0.
         25    1    3    3    0    0  0.64571665703E+02  0.91016783402E+02 -0.91321099385E+02  0.19089422769E+03  0.12509000000E+03 0.  0.
         25    1    4    4    0    0 -0.42876841893E+02 -0.48514176545E+02 -0.55629592668E+02  0.15144044564E+03  0.12509000000E+03 0.  0.
         25    1    4    4    0    0 -0.21694823811E+02 -0.42502606856E+02 -0.14669330222E+03  0.19860405329E+03  0.12509000000E+03 0.  0.
<mgrwt>
<rscale>  2 0.45429936E+03</rscale>
<asrwt>0</asrwt>
<pdfrwt beam="1">  1       21 0.18183436E-01 0.45429936E+03</pdfrwt>
<pdfrwt beam="2">  1       21 0.61366376E-01 0.45429936E+03</pdfrwt>
<totfact> 0.62816863E+04</totfact>
</mgrwt>
</event>
<event>
 7    0  0.4779893E-002  0.4318917E+03  0.7546771E-02  0.1033264E+00
         21   -1    0    0  502  501  0.00000000000E+00  0.00000000000E+00  0.23862404796E+03  0.23862404796E+03  0.00000000000E+00 0. -1.
         21   -1    0    0  501  502 -0.00000000000E+00 -0.00000000000E+00 -0.19542289097E+03  0.19542289097E+03  0.00000000000E+00 0. -1.
      99926    2    1    2    0    0 -0.22204460493E-14  0.00000000000E+00  0.43201156994E+02  0.43404693893E+03  0.43189165913E+03 0.  0.
      99925    2    3    3    0    0  0.26277813286E+01 -0.43662592612E+02  0.10665310653E+03  0.28712183819E+03  0.26296527832E+03 0.  0.
         25    1    3    3    0    0 -0.26277813286E+01  0.43662592612E+02 -0.63451949537E+02  0.14692510074E+03  0.12509000000E+03 0.  0.
         25    1    4    4    0    0  0.27530021955E+02 -0.22866862225E+01  0.26219955628E+02  0.13075979969E+03  0.12509000000E+03 0.  0.
         25    1    4    4    0    0 -0.24902240626E+02 -0.41375906390E+02  0.80433150903E+02  0.15636203849E+03  0.12509000000E+03 0.  0.
<mgrwt>
<rscale>  2 0.43189166E+03</rscale>
<asrwt>0</asrwt>
<pdfrwt beam="1">  1       21 0.35091772E-01 0.43189166E+03</pdfrwt>
<pdfrwt beam="2">  1       21 0.28738660E-01 0.43189166E+03</pdfrwt>
<totfact> 0.84676580E+04</totfact>
</mgrwt>
</event>
<event>
 7    0  0.4779893E-002  0.4488774E+03  0.7546771E-02  0.1028057E+00
         21   -1    0    0  502  501  0.00000000000E+00  0.00000000000E+00  0.69311961270E+03  0.69311961270E+03  0.00000000000E+00 0.  1.
         21   -1    0    0  501  502 -0.00000000000E+00 -0.00000000000E+00 -0.72675392141E+02  0.72675392141E+02  0.00000000000E+00 0.  1.
      99926    2    1    2    0    0 -0.71054273576E-14  0.00000000000E+00  0.62044422056E+03  0.76579500484E+03  0.44887744275E+03 0.  0.
      99925    2    3    3    0    0  0.55112510977E+02  0.91920783297E+02  0.40594268496E+03  0.49534124513E+03  0.26284342561E+03 0.  0.
         25    1    4    4    0    0  0.58112515986E+02  0.71561387418E+02  0.19642682359E+03  0.25045778448E+03  0.12509000000E+03 0.  0.
         25    1    4    4    0    0 -0.30000050097E+01  0.20359395879E+02  0.20951586137E+03  0.24488346064E+03  0.12509000000E+03 0.  0.
         25    1    3    3    0    0 -0.55112510977E+02 -0.91920783297E+02  0.21450153560E+03  0.27045375971E+03  0.12509000000E+03 0.  0.
<mgrwt>
<rscale>  2 0.44887744E+03</rscale>
<asrwt>0</asrwt>
<pdfrwt beam="1">  1       21 0.10192935E+00 0.44887744E+03</pdfrwt>
<pdfrwt beam="2">  1       21 0.10687558E-01 0.44887744E+03</pdfrwt>
<totfact> 0.51914303E+04</totfact>
</mgrwt>
</event>
<event>
 7    0  0.4779893E-002  0.4567994E+03  0.7546771E-02  0.1025714E+00
         21   -1    0    0  502  501  0.00000000000E+00  0.00000000000E+00  0.93505684664E+03  0.93505684664E+03  0.00000000000E+00 0. -1.
         21   -1    0    0  501  502 -0.00000000000E+00 -0.00000000000E+00 -0.55789579627E+02  0.55789579627E+02  0.00000000000E+00 0. -1.
      99926    2    1    2    0    0  0.00000000000E+00  0.00000000000E+00  0.87926726702E+03  0.99084642627E+03  0.45679942382E+03 0.  0.
      99925    2    3    3    0    0  0.41784967104E+02 -0.30470781243E+02  0.32952789615E+03  0.42468802443E+03  0.26286276224E+03 0.  0.
         25    1    4    4    0    0  0.42094132876E+02 -0.34281592914E+02  0.21756050084E+03  0.25676297097E+03  0.12509000000E+03 0.  0.
         25    1    4    4    0    0 -0.30916577135E+00  0.38108116710E+01  0.11196739530E+03  0.16792505346E+03  0.12509000000E+03 0.  0.
         25    1    3    3    0    0 -0.41784967104E+02  0.30470781243E+02  0.54973937087E+03  0.56615840184E+03  0.12509000000E+03 0.  0.
<mgrwt>
<rscale>  2 0.45679942E+03</rscale>
<asrwt>0</asrwt>
<pdfrwt beam="1">  1       21 0.13750835E+00 0.45679942E+03</pdfrwt>
<pdfrwt beam="2">  1       21 0.82043505E-02 0.45679942E+03</pdfrwt>
<totfact> 0.38974014E+04</totfact>
</mgrwt>
</event>
<event>
 7    0  0.4779893E-002  0.4560382E+03  0.7546771E-02  0.1025937E+00
         21   -1    0    0  502  501  0.00000000000E+00  0.00000000000E+00  0.83836912580E+02  0.83836912580E+02  0.00000000000E+00 0.  1.
         21   -1    0    0  501  502 -0.00000000000E+00 -0.00000000000E+00 -0.62016486728E+03  0.62016486728E+03  0.00000000000E+00 0.  1.
      99926    2    1    2    0    0  0.00000000000E+00 -0.26645352591E-14 -0.53632795470E+03  0.70400177986E+03  0.45603819035E+03 0.  0.
      99925    2    3    3    0    0 -0.35360779353E+02  0.77824902319E+01 -0.17004005909E+03  0.31525342624E+03  0.26298317283E+03 0.  0.
         25    1    4    4    0    0 -0.27955346852E+02 -0.33587519349E+02 -0.98855989623E+02  0.16531677972E+03  0.12509000000E+03 0.  0.
         25    1    4    4    0    0 -0.74054325014E+01  0.41370009581E+02 -0.71184069464E+02  0.14993664652E+03  0.12509000000E+03 0.  0.
         25    1    3    3    0    0  0.35360779353E+02 -0.77824902319E+01 -0.36628789562E+03  0.38874835362E+03  0.12509000000E+03 0.  0.
<mgrwt>
<rscale>  2 0.45603819E+03</rscale>
<asrwt>0</asrwt>
<pdfrwt beam="1">  1       21 0.12328957E-01 0.45603819E+03</pdfrwt>
<pdfrwt beam="2">  1       21 0.91200718E-01 0.45603819E+03</pdfrwt>
<totfact> 0.52257989E+04</totfact>
</mgrwt>
</event>
<event>
 7    0  0.4779893E-002  0.4481430E+03  0.7546771E-02  0.1028277E+00
         21   -1    0    0  502  501  0.00000000000E+00  0.00000000000E+00  0.73657205424E+03  0.73657205424E+03  0.00000000000E+00 0. -1.
         21   -1    0    0  501  502 -0.00000000000E+00 -0.00000000000E+00 -0.68164449480E+02  0.68164449480E+02  0.00000000000E+00 0. -1.
      99926    2    1    2    0    0  0.00000000000E+00  0.17763568394E-14  0.66840760476E+03  0.80473650372E+03  0.44814296192E+03 0.  0.
      99925    2    3    3    0    0 -0.10114245821E+03  0.51379957702E+01  0.48290283563E+03  0.55914390749E+03  0.26304099446E+03 0.  0.
         25    1    3    3    0    0  0.10114245821E+03 -0.51379957702E+01  0.18550476913E+03  0.24559259623E+03  0.12509000000E+03 0.  0.
         25    1    4    4    0    0 -0.22155198946E+02 -0.94262655102E+01  0.27996989115E+03  0.30758796363E+03  0.12509000000E+03 0.  0.
         25    1    4    4    0    0 -0.78987259267E+02  0.14564261280E+02  0.20293294448E+03  0.25155594386E+03  0.12509000000E+03 0.  0.
<mgrwt>
<rscale>  2 0.44814296E+03</rscale>
<asrwt>0</asrwt>
<pdfrwt beam="1">  1       21 0.10831942E+00 0.44814296E+03</pdfrwt>
<pdfrwt beam="2">  1       21 0.10024184E-01 0.44814296E+03</pdfrwt>
<totfact> 0.50182956E+04</totfact>
</mgrwt>
</event>
<event>
 7    0  0.4779893E-002  0.4566808E+03  0.7546771E-02  0.1025748E+00
         21   -1    0    0  502  501  0.00000000000E+00  0.00000000000E+00  0.45802148415E+02  0.45802148415E+02  0.00000000000E+00 0.  1.
         21   -1    0    0  501  502 -0.00000000000E+00 -0.00000000000E+00 -0.11383599949E+04  0.11383599949E+04  0.00000000000E+00 0.  1.
      99926    2    1    2    0    0 -0.88817841970E-15  0.00000000000E+00 -0.10925578465E+04  0.11841621433E+04  0.45668077882E+03 0.  0.
      99925    2    3    3    0    0  0.34317095212E+01  0.69000844038E+02 -0.45002307824E+03  0.52592865160E+03  0.26326276326E+03 0.  0.
         25    1    4    4    0    0 -0.26283760476E+02  0.55759027884E+02 -0.27517529933E+03  0.30849450354E+03  0.12509000000E+03 0.  0.
         25    1    4    4    0    0  0.29715469998E+02  0.13241816153E+02 -0.17484777891E+03  0.21743414806E+03  0.12509000000E+03 0.  0.
         25    1    3    3    0    0 -0.34317095212E+01 -0.69000844038E+02 -0.64253476825E+03  0.65823349171E+03  0.12509000000E+03 0.  0.
<mgrwt>
<rscale>  2 0.45668078E+03</rscale>
<asrwt>0</asrwt>
<pdfrwt beam="1">  1       21 0.67356118E-02 0.45668078E+03</pdfrwt>
<pdfrwt beam="2">  1       21 0.16740584E+00 0.45668078E+03</pdfrwt>
<totfact> 0.32237769E+04</totfact>
</mgrwt>
</event>
<event>
 7    0  0.4779893E-002  0.4489797E+03  0.7546771E-02  0.1028027E+00
         21   -1    0    0  502  501  0.00000000000E+00  0.00000000000E+00  0.35721783214E+03  0.35721783214E+03  0.00000000000E+00 0. -1.
         21   -1    0    0  501  502 -0.00000000000E+00 -0.00000000000E+00 -0.14107831038E+03  0.14107831038E+03  0.00000000000E+00 0. -1.
      99926    2    1    2    0    0  0.14210854715E-13 -0.71054273576E-14  0.21613952176E+03  0.49829614252E+03  0.44897967970E+03 0.  0.
      99925    2    3    3    0    0  0.96808483476E+02 -0.45516533861E+02  0.14814536876E+03  0.32021090936E+03  0.26295311152E+03 0.  0.
         25    1    4    4    0    0  0.13982736865E+02 -0.41620679586E+02  0.54651239081E+02  0.14339478349E+03  0.12509000000E+03 0.  0.
         25    1    4    4    0    0  0.82825746610E+02 -0.38958542753E+01  0.93494129679E+02  0.17681612587E+03  0.12509000000E+03 0.  0.
         25    1    3    3    0    0 -0.96808483476E+02  0.45516533861E+02  0.67994152996E+02  0.17808523316E+03  0.12509000000E+03 0.  0.
<mgrwt>
<rscale>  2 0.44897968E+03</rscale>
<asrwt>0</asrwt>
<pdfrwt beam="1">  1       21 0.52532034E-01 0.44897968E+03</pdfrwt>
<pdfrwt beam="2">  1       21 0.20746810E-01 0.44897968E+03</pdfrwt>
<totfact> 0.68611168E+04</totfact>
</mgrwt>
</event>
<event>
 7    0  0.4779893E-002  0.4572995E+03  0.7546771E-02  0.1025567E+00
         21   -1    0    0  502  501  0.00000000000E+00  0.00000000000E+00  0.37871198220E+03  0.37871198220E+03  0.00000000000E+00 0. -1.
         21   -1    0    0  501  502 -0.00000000000E+00 -0.00000000000E+00 -0.13804872869E+03  0.13804872869E+03  0.00000000000E+00 0. -1.
      99926    2    1    2    0    0  0.00000000000E+00  0.14210854715E-13  0.24066325351E+03  0.51676071089E+03  0.45729949785E+03 0.  0.
      99925    2    3    3    0    0  0.63041699028E+02  0.94611987977E+02  0.17273090062E+03  0.33458498047E+03  0.26303129289E+03 0.  0.
         25    1    4    4    0    0  0.47114728632E+02  0.12104569034E+02  0.63579198253E+02  0.14851309975E+03  0.12509000000E+03 0.  0.
         25    1    4    4    0    0  0.15926970395E+02  0.82507418943E+02  0.10915170237E+03  0.18607188072E+03  0.12509000000E+03 0.  0.
         25    1    3    3    0    0 -0.63041699028E+02 -0.94611987977E+02  0.67932352896E+02  0.18217573042E+03  0.12509000000E+03 0.  0.
<mgrwt>
<rscale>  2 0.45729950E+03</rscale>
<asrwt>0</asrwt>
<pdfrwt beam="1">  1       21 0.55692938E-01 0.45729950E+03</pdfrwt>
<pdfrwt beam="2">  1       21 0.20301284E-01 0.45729950E+03</pdfrwt>
<totfact> 0.62951988E+04</totfact>
</mgrwt>
</event>
<event>
 7    0  0.4779893E-002  0.4524051E+03  0.7546771E-02  0.1027007E+00
         21   -1    0    0  502  501  0.00000000000E+00  0.00000000000E+00  0.38100760876E+03  0.38100760876E+03  0.00000000000E+00 0.  1.
         21   -1    0    0  501  502 -0.00000000000E+00 -0.00000000000E+00 -0.13429544125E+03  0.13429544125E+03  0.00000000000E+00 0.  1.
      99926    2    1    2    0    0  0.00000000000E+00  0.00000000000E+00  0.24671216752E+03  0.51530305001E+03  0.45240506159E+03 0.  0.
      99925    2    3    3    0    0  0.98576316776E+02  0.34038851115E+02  0.11322283548E+03  0.30472564505E+03  0.26298740400E+03 0.  0.
         25    1    3    3    0    0 -0.98576316776E+02 -0.34038851115E+02  0.13348933203E+03  0.21057740496E+03  0.12509000000E+03 0.  0.
         25    1    4    4    0    0  0.13698494512E+02  0.38321386822E+02  0.47921634827E+02  0.14000060223E+03  0.12509000000E+03 0.  0.
         25    1    4    4    0    0  0.84877822265E+02 -0.42825357072E+01  0.65301200657E+02  0.16472504282E+03  0.12509000000E+03 0.  0.
<mgrwt>
<rscale>  2 0.45240506E+03</rscale>
<asrwt>0</asrwt>
<pdfrwt beam="1">  1       21 0.56030530E-01 0.45240506E+03</pdfrwt>
<pdfrwt beam="2">  1       21 0.19749330E-01 0.45240506E+03</pdfrwt>
<totfact> 0.65547660E+04</totfact>
</mgrwt>
</event>
<event>
 7    0  0.4779893E-002  0.4533625E+03  0.7546771E-02  0.1026724E+00
         21   -1    0    0  502  501  0.00000000000E+00  0.00000000000E+00  0.48357895697E+03  0.48357895697E+03  0.00000000000E+00 0. -1.
         21   -1    0    0  501  502 -0.00000000000E+00 -0.00000000000E+00 -0.10625852647E+03  0.10625852647E+03  0.00000000000E+00 0. -1.
      99926    2    1    2    0    0 -0.71054273576E-14  0.00000000000E+00  0.37732043049E+03  0.58983748344E+03  0.45336249250E+03 0.  0.
      99925    2    3    3    0    0  0.50292353319E+02 -0.96513154538E+02  0.27086511979E+03  0.39279852516E+03  0.26282819189E+03 0.  0.
         25    1    3    3    0    0 -0.50292353319E+02  0.96513154538E+02  0.10645531071E+03  0.19703895828E+03  0.12509000000E+03 0.  0.
         25    1    4    4    0    0  0.30511661033E+02 -0.81286139341E+02  0.18221400764E+03  0.23746126124E+03  0.12509000000E+03 0.  0.
         25    1    4    4    0    0  0.19780692287E+02 -0.15227015196E+02  0.88651112144E+02  0.15533726392E+03  0.12509000000E+03 0.  0.
<mgrwt>
<rscale>  2 0.45336249E+03</rscale>
<asrwt>0</asrwt>
<pdfrwt beam="1">  1       21 0.71114551E-01 0.45336249E+03</pdfrwt>
<pdfrwt beam="2">  1       21 0.15626254E-01 0.45336249E+03</pdfrwt>
<totfact> 0.60082013E+04</totfact>
</mgrwt>
</event>
<event>
 7    0  0.4779893E-002  0.4538598E+03  0.7546771E-02  0.1026577E+00
         21   -1    0    0  502  501  0.00000000000E+00  0.00000000000E+00  0.83276775855E+03  0.83276775855E+03  0.00000000000E+00 0.  1.
         21   -1    0    0  501  502 -0.00000000000E+00 -0.00000000000E+00 -0.61838571579E+02  0.61838571579E+02  0.00000000000E+00 0.  1.
      99926    2    1    2    0    0  0.00000000000E+00  0.35527136788E-14  0.77092918697E+03  0.89460633013E+03  0.45385975211E+03 0.  0.
      99925    2    3    3    0    0 -0.27606419836E+02  0.29690099415E+02  0.69156363438E+03  0.74101591553E+03  0.26306027873E+03 0.  0.
         25    1    4    4    0    0 -0.17626522729E+02  0.34850302999E+02  0.25438662382E+03  0.28615607700E+03  0.12509000000E+03 0.  0.
         25    1    4    4    0    0 -0.99798971069E+01 -0.51602035839E+01  0.43717701055E+03  0.45485983853E+03  0.12509000000E+03 0.  0.
         25    1    3    3    0    0  0.27606419836E+02 -0.29690099415E+02  0.79365552590E+02  0.15359041460E+03  0.12509000000E+03 0.  0.
<mgrwt>
<rscale>  2 0.45385975E+03</rscale>
<asrwt>0</asrwt>
<pdfrwt beam="1">  1       21 0.12246584E+00 0.45385975E+03</pdfrwt>
<pdfrwt beam="2">  1       21 0.90939081E-02 0.45385975E+03</pdfrwt>
<totfact> 0.43857975E+04</totfact>
</mgrwt>
</event>
<event>
 7    0  0.4779893E-002  0.4532274E+03  0.7546771E-02  0.1026764E+00
         21   -1    0    0  502  501  0.00000000000E+00  0.00000000000E+00  0.28090852727E+04  0.28090852727E+04  0.00000000000E+00 0. -1.
         21   -1    0    0  501  502 -0.00000000000E+00 -0.00000000000E+00 -0.18281313349E+02  0.18281313349E+02  0.00000000000E+00 0. -1.
      99926    2    1    2    0    0  0.00000000000E+00  0.00000000000E+00  0.27908039593E+04  0.28273665860E+04  0.45322739588E+03 0.  0.
      99925    2    3    3    0    0 -0.14723859744E+02 -0.40151382894E+02  0.11180161764E+04  0.11493631891E+04  0.26314757069E+03 0.  0.
         25    1    4    4    0    0 -0.43187884495E+01 -0.14811203375E+02  0.72893366645E+03  0.73974983735E+03  0.12509000000E+03 0.  0.
         25    1    3    3    0    0  0.14723859744E+02  0.40151382894E+02  0.16727877829E+04  0.16780033970E+04  0.12509000000E+03 0.  0.
         25    1    4    4    0    0 -0.10405071295E+02 -0.25340179519E+02  0.38908250999E+03  0.40961335170E+03  0.12509000000E+03 0.  0.
<mgrwt>
<rscale>  2 0.45322740E+03</rscale>
<asrwt>0</asrwt>
<pdfrwt beam="1">  1       21 0.41310048E+00 0.45322740E+03</pdfrwt>
<pdfrwt beam="2">  1       21 0.26884304E-02 0.45322740E+03</pdfrwt>
<totfact> 0.43891635E+03</totfact>
</mgrwt>
</event>
<event>
 7    0  0.4779893E-002  0.4668096E+03  0.7546771E-02  0.1022825E+00
         21   -1    0    0  502  501  0.00000000000E+00  0.00000000000E+00  0.91932118851E+03  0.91932118851E+03  0.00000000000E+00 0. -1.
         21   -1    0    0  501  502 -0.00000000000E+00 -0.00000000000E+00 -0.59258727781E+02  0.59258727781E+02  0.00000000000E+00 0. -1.
      99926    2    1    2    0    0  0.00000000000E+00 -0.35527136788E-14  0.86006246073E+03  0.97857991629E+03  0.46680961452E+03 0.  0.
      99925    2    3    3    0    0  0.71418150446E+02 -0.70814904559E+01  0.32382452116E+03  0.42328779888E+03  0.26298201547E+03 0.  0.
         25    1    3    3    0    0 -0.71418150446E+02  0.70814904559E+01  0.53623793958E+03  0.55529211741E+03  0.12509000000E+03 0.  0.
         25    1    4    4    0    0  0.27998679984E+02 -0.33454925794E+02  0.20121265859E+03  0.24090911195E+03  0.12509000000E+03 0.  0.
         25    1    4    4    0    0  0.43419470462E+02  0.26373435338E+02  0.12261186256E+03  0.18237868693E+03  0.12509000000E+03 0.  0.
<mgrwt>
<rscale>  2 0.46680961E+03</rscale>
<asrwt>0</asrwt>
<pdfrwt beam="1">  1       21 0.13519428E+00 0.46680961E+03</pdfrwt>
<pdfrwt beam="2">  1       21 0.87145193E-02 0.46680961E+03</pdfrwt>
<totfact> 0.36515144E+04</totfact>
</mgrwt>
</event>
<event>
 7    0  0.4779893E-002  0.4554993E+03  0.7546771E-02  0.1026095E+00
         21   -1    0    0  502  501  0.00000000000E+00  0.00000000000E+00  0.14969200450E+03  0.14969200450E+03  0.00000000000E+00 0.  1.
         21   -1    0    0  501  502 -0.00000000000E+00 -0.00000000000E+00 -0.34651079963E+03  0.34651079963E+03  0.00000000000E+00 0.  1.
      99926    2    1    2    0    0  0.00000000000E+00  0.00000000000E+00 -0.19681879513E+03  0.49620280412E+03  0.45549926971E+03 0.  0.
      99925    2    3    3    0    0  0.52070983572E+02 -0.69780486800E+02 -0.20332287309E+03  0.34365604146E+03  0.26301821314E+03 0.  0.
         25    1    3    3    0    0 -0.52070983572E+02  0.69780486800E+02  0.65040779680E+01  0.15254676266E+03  0.12509000000E+03 0.  0.
         25    1    4    4    0    0  0.52102511283E+02 -0.65410687905E+02 -0.93596435625E+02  0.17720335955E+03  0.12509000000E+03 0.  0.
         25    1    4    4    0    0 -0.31527710535E-01 -0.43697988953E+01 -0.10972643747E+03  0.16645268191E+03  0.12509000000E+03 0.  0.
<mgrwt>
<rscale>  2 0.45549927E+03</rscale>
<asrwt>0</asrwt>
<pdfrwt beam="1">  1       21 0.22013530E-01 0.45549927E+03</pdfrwt>
<pdfrwt beam="2">  1       21 0.50957471E-01 0.45549927E+03</pdfrwt>
<totfact> 0.65279139E+04</totfact>
</mgrwt>
</event>
<event>
 7    0  0.4779893E-002  0.4660101E+03  0.7546771E-02  0.1023052E+00
         21   -1    0    0  502  501  0.00000000000E+00  0.00000000000E+00  0.92608718541E+02  0.92608718541E+02  0.00000000000E+00 0.  1.
         21   -1    0    0  501  502 -0.00000000000E+00 -0.00000000000E+00 -0.58624453683E+03  0.58624453683E+03  0.00000000000E+00 0.  1.
      99926    2    1    2    0    0  0.35527136788E-14  0.00000000000E+00 -0.49363581829E+03  0.67885325537E+03  0.46601010851E+03 0.  0.
      99925    2    3    3    0    0 -0.15489206922E+02 -0.11775535306E+03 -0.35378776088E+03  0.45679194410E+03  0.26341386019E+03 0.  0.
         25    1    4    4    0    0 -0.71104297621E+01 -0.92280659556E+02 -0.14972566572E+03  0.21594342179E+03  0.12509000000E+03 0.  0.
         25    1    3    3    0    0  0.15489206922E+02  0.11775535306E+03 -0.13984805741E+03  0.22206131127E+03  0.12509000000E+03 0.  0.
         25    1    4    4    0    0 -0.83787771600E+01 -0.25474693500E+02 -0.20406209516E+03  0.24084852230E+03  0.12509000000E+03 0.  0.
<mgrwt>
<rscale>  2 0.46601011E+03</rscale>
<asrwt>0</asrwt>
<pdfrwt beam="1">  1       21 0.13618929E-01 0.46601011E+03</pdfrwt>
<pdfrwt beam="2">  1       21 0.86212431E-01 0.46601011E+03</pdfrwt>
<totfact> 0.49618876E+04</totfact>
</mgrwt>
</event>
<event>
 7    0  0.4779893E-002  0.4444450E+03  0.7546771E-02  0.1029392E+00
         21   -1    0    0  502  501  0.00000000000E+00  0.00000000000E+00  0.20129191865E+03  0.20129191865E+03  0.00000000000E+00 0.  1.
         21   -1    0    0  501  502 -0.00000000000E+00 -0.00000000000E+00 -0.24532945533E+03  0.24532945533E+03  0.00000000000E+00 0.  1.
      99926    2    1    2    0    0  0.14210854715E-13 -0.14210854715E-13 -0.44037536685E+02  0.44662137398E+03  0.44444498766E+03 0.  0.
      99925    2    3    3    0    0  0.67201452835E+02 -0.67849167884E+02 -0.66708082232E+02  0.28762135328E+03  0.26297629129E+03 0.  0.
         25    1    4    4    0    0  0.20944501233E+02  0.65815841005E+01 -0.27736682003E+02  0.12999546534E+03  0.12509000000E+03 0.  0.
         25    1    3    3    0    0 -0.67201452835E+02  0.67849167884E+02  0.22670545546E+02  0.15900002070E+03  0.12509000000E+03 0.  0.
         25    1    4    4    0    0  0.46256951603E+02 -0.74430751985E+02 -0.38971400228E+02  0.15762588794E+03  0.12509000000E+03 0.  0.
<mgrwt>
<rscale>  2 0.44444499E+03</rscale>
<asrwt>0</asrwt>
<pdfrwt beam="1">  1       21 0.29601753E-01 0.44444499E+03</pdfrwt>
<pdfrwt beam="2">  1       21 0.36077861E-01 0.44444499E+03</pdfrwt>
<totfact> 0.75309033E+04</totfact>
</mgrwt>
</event>
<event>
 7    0  0.4779893E-002  0.4503316E+03  0.7546771E-02  0.1027623E+00
         21   -1    0    0  502  501  0.00000000000E+00  0.00000000000E+00  0.11937848740E+04  0.11937848740E+04  0.00000000000E+00 0. -1.
         21   -1    0    0  501  502 -0.00000000000E+00 -0.00000000000E+00 -0.42469656569E+02  0.42469656569E+02  0.00000000000E+00 0. -1.
      99926    2    1    2    0    0 -0.71054273576E-14  0.00000000000E+00  0.11513152174E+04  0.12362545305E+04  0.45033158279E+03 0.  0.
      99925    2    3    3    0    0 -0.46409688959E+02  0.47978586887E+02  0.96308604074E+03  0.10005989873E+04  0.26307376803E+03 0.  0.
         25    1    4    4    0    0  0.16769853967E+02  0.33080880642E+02  0.45904532312E+03  0.47722708373E+03  0.12509000000E+03 0.  0.
         25    1    4    4    0    0 -0.63179542926E+02  0.14897706244E+02  0.50404071762E+03  0.52337190353E+03  0.12509000000E+03 0.  0.
         25    1    3    3    0    0  0.46409688959E+02 -0.47978586887E+02  0.18822917667E+03  0.23565554328E+03  0.12509000000E+03 0.  0.
<mgrwt>
<rscale>  2 0.45033158E+03</rscale>
<asrwt>0</asrwt>
<pdfrwt beam="1">  1       21 0.17555658E+00 0.45033158E+03</pdfrwt>
<pdfrwt beam="2">  1       21 0.62455385E-02 0.45033158E+03</pdfrwt>
<totfact> 0.32177330E+04</totfact>
</mgrwt>
</event>
<event>
 6    0  0.4779893E-002  0.4612468E+03  0.7546771E-02  0.1024420E+00
         21   -1    0    0  502  501  0.00000000000E+00  0.00000000000E+00  0.10693437328E+04  0.10693437328E+04  0.00000000000E+00 0. -1.
         21   -1    0    0  501  502 -0.00000000000E+00 -0.00000000000E+00 -0.49738123175E+02  0.49738123175E+02  0.00000000000E+00 0. -1.
      99926    2    1    2    0    0  0.00000000000E+00  0.14210854715E-13  0.10196056096E+04  0.11190818560E+04  0.46124678990E+03 0.  0.
         25    1    3    3    0    0 -0.34560648389E+02 -0.84228816425E+01  0.27969534792E+03  0.30845158307E+03  0.12509000000E+03 0.  0.
         25    1    3    3    0    0  0.81609720739E+02 -0.76150117083E+02  0.45281315819E+03  0.48285220428E+03  0.12509000000E+03 0.  0.
         25    1    3    3    0    0 -0.47049072350E+02  0.84572998725E+02  0.28709710353E+03  0.32777806864E+03  0.12509000000E+03 0.  0.
<mgrwt>
<rscale>  2 0.46124679E+03</rscale>
<asrwt>0</asrwt>
<pdfrwt beam="1">  1       21 0.15725642E+00 0.46124679E+03</pdfrwt>
<pdfrwt beam="2">  1       21 0.73144306E-02 0.46124679E+03</pdfrwt>
<totfact> 0.33185667E+04</totfact>
</mgrwt>
</event>
<event>
 7    0  0.4779893E-002  0.4586507E+03  0.7546771E-02  0.1025173E+00
         21   -1    0    0  502  501  0.00000000000E+00  0.00000000000E+00  0.43692728915E+03  0.43692728915E+03  0.00000000000E+00 0. -1.
         21   -1    0    0  501  502 -0.00000000000E+00 -0.00000000000E+00 -0.12036354318E+03  0.12036354318E+03  0.00000000000E+00 0. -1.
      99926    2    1    2    0    0  0.00000000000E+00  0.00000000000E+00  0.31656374596E+03  0.55729083233E+03  0.45865070210E+03 0.  0.
      99925    2    3    3    0    0 -0.12482161846E+02 -0.11392178286E+03  0.17301139972E+03  0.33505500897E+03  0.26304930646E+03 0.  0.
         25    1    4    4    0    0 -0.15229116767E+02 -0.24925083790E+02  0.10988170540E+03  0.16904047764E+03  0.12509000000E+03 0.  0.
         25    1    4    4    0    0  0.27469549204E+01 -0.88996699068E+02  0.63129694315E+02  0.16601453132E+03  0.12509000000E+03 0.  0.
         25    1    3    3    0    0  0.12482161846E+02  0.11392178286E+03  0.14355234625E+03  0.22223582336E+03  0.12509000000E+03 0.  0.
<mgrwt>
<rscale>  2 0.45865070E+03</rscale>
<asrwt>0</asrwt>
<pdfrwt beam="1">  1       21 0.64254013E-01 0.45865070E+03</pdfrwt>
<pdfrwt beam="2">  1       21 0.17700521E-01 0.45865070E+03</pdfrwt>
<totfact> 0.59646020E+04</totfact>
</mgrwt>
</event>
<event>
 6    0  0.4789610E-002  0.4209434E+03  0.7546771E-02  0.1036760E+00
         21   -1    0    0  502  501  0.00000000000E+00  0.00000000000E+00  0.17606796493E+04  0.17606796493E+04  0.00000000000E+00 0.  1.
         21   -1    0    0  501  502 -0.00000000000E+00 -0.00000000000E+00 -0.25159788915E+02  0.25159788915E+02  0.00000000000E+00 0.  1.
      99926    2    1    2    0    0  0.00000000000E+00  0.00000000000E+00  0.17355198603E+04  0.17858394382E+04  0.42094336114E+03 0.  0.
         25    1    3    3    0    0 -0.25556142054E+02  0.41086593517E+02  0.63111331379E+03  0.64520752282E+03  0.12509000000E+03 0.  0.
         25    1    3    3    0    0  0.48646296522E+02 -0.28537494507E+02  0.77952942841E+03  0.79151404827E+03  0.12509000000E+03 0.  0.
         25    1    3    3    0    0 -0.23090154467E+02 -0.12549099010E+02  0.32487711815E+03  0.34911786709E+03  0.12509000000E+03 0.  0.
<mgrwt>
<rscale>  2 0.42094336E+03</rscale>
<asrwt>0</asrwt>
<pdfrwt beam="1">  1       21 0.25892339E+00 0.42094336E+03</pdfrwt>
<pdfrwt beam="2">  1       21 0.36999702E-02 0.42094336E+03</pdfrwt>
<totfact> 0.23050190E+04</totfact>
</mgrwt>
</event>
<event>
 7    0  0.4779893E-002  0.4533862E+03  0.7546771E-02  0.1026717E+00
         21   -1    0    0  502  501  0.00000000000E+00  0.00000000000E+00  0.42065356235E+02  0.42065356235E+02  0.00000000000E+00 0.  1.
         21   -1    0    0  501  502 -0.00000000000E+00 -0.00000000000E+00 -0.12216648055E+04  0.12216648055E+04  0.00000000000E+00 0.  1.
      99926    2    1    2    0    0  0.71054273576E-14  0.00000000000E+00 -0.11795994493E+04  0.12637301617E+04  0.45338621613E+03 0.  0.
      99925    2    3    3    0    0  0.38832566301E+02  0.97170607031E+02 -0.63487570047E+03  0.69511643900E+03  0.26300116663E+03 0.  0.
         25    1    4    4    0    0  0.34749192202E+02  0.23651193938E+02 -0.23221674817E+03  0.26709363819E+03  0.12509000000E+03 0.  0.
         25    1    3    3    0    0 -0.38832566301E+02 -0.97170607031E+02 -0.54472374881E+03  0.56861372274E+03  0.12509000000E+03 0.  0.
         25    1    4    4    0    0  0.40833740997E+01  0.73519413093E+02 -0.40265895230E+03  0.42802280081E+03  0.12509000000E+03 0.  0.
<mgrwt>
<rscale>  2 0.45338622E+03</rscale>
<asrwt>0</asrwt>
<pdfrwt beam="1">  1       21 0.61860816E-02 0.45338622E+03</pdfrwt>
<pdfrwt beam="2">  1       21 0.17965660E+00 0.45338622E+03</pdfrwt>
<totfact> 0.30568663E+04</totfact>
</mgrwt>
</event>
<event>
 7    0  0.4779893E-002  0.4542800E+03  0.7546771E-02  0.1026453E+00
         21   -1    0    0  502  501  0.00000000000E+00  0.00000000000E+00  0.11561821630E+04  0.11561821630E+04  0.00000000000E+00 0.  1.
         21   -1    0    0  501  502 -0.00000000000E+00 -0.00000000000E+00 -0.44623224993E+02  0.44623224993E+02  0.00000000000E+00 0.  1.
      99926    2    1    2    0    0  0.00000000000E+00  0.00000000000E+00  0.11115589380E+04  0.12008053880E+04  0.45427998764E+03 0.  0.
      99925    2    3    3    0    0 -0.10142049620E+03  0.29459717353E+02  0.80227105380E+03  0.85086182766E+03  0.26300763111E+03 0.  0.
         25    1    4    4    0    0 -0.88965627924E+02  0.34731290229E+02  0.46244847418E+03  0.48849487699E+03  0.12509000000E+03 0.  0.
         25    1    4    4    0    0 -0.12454868276E+02 -0.52715728757E+01  0.33982257961E+03  0.36236695067E+03  0.12509000000E+03 0.  0.
         25    1    3    3    0    0  0.10142049620E+03 -0.29459717353E+02  0.30928788422E+03  0.34994356033E+03  0.12509000000E+03 0.  0.
<mgrwt>
<rscale>  2 0.45427999E+03</rscale>
<asrwt>0</asrwt>
<pdfrwt beam="1">  1       21 0.17002677E+00 0.45427999E+03</pdfrwt>
<pdfrwt beam="2">  1       21 0.65622397E-02 0.45427999E+03</pdfrwt>
<totfact> 0.32311281E+04</totfact>
</mgrwt>
</event>
<event>
 7    0  0.4779893E-002  0.4592936E+03  0.7546771E-02  0.1024986E+00
         21   -1    0    0  502  501  0.00000000000E+00  0.00000000000E+00  0.50578284205E+03  0.50578284205E+03  0.00000000000E+00 0.  1.
         21   -1    0    0  501  502 -0.00000000000E+00 -0.00000000000E+00 -0.10426936211E+03  0.10426936211E+03  0.00000000000E+00 0.  1.
      99926    2    1    2    0    0  0.00000000000E+00  0.00000000000E+00  0.40151347995E+03  0.61005220416E+03  0.45929360677E+03 0.  0.
      99925    2    3    3    0    0  0.40506787171E+02  0.77752279548E+02  0.35480689306E+03  0.45031732963E+03  0.26308087962E+03 0.  0.
         25    1    4    4    0    0 -0.58824229217E+01  0.60383394999E+02  0.14339522444E+03  0.19972595170E+03  0.12509000000E+03 0.  0.
         25    1    4    4    0    0  0.46389210093E+02  0.17368884549E+02  0.21141166862E+03  0.25059137793E+03  0.12509000000E+03 0.  0.
         25    1    3    3    0    0 -0.40506787171E+02 -0.77752279548E+02  0.46706586888E+02  0.15973487453E+03  0.12509000000E+03 0.  0.
<mgrwt>
<rscale>  2 0.45929361E+03</rscale>
<asrwt>0</asrwt>
<pdfrwt beam="1">  1       21 0.74379829E-01 0.45929361E+03</pdfrwt>
<pdfrwt beam="2">  1       21 0.15333730E-01 0.45929361E+03</pdfrwt>
<totfact> 0.56135521E+04</totfact>
</mgrwt>
</event>
<event>
 7    0  0.4779893E-002  0.4409411E+03  0.7546771E-02  0.1030458E+00
         21   -1    0    0  502  501  0.00000000000E+00  0.00000000000E+00  0.25460720412E+03  0.25460720412E+03  0.00000000000E+00 0.  1.
         21   -1    0    0  501  502 -0.00000000000E+00 -0.00000000000E+00 -0.19091078275E+03  0.19091078275E+03  0.00000000000E+00 0.  1.
      99926    2    1    2    0    0  0.00000000000E+00  0.00000000000E+00  0.63696421373E+02  0.44551798686E+03  0.44094108736E+03 0.  0.
      99925    2    3    3    0    0 -0.37267471692E+02  0.86397085653E+02  0.84527839557E+01  0.27952796177E+03  0.26308004675E+03 0.  0.
         25    1    4    4    0    0 -0.59156209465E+02  0.45047864608E+02 -0.23413979166E+01  0.14553953919E+03  0.12509000000E+03 0.  0.
         25    1    3    3    0    0  0.37267471692E+02 -0.86397085653E+02  0.55243637417E+02  0.16599002509E+03  0.12509000000E+03 0.  0.
         25    1    4    4    0    0  0.21888737773E+02  0.41349221045E+02  0.10794181872E+02  0.13398842258E+03  0.12509000000E+03 0.  0.
<mgrwt>
<rscale>  2 0.44094109E+03</rscale>
<asrwt>0</asrwt>
<pdfrwt beam="1">  1       21 0.37442236E-01 0.44094109E+03</pdfrwt>
<pdfrwt beam="2">  1       21 0.28075115E-01 0.44094109E+03</pdfrwt>
<totfact> 0.77590040E+04</totfact>
</mgrwt>
</event>
<event>
 7    0  0.4779893E-002  0.4518261E+03  0.7546771E-02  0.1027179E+00
         21   -1    0    0  502  501  0.00000000000E+00  0.00000000000E+00  0.83519541258E+02  0.83519541258E+02  0.00000000000E+00 0.  1.
         21   -1    0    0  501  502 -0.00000000000E+00 -0.00000000000E+00 -0.61107516260E+03  0.61107516260E+03  0.00000000000E+00 0.  1.
      99926    2    1    2    0    0 -0.71054273576E-14  0.00000000000E+00 -0.52755562134E+03  0.69459470386E+03  0.45182614911E+03 0.  0.
      99925    2    3    3    0    0 -0.39321206663E+02 -0.10004693303E+03 -0.36958789157E+03  0.46621594423E+03  0.26307137996E+03 0.  0.
         25    1    4    4    0    0 -0.21089465061E+01 -0.83778799018E+02 -0.22531688272E+03  0.27099546224E+03  0.12509000000E+03 0.  0.
         25    1    3    3    0    0  0.39321206663E+02  0.10004693303E+03 -0.15796772977E+03  0.22837875963E+03  0.12509000000E+03 0.  0.
         25    1    4    4    0    0 -0.37212260157E+02 -0.16268134008E+02 -0.14427100886E+03  0.19522048199E+03  0.12509000000E+03 0.  0.
<mgrwt>
<rscale>  2 0.45182615E+03</rscale>
<asrwt>0</asrwt>
<pdfrwt beam="1">  1       21 0.12282286E-01 0.45182615E+03</pdfrwt>
<pdfrwt beam="2">  1       21 0.89863992E-01 0.45182615E+03</pdfrwt>
<totfact> 0.54547380E+04</totfact>
</mgrwt>
</event>
<event>
 7    0  0.4779893E-002  0.4522605E+03  0.7546771E-02  0.1027050E+00
         21   -1    0    0  502  501  0.00000000000E+00  0.00000000000E+00  0.18789723737E+03  0.18789723737E+03  0.00000000000E+00 0.  1.
         21   -1    0    0  501  502 -0.00000000000E+00 -0.00000000000E+00 -0.27214280391E+03  0.27214280391E+03  0.00000000000E+00 0.  1.
      99926    2    1    2    0    0  0.14210854715E-13  0.00000000000E+00 -0.84245566541E+02  0.46004004128E+03  0.45226046047E+03 0.  0.
      99925    2    3    3    0    0 -0.64866786829E+02 -0.68328101739E+02  0.57225436486E+01  0.27943495146E+03  0.26301086493E+03 0.  0.
         25    1    4    4    0    0  0.37528531479E+01 -0.38533409805E+02 -0.16565017090E+02  0.13198793683E+03  0.12509000000E+03 0.  0.
         25    1    4    4    0    0 -0.68619639976E+02 -0.29794691934E+02  0.22287560738E+02  0.14744701462E+03  0.12509000000E+03 0.  0.
         25    1    3    3    0    0  0.64866786829E+02  0.68328101739E+02 -0.89968110190E+02  0.18060508983E+03  0.12509000000E+03 0.  0.
<mgrwt>
<rscale>  2 0.45226046E+03</rscale>
<asrwt>0</asrwt>
<pdfrwt beam="1">  1       21 0.27631947E-01 0.45226046E+03</pdfrwt>
<pdfrwt beam="2">  1       21 0.40021001E-01 0.45226046E+03</pdfrwt>
<totfact> 0.69685175E+04</totfact>
</mgrwt>
</event>
<event>
 7    0  0.4779893E-002  0.4561796E+03  0.7546771E-02  0.1025895E+00
         21   -1    0    0  502  501  0.00000000000E+00  0.00000000000E+00  0.43239199639E+03  0.43239199639E+03  0.00000000000E+00 0. -1.
         21   -1    0    0  501  502 -0.00000000000E+00 -0.00000000000E+00 -0.12031898608E+03  0.12031898608E+03  0.00000000000E+00 0. -1.
      99926    2    1    2    0    0  0.00000000000E+00  0.14210854715E-13  0.31207301031E+03  0.55271098247E+03  0.45617964266E+03 0.  0.
      99925    2    3    3    0    0 -0.61894771198E+02  0.79237129894E+02  0.13016051782E+03  0.31012254812E+03  0.26291585916E+03 0.  0.
         25    1    4    4    0    0  0.49580476458E+01  0.57984637063E+02  0.59611476483E+02  0.15029250347E+03  0.12509000000E+03 0.  0.
         25    1    3    3    0    0  0.61894771198E+02 -0.79237129894E+02  0.18191249249E+03  0.24258843435E+03  0.12509000000E+03 0.  0.
         25    1    4    4    0    0 -0.66852818844E+02  0.21252492831E+02  0.70549041335E+02  0.15983004465E+03  0.12509000000E+03 0.  0.
<mgrwt>
<rscale>  2 0.45617964E+03</rscale>
<asrwt>0</asrwt>
<pdfrwt beam="1">  1       21 0.63587058E-01 0.45617964E+03</pdfrwt>
<pdfrwt beam="2">  1       21 0.17693969E-01 0.45617964E+03</pdfrwt>
<totfact> 0.61115358E+04</totfact>
</mgrwt>
</event>
<event>
 7    0  0.4779893E-002  0.4544716E+03  0.7546771E-02  0.1026397E+00
         21   -1    0    0  502  501  0.00000000000E+00  0.00000000000E+00  0.74023985899E+02  0.74023985899E+02  0.00000000000E+00 0. -1.
         21   -1    0    0  501  502 -0.00000000000E+00 -0.00000000000E+00 -0.69755912609E+03  0.69755912609E+03  0.00000000000E+00 0. -1.
      99926    2    1    2    0    0  0.00000000000E+00  0.17763568394E-14 -0.62353514019E+03  0.77158311199E+03  0.45447159169E+03 0.  0.
      99925    2    3    3    0    0 -0.28075126483E+02 -0.14480592257E+02 -0.20897075519E+03  0.33740683708E+03  0.26301463250E+03 0.  0.
         25    1    4    4    0    0  0.18603414994E+02 -0.28723246248E+02 -0.11691952793E+03  0.17461041216E+03  0.12509000000E+03 0.  0.
         25    1    3    3    0    0  0.28075126483E+02  0.14480592257E+02 -0.41456438500E+03  0.43417627491E+03  0.12509000000E+03 0.  0.
         25    1    4    4    0    0 -0.46678541477E+02  0.14242653991E+02 -0.92051227261E+02  0.16279642492E+03  0.12509000000E+03 0.  0.
<mgrwt>
<rscale>  2 0.45447159E+03</rscale>
<asrwt>0</asrwt>
<pdfrwt beam="1">  1       21 0.10885880E-01 0.45447159E+03</pdfrwt>
<pdfrwt beam="2">  1       21 0.10258223E+00 0.45447159E+03</pdfrwt>
<totfact> 0.49374474E+04</totfact>
</mgrwt>
</event>
<event>
 7    0  0.4779893E-002  0.4568008E+03  0.7546771E-02  0.1025713E+00
         21   -1    0    0  502  501  0.00000000000E+00  0.00000000000E+00  0.14352109194E+03  0.14352109194E+03  0.00000000000E+00 0. -1.
         21   -1    0    0  501  502 -0.00000000000E+00 -0.00000000000E+00 -0.36347784232E+03  0.36347784232E+03  0.00000000000E+00 0. -1.
      99926    2    1    2    0    0  0.00000000000E+00  0.00000000000E+00 -0.21995675037E+03  0.50699893426E+03  0.45680077420E+03 0.  0.
      99925    2    3    3    0    0  0.40108301498E+02 -0.75403412678E+02 -0.53075249879E+02  0.28162969546E+03  0.26306644165E+03 0.  0.
         25    1    4    4    0    0  0.13421898280E+02 -0.45689607158E+01 -0.49801598951E+02  0.13538364049E+03  0.12509000000E+03 0.  0.
         25    1    4    4    0    0  0.26686403219E+02 -0.70834451963E+02 -0.32736509280E+01  0.14624605496E+03  0.12509000000E+03 0.  0.
         25    1    3    3    0    0 -0.40108301498E+02  0.75403412678E+02 -0.16688150049E+03  0.22536923880E+03  0.12509000000E+03 0.  0.
<mgrwt>
<rscale>  2 0.45680077E+03</rscale>
<asrwt>0</asrwt>
<pdfrwt beam="1">  1       21 0.21106043E-01 0.45680077E+03</pdfrwt>
<pdfrwt beam="2">  1       21 0.53452624E-01 0.45680077E+03</pdfrwt>
<totfact> 0.63864012E+04</totfact>
</mgrwt>
</event>
<event>
 7    0  0.4779893E-002  0.4566529E+03  0.7546771E-02  0.1025756E+00
         21   -1    0    0  502  501  0.00000000000E+00  0.00000000000E+00  0.48764537774E+03  0.48764537774E+03  0.00000000000E+00 0.  1.
         21   -1    0    0  501  502 -0.00000000000E+00 -0.00000000000E+00 -0.10690753838E+03  0.10690753838E+03  0.00000000000E+00 0.  1.
      99926    2    1    2    0    0 -0.14210854715E-13 -0.27755575616E-16  0.38073783936E+03  0.59455291612E+03  0.45665289635E+03 0.  0.
      99925    2    3    3    0    0 -0.64765077344E+02  0.23628722101E+00  0.36251634114E+03  0.45251734955E+03  0.26298152591E+03 0.  0.
         25    1    4    4    0    0 -0.23368461260E+02 -0.77084357051E+01  0.11355764146E+03  0.17072888155E+03  0.12509000000E+03 0.  0.
         25    1    4    4    0    0 -0.41396616085E+02  0.79447229261E+01  0.24895869968E+03  0.28178846799E+03  0.12509000000E+03 0.  0.
         25    1    3    3    0    0  0.64765077344E+02 -0.23628722101E+00  0.18221498223E+02  0.14203556658E+03  0.12509000000E+03 0.  0.
<mgrwt>
<rscale>  2 0.45665290E+03</rscale>
<asrwt>0</asrwt>
<pdfrwt beam="1">  1       21 0.71712555E-01 0.45665290E+03</pdfrwt>
<pdfrwt beam="2">  1       21 0.15721697E-01 0.45665290E+03</pdfrwt>
<totfact> 0.58250200E+04</totfact>
</mgrwt>
</event>
<event>
 7    0  0.4779893E-002  0.4527106E+03  0.7546771E-02  0.1026917E+00
         21   -1    0    0  502  501  0.00000000000E+00  0.00000000000E+00  0.12501974523E+03  0.12501974523E+03  0.00000000000E+00 0.  1.
         21   -1    0    0  501  502 -0.00000000000E+00 -0.00000000000E+00 -0.40982909532E+03  0.40982909532E+03  0.00000000000E+00 0.  1.
      99926    2    1    2    0    0 -0.71054273576E-14  0.00000000000E+00 -0.28480935009E+03  0.53484884056E+03  0.45271063202E+03 0.  0.
      99925    2    3    3    0    0 -0.42026993837E+02 -0.75943264380E+02 -0.96765066790E+02  0.29289469573E+03  0.26246938302E+03 0.  0.
         25    1    4    4    0    0 -0.51682306631E+02 -0.13426988935E+02 -0.54041997460E+02  0.14635364854E+03  0.12509000000E+03 0.  0.
         25    1    4    4    0    0  0.96553127940E+01 -0.62516275444E+02 -0.42723069330E+02  0.14654104720E+03  0.12509000000E+03 0.  0.
         25    1    3    3    0    0  0.42026993837E+02  0.75943264380E+02 -0.18804428330E+03  0.24195414482E+03  0.12509000000E+03 0.  0.
<mgrwt>
<rscale>  2 0.45271063E+03</rscale>
<asrwt>0</asrwt>
<pdfrwt beam="1">  1       21 0.18385257E-01 0.45271063E+03</pdfrwt>
<pdfrwt beam="2">  1       21 0.60268984E-01 0.45271063E+03</pdfrwt>
<totfact> 0.64031348E+04</totfact>
</mgrwt>
</event>
<event>
 7    0  0.4779893E-002  0.4582120E+03  0.7546771E-02  0.1025301E+00
         21   -1    0    0  502  501  0.00000000000E+00  0.00000000000E+00  0.10765661403E+04  0.10765661403E+04  0.00000000000E+00 0.  1.
         21   -1    0    0  501  502 -0.00000000000E+00 -0.00000000000E+00 -0.48756456035E+02  0.48756456035E+02  0.00000000000E+00 0.  1.
      99926    2    1    2    0    0  0.71054273576E-14  0.00000000000E+00  0.10278096843E+04  0.11253225963E+04  0.45821195833E+03 0.  0.
      99925    2    3    3    0    0  0.16679569957E+02 -0.11381764285E+03  0.68503053731E+03  0.74272918870E+03  0.26295845075E+03 0.  0.
         25    1    3    3    0    0 -0.16679569957E+02  0.11381764285E+03  0.34277914697E+03  0.38259340765E+03  0.12509000000E+03 0.  0.
         25    1    4    4    0    0 -0.29285191614E+02 -0.72246253240E+02  0.34691773388E+03  0.37693045212E+03  0.12509000000E+03 0.  0.
         25    1    4    4    0    0  0.45964761571E+02 -0.41571389614E+02  0.33811280342E+03  0.36579873657E+03  0.12509000000E+03 0.  0.
<mgrwt>
<rscale>  2 0.45821196E+03</rscale>
<asrwt>0</asrwt>
<pdfrwt beam="1">  1       21 0.15831854E+00 0.45821196E+03</pdfrwt>
<pdfrwt beam="2">  1       21 0.71700677E-02 0.45821196E+03</pdfrwt>
<totfact> 0.33763674E+04</totfact>
</mgrwt>
</event>
<event>
 7    0  0.4779893E-002  0.4452249E+03  0.7546771E-02  0.1029156E+00
         21   -1    0    0  502  501  0.00000000000E+00  0.00000000000E+00  0.23911965080E+03  0.23911965080E+03  0.00000000000E+00 0.  1.
         21   -1    0    0  501  502 -0.00000000000E+00 -0.00000000000E+00 -0.20724478197E+03  0.20724478197E+03  0.00000000000E+00 0.  1.
      99926    2    1    2    0    0  0.00000000000E+00 -0.14210854715E-13  0.31874868837E+02  0.44636443277E+03  0.44522488652E+03 0.  0.
      99925    2    3    3    0    0  0.47805602285E+02 -0.87015750207E+02  0.50472302864E+02  0.28558356001E+03  0.26297034053E+03 0.  0.
         25    1    4    4    0    0 -0.40606445640E+01 -0.55362962405E+02  0.52294104765E+02  0.14650504406E+03  0.12509000000E+03 0.  0.
         25    1    4    4    0    0  0.51866246849E+02 -0.31652787802E+02 -0.18218019005E+01  0.13907851595E+03  0.12509000000E+03 0.  0.
         25    1    3    3    0    0 -0.47805602285E+02  0.87015750207E+02 -0.18597434028E+02  0.16078087276E+03  0.12509000000E+03 0.  0.
<mgrwt>
<rscale>  2 0.44522489E+03</rscale>
<asrwt>0</asrwt>
<pdfrwt beam="1">  1       21 0.35164655E-01 0.44522489E+03</pdfrwt>
<pdfrwt beam="2">  1       21 0.30477174E-01 0.44522489E+03</pdfrwt>
<totfact> 0.74853026E+04</totfact>
</mgrwt>
</event>
<event>
 7    0  0.4779893E-002  0.4513009E+03  0.7546771E-02  0.1027335E+00
         21   -1    0    0  502  501  0.00000000000E+00  0.00000000000E+00  0.37552682719E+03  0.37552682719E+03  0.00000000000E+00 0.  1.
         21   -1    0    0  501  502 -0.00000000000E+00 -0.00000000000E+00 -0.13559119688E+03  0.13559119688E+03  0.00000000000E+00 0.  1.
      99926    2    1    2    0    0  0.00000000000E+00  0.00000000000E+00  0.23993563032E+03  0.51111802407E+03  0.45130092824E+03 0.  0.
      99925    2    3    3    0    0  0.62816633563E+02  0.59706432869E+02  0.75551520368E+02  0.28710813303E+03  0.26308223096E+03 0.  0.
         25    1    4    4    0    0 -0.80883823572E+01  0.22803187243E+02  0.21987188087E+02  0.12929173144E+03  0.12509000000E+03 0.  0.
         25    1    4    4    0    0  0.70905015920E+02  0.36903245626E+02  0.53564332281E+02  0.15781640160E+03  0.12509000000E+03 0.  0.
         25    1    3    3    0    0 -0.62816633563E+02 -0.59706432869E+02  0.16438410995E+03  0.22400989104E+03  0.12509000000E+03 0.  0.
<mgrwt>
<rscale>  2 0.45130093E+03</rscale>
<asrwt>0</asrwt>
<pdfrwt beam="1">  1       21 0.55224533E-01 0.45130093E+03</pdfrwt>
<pdfrwt beam="2">  1       21 0.19939882E-01 0.45130093E+03</pdfrwt>
<totfact> 0.66424965E+04</totfact>
</mgrwt>
</event>
<event>
 7    0  0.4779893E-002  0.4510060E+03  0.7546771E-02  0.1027422E+00
         21   -1    0    0  502  501  0.00000000000E+00  0.00000000000E+00  0.35820884914E+03  0.35820884914E+03  0.00000000000E+00 0.  1.
         21   -1    0    0  501  502 -0.00000000000E+00 -0.00000000000E+00 -0.14196077060E+03  0.14196077060E+03  0.00000000000E+00 0.  1.
      99926    2    1    2    0    0  0.00000000000E+00  0.00000000000E+00  0.21624807853E+03  0.50016961974E+03  0.45100600555E+03 0.  0.
      99925    2    3    3    0    0 -0.76073819901E+02  0.78669352088E+02  0.14065741030E+03  0.31758388575E+03  0.26286674264E+03 0.  0.
         25    1    4    4    0    0 -0.83477214143E+01  0.22458391693E+02  0.91870151355E+02  0.15704042989E+03  0.12509000000E+03 0.  0.
         25    1    3    3    0    0  0.76073819901E+02 -0.78669352088E+02  0.75590668232E+02  0.18258573399E+03  0.12509000000E+03 0.  0.
         25    1    4    4    0    0 -0.67726098487E+02  0.56210960394E+02  0.48787258947E+02  0.16054345586E+03  0.12509000000E+03 0.  0.
<mgrwt>
<rscale>  2 0.45100601E+03</rscale>
<asrwt>0</asrwt>
<pdfrwt beam="1">  1       21 0.52677772E-01 0.45100601E+03</pdfrwt>
<pdfrwt beam="2">  1       21 0.20876584E-01 0.45100601E+03</pdfrwt>
<totfact> 0.67369367E+04</totfact>
</mgrwt>
</event>
<event>
 7    0  0.4779893E-002  0.4529620E+03  0.7546771E-02  0.1026842E+00
         21   -1    0    0  502  501  0.00000000000E+00  0.00000000000E+00  0.16709257858E+03  0.16709257858E+03  0.00000000000E+00 0. -1.
         21   -1    0    0  501  502 -0.00000000000E+00 -0.00000000000E+00 -0.30697742980E+03  0.30697742980E+03  0.00000000000E+00 0. -1.
      99926    2    1    2    0    0  0.71054273576E-14 -0.71054273576E-14 -0.13988485122E+03  0.47407000839E+03  0.45296203069E+03 0.  0.
      99925    2    3    3    0    0 -0.43620949844E+02  0.47637507401E+02  0.66050531557E+01  0.27089786571E+03  0.26300172536E+03 0.  0.
         25    1    3    3    0    0  0.43620949844E+02 -0.47637507401E+02 -0.14648990438E+03  0.20317214268E+03  0.12509000000E+03 0.  0.
         25    1    4    4    0    0 -0.32159094448E+02 -0.14657285150E+02 -0.59619598172E+01  0.13012338924E+03  0.12509000000E+03 0.  0.
         25    1    4    4    0    0 -0.11461855396E+02  0.62294792552E+02  0.12567012973E+02  0.14077447646E+03  0.12509000000E+03 0.  0.
<mgrwt>
<rscale>  2 0.45296203E+03</rscale>
<asrwt>0</asrwt>
<pdfrwt beam="1">  1       21 0.24572438E-01 0.45296203E+03</pdfrwt>
<pdfrwt beam="2">  1       21 0.45143740E-01 0.45296203E+03</pdfrwt>
<totfact> 0.68231219E+04</totfact>
</mgrwt>
</event>
<event>
 7    0  0.4779893E-002  0.4616531E+03  0.7546771E-02  0.1024303E+00
         21   -1    0    0  502  501  0.00000000000E+00  0.00000000000E+00  0.89333997027E+02  0.89333997027E+02  0.00000000000E+00 0. -1.
         21   -1    0    0  501  502 -0.00000000000E+00 -0.00000000000E+00 -0.59642340484E+03  0.59642340484E+03  0.00000000000E+00 0. -1.
      99926    2    1    2    0    0  0.00000000000E+00  0.00000000000E+00 -0.50708940781E+03  0.68575740187E+03  0.46165305880E+03 0.  0.
      99925    2    3    3    0    0  0.87028846240E+02  0.48629587616E+02 -0.41450078531E+03  0.50093581767E+03  0.26303409575E+03 0.  0.
         25    1    4    4    0    0  0.62752251506E+02  0.62140162576E+02 -0.22939333982E+03  0.27580438235E+03  0.12509000000E+03 0.  0.
         25    1    4    4    0    0  0.24276594735E+02 -0.13510574960E+02 -0.18510744549E+03  0.22513143531E+03  0.12509000000E+03 0.  0.
         25    1    3    3    0    0 -0.87028846240E+02 -0.48629587616E+02 -0.92588622502E+02  0.18482158420E+03  0.12509000000E+03 0.  0.
<mgrwt>
<rscale>  2 0.46165306E+03</rscale>
<asrwt>0</asrwt>
<pdfrwt beam="1">  1       21 0.13137353E-01 0.46165306E+03</pdfrwt>
<pdfrwt beam="2">  1       21 0.87709320E-01 0.46165306E+03</pdfrwt>
<totfact> 0.50959920E+04</totfact>
</mgrwt>
</event>
<event>
 7    0  0.4779893E-002  0.4313960E+03  0.7546771E-02  0.1033420E+00
         21   -1    0    0  502  501  0.00000000000E+00  0.00000000000E+00  0.16388282674E+02  0.16388282674E+02  0.00000000000E+00 0.  1.
         21   -1    0    0  501  502 -0.00000000000E+00 -0.00000000000E+00 -0.28389562752E+04  0.28389562752E+04  0.00000000000E+00 0.  1.
      99926    2    1    2    0    0  0.35527136788E-14  0.00000000000E+00 -0.28225679925E+04  0.28553445578E+04  0.43139595703E+03 0.  0.
      99925    2    3    3    0    0  0.18530703475E+02 -0.67858177416E+02 -0.14546801669E+04  0.14799490762E+04  0.26307177950E+03 0.  0.
         25    1    4    4    0    0  0.87150014986E+01 -0.59277714281E+01 -0.85462089082E+03  0.86379133178E+03  0.12509000000E+03 0.  0.
         25    1    4    4    0    0  0.98157019760E+01 -0.61930405988E+02 -0.60005927603E+03  0.61615774445E+03  0.12509000000E+03 0.  0.
         25    1    3    3    0    0 -0.18530703475E+02  0.67858177416E+02 -0.13678878256E+04  0.13753954816E+04  0.12509000000E+03 0.  0.
<mgrwt>
<rscale>  2 0.43139596E+03</rscale>
<asrwt>0</asrwt>
<pdfrwt beam="1">  1       21 0.24100401E-02 0.43139596E+03</pdfrwt>
<pdfrwt beam="2">  1       21 0.41749383E+00 0.43139596E+03</pdfrwt>
<totfact> 0.49919795E+03</totfact>
</mgrwt>
</event>
<event>
 7    0  0.4779893E-002  0.4375572E+03  0.7546771E-02  0.1031499E+00
         21   -1    0    0  502  501  0.00000000000E+00  0.00000000000E+00  0.76141371164E+02  0.76141371164E+02  0.00000000000E+00 0.  1.
         21   -1    0    0  501  502 -0.00000000000E+00 -0.00000000000E+00 -0.62862121584E+03  0.62862121584E+03  0.00000000000E+00 0.  1.
      99926    2    1    2    0    0 -0.35527136788E-14  0.00000000000E+00 -0.55247984467E+03  0.70476258700E+03  0.43755722513E+03 0.  0.
      99925    2    3    3    0    0  0.31888469798E+02 -0.25367540608E+02 -0.49333417349E+03  0.56051937176E+03  0.26295051391E+03 0.  0.
         25    1    3    3    0    0 -0.31888469798E+02  0.25367540608E+02 -0.59145671184E+02  0.14424321524E+03  0.12509000000E+03 0.  0.
         25    1    4    4    0    0  0.38205102183E+02  0.15608318613E+02 -0.20764218498E+03  0.24589842318E+03  0.12509000000E+03 0.  0.
         25    1    4    4    0    0 -0.63166323852E+01 -0.40975859221E+02 -0.28569198851E+03  0.31462094858E+03  0.12509000000E+03 0.  0.
<mgrwt>
<rscale>  2 0.43755723E+03</rscale>
<asrwt>0</asrwt>
<pdfrwt beam="1">  1       21 0.11197260E-01 0.43755723E+03</pdfrwt>
<pdfrwt beam="2">  1       21 0.92444298E-01 0.43755723E+03</pdfrwt>
<totfact> 0.60535579E+04</totfact>
</mgrwt>
</event>
<event>
 7    0  0.4779893E-002  0.4558961E+03  0.7546771E-02  0.1025978E+00
         21   -1    0    0  502  501  0.00000000000E+00  0.00000000000E+00  0.92437501139E+03  0.92437501139E+03  0.00000000000E+00 0. -1.
         21   -1    0    0  501  502 -0.00000000000E+00 -0.00000000000E+00 -0.56211301849E+02  0.56211301849E+02  0.00000000000E+00 0. -1.
      99926    2    1    2    0    0  0.00000000000E+00 -0.88817841970E-15  0.86816370954E+03  0.98058631324E+03  0.45589614075E+03 0.  0.
      99925    2    3    3    0    0 -0.11340820595E+03 -0.29703066717E+01  0.52176540003E+03  0.59521695686E+03  0.26300921880E+03 0.  0.
         25    1    4    4    0    0 -0.85982084074E+02 -0.22686596758E+02  0.23693007680E+03  0.28229589059E+03  0.12509000000E+03 0.  0.
         25    1    3    3    0    0  0.11340820595E+03  0.29703066717E+01  0.34639830951E+03  0.38536935637E+03  0.12509000000E+03 0.  0.
         25    1    4    4    0    0 -0.27426121881E+02  0.19716290086E+02  0.28483532323E+03  0.31292106627E+03  0.12509000000E+03 0.  0.
<mgrwt>
<rscale>  2 0.45589614E+03</rscale>
<asrwt>0</asrwt>
<pdfrwt beam="1">  1       21 0.13593749E+00 0.45589614E+03</pdfrwt>
<pdfrwt beam="2">  1       21 0.82663685E-02 0.45589614E+03</pdfrwt>
<totfact> 0.39647860E+04</totfact>
</mgrwt>
</event>
<event>
 7    0  0.4779893E-002  0.4100486E+03  0.7546771E-02  0.1040355E+00
         21   -1    0    0  502  501  0.00000000000E+00  0.00000000000E+00  0.18949187405E+04  0.18949187405E+04  0.00000000000E+00 0. -1.
         21   -1    0    0  501  502 -0.00000000000E+00 -0.00000000000E+00 -0.22182990665E+02  0.22182990665E+02  0.00000000000E+00 0. -1.
      99926    2    1    2    0    0  0.00000000000E+00  0.00000000000E+00  0.18727357499E+04  0.19171017312E+04  0.41004860557E+03 0.  0.
      99925    2    3    3    0    0 -0.51038446650E+02 -0.34233816660E+02  0.12829265742E+04  0.13110495477E+04  0.26300844981E+03 0.  0.
         25    1    4    4    0    0 -0.22381962089E+02 -0.19574240304E+01  0.44708774486E+03  0.46480075671E+03  0.12509000000E+03 0.  0.
         25    1    4    4    0    0 -0.28656484561E+02 -0.32276392630E+02  0.83583882933E+03  0.84624879104E+03  0.12509000000E+03 0.  0.
         25    1    3    3    0    0  0.51038446650E+02  0.34233816660E+02  0.58980917567E+03  0.60605218344E+03  0.12509000000E+03 0.  0.
<mgrwt>
<rscale>  2 0.41004861E+03</rscale>
<asrwt>0</asrwt>
<pdfrwt beam="1">  1       21 0.27866441E+00 0.41004861E+03</pdfrwt>
<pdfrwt beam="2">  1       21 0.32622058E-02 0.41004861E+03</pdfrwt>
<totfact> 0.21774368E+04</totfact>
</mgrwt>
</event>
<event>
 7    0  0.4779893E-002  0.4527169E+03  0.7546771E-02  0.1026915E+00
         21   -1    0    0  502  501  0.00000000000E+00  0.00000000000E+00  0.21934785090E+03  0.21934785090E+03  0.00000000000E+00 0. -1.
         21   -1    0    0  501  502 -0.00000000000E+00 -0.00000000000E+00 -0.23359309062E+03  0.23359309062E+03  0.00000000000E+00 0. -1.
      99926    2    1    2    0    0  0.00000000000E+00  0.00000000000E+00 -0.14245239724E+02  0.45294094152E+03  0.45271687582E+03 0.  0.
      99925    2    3    3    0    0  0.27390362125E+02 -0.86134581747E+02  0.55491178166E+02  0.28358901744E+03  0.26300962311E+03 0.  0.
         25    1    3    3    0    0 -0.27390362125E+02  0.86134581747E+02 -0.69736417890E+02  0.16935192408E+03  0.12509000000E+03 0.  0.
         25    1    4    4    0    0  0.49786211439E+01 -0.30477797471E+02 -0.11820649897E+02  0.12938670206E+03  0.12509000000E+03 0.  0.
         25    1    4    4    0    0  0.22411740981E+02 -0.55656784276E+02  0.67311828063E+02  0.15420231537E+03  0.12509000000E+03 0.  0.
<mgrwt>
<rscale>  2 0.45271688E+03</rscale>
<asrwt>0</asrwt>
<pdfrwt beam="1">  1       21 0.32257037E-01 0.45271688E+03</pdfrwt>
<pdfrwt beam="2">  1       21 0.34351925E-01 0.45271688E+03</pdfrwt>
<totfact> 0.69962755E+04</totfact>
</mgrwt>
</event>
<event>
 7    0  0.4779893E-002  0.4529305E+03  0.7546771E-02  0.1026852E+00
         21   -1    0    0  502  501  0.00000000000E+00  0.00000000000E+00  0.22824260876E+03  0.22824260876E+03  0.00000000000E+00 0.  1.
         21   -1    0    0  501  502 -0.00000000000E+00 -0.00000000000E+00 -0.22470176586E+03  0.22470176586E+03  0.00000000000E+00 0.  1.
      99926    2    1    2    0    0  0.00000000000E+00  0.71054273576E-14  0.35408428977E+01  0.45294437463E+03  0.45293053434E+03 0.  0.
      99925    2    3    3    0    0  0.74451680844E+02 -0.41143516776E+02  0.73962811390E+02  0.28608334413E+03  0.26293980407E+03 0.  0.
         25    1    4    4    0    0  0.69310340008E+01  0.68013463123E+01  0.22389870335E+02  0.12744846777E+03  0.12509000000E+03 0.  0.
         25    1    3    3    0    0 -0.74451680844E+02  0.41143516776E+02 -0.70421968492E+02  0.16686103050E+03  0.12509000000E+03 0.  0.
         25    1    4    4    0    0  0.67520646844E+02 -0.47944863089E+02  0.51572941055E+02  0.15863487635E+03  0.12509000000E+03 0.  0.
<mgrwt>
<rscale>  2 0.45293053E+03</rscale>
<asrwt>0</asrwt>
<pdfrwt beam="1">  1       21 0.33565090E-01 0.45293053E+03</pdfrwt>
<pdfrwt beam="2">  1       21 0.33044377E-01 0.45293053E+03</pdfrwt>
<totfact> 0.69842799E+04</totfact>
</mgrwt>
</event>
<event>
 7    0  0.4779893E-002  0.4436059E+03  0.7546771E-02  0.1029646E+00
         21   -1    0    0  502  501  0.00000000000E+00  0.00000000000E+00  0.24645562594E+03  0.24645562594E+03  0.00000000000E+00 0.  1.
         21   -1    0    0  501  502 -0.00000000000E+00 -0.00000000000E+00 -0.19961623195E+03  0.19961623195E+03  0.00000000000E+00 0.  1.
      99926    2    1    2    0    0 -0.44408920985E-15  0.00000000000E+00  0.46839393983E+02  0.44607185789E+03  0.44360587639E+03 0.  0.
      99925    2    3    3    0    0 -0.10864382642E+01 -0.91506468652E+02  0.74991977914E+02  0.28854506577E+03  0.26317265070E+03 0.  0.
         25    1    3    3    0    0  0.10864382642E+01  0.91506468652E+02 -0.28152583931E+02  0.15752679212E+03  0.12509000000E+03 0.  0.
         25    1    4    4    0    0 -0.19628562452E+02 -0.83414339471E+02  0.47367531879E+02  0.15885346603E+03  0.12509000000E+03 0.  0.
         25    1    4    4    0    0  0.18542124188E+02 -0.80921291804E+01  0.27624446035E+02  0.12969159974E+03  0.12509000000E+03 0.  0.
<mgrwt>
<rscale>  2 0.44360588E+03</rscale>
<asrwt>0</asrwt>
<pdfrwt beam="1">  1       21 0.36243475E-01 0.44360588E+03</pdfrwt>
<pdfrwt beam="2">  1       21 0.29355328E-01 0.44360588E+03</pdfrwt>
<totfact> 0.75871074E+04</totfact>
</mgrwt>
</event>
<event>
 7    0  0.4779893E-002  0.4742330E+03  0.7546771E-02  0.1020732E+00
         21   -1    0    0  502  501  0.00000000000E+00  0.00000000000E+00  0.21396727571E+04  0.21396727571E+04  0.00000000000E+00 0. -1.
         21   -1    0    0  501  502 -0.00000000000E+00 -0.00000000000E+00 -0.26277022143E+02  0.26277022143E+02  0.00000000000E+00 0. -1.
      99926    2    1    2    0    0  0.00000000000E+00  0.00000000000E+00  0.21133957350E+04  0.21659497792E+04  0.47423297404E+03 0.  0.
      99925    2    3    3    0    0  0.64468224805E+02 -0.11361112138E+03  0.13158650727E+04  0.13481684489E+04  0.26266640090E+03 0.  0.
         25    1    3    3    0    0 -0.64468224805E+02  0.11361112138E+03  0.79753066230E+03  0.81778133038E+03  0.12509000000E+03 0.  0.
         25    1    4    4    0    0  0.58222599059E+02 -0.55643217580E+02  0.53974684825E+03  0.55987517091E+03  0.12509000000E+03 0.  0.
         25    1    4    4    0    0  0.62456257457E+01 -0.57967903798E+02  0.77611822441E+03  0.78829327796E+03  0.12509000000E+03 0.  0.
<mgrwt>
<rscale>  2 0.47423297E+03</rscale>
<asrwt>0</asrwt>
<pdfrwt beam="1">  1       21 0.31465764E+00 0.47423297E+03</pdfrwt>
<pdfrwt beam="2">  1       21 0.38642694E-02 0.47423297E+03</pdfrwt>
<totfact> 0.96595180E+03</totfact>
</mgrwt>
</event>
<event>
 7    0  0.4779893E-002  0.4554060E+03  0.7546771E-02  0.1026122E+00
         21   -1    0    0  502  501  0.00000000000E+00  0.00000000000E+00  0.29529990992E+03  0.29529990992E+03  0.00000000000E+00 0.  1.
         21   -1    0    0  501  502 -0.00000000000E+00 -0.00000000000E+00 -0.17557961778E+03  0.17557961778E+03  0.00000000000E+00 0.  1.
      99926    2    1    2    0    0 -0.14210854715E-13  0.00000000000E+00  0.11972029214E+03  0.47087952770E+03  0.45540595215E+03 0.  0.
      99925    2    3    3    0    0 -0.10383780846E+03  0.75339219566E+01  0.12219573418E+03  0.30811378696E+03  0.26298908307E+03 0.  0.
         25    1    3    3    0    0  0.10383780846E+03 -0.75339219566E+01 -0.24754420417E+01  0.16276574074E+03  0.12509000000E+03 0.  0.
         25    1    4    4    0    0 -0.28223118075E+02  0.13751366233E+02  0.92807440240E+02  0.15889107442E+03  0.12509000000E+03 0.  0.
         25    1    4    4    0    0 -0.75614690384E+02 -0.62174442761E+01  0.29388293942E+02  0.14922271253E+03  0.12509000000E+03 0.  0.
<mgrwt>
<rscale>  2 0.45540595E+03</rscale>
<asrwt>0</asrwt>
<pdfrwt beam="1">  1       21 0.43426457E-01 0.45540595E+03</pdfrwt>
<pdfrwt beam="2">  1       21 0.25820532E-01 0.45540595E+03</pdfrwt>
<totfact> 0.67153821E+04</totfact>
</mgrwt>
</event>
<event>
 7    0  0.4779893E-002  0.4559562E+03  0.7546771E-02  0.1025961E+00
         21   -1    0    0  502  501  0.00000000000E+00  0.00000000000E+00  0.39611842585E+03  0.39611842585E+03  0.00000000000E+00 0. -1.
         21   -1    0    0  501  502 -0.00000000000E+00 -0.00000000000E+00 -0.13120829324E+03  0.13120829324E+03  0.00000000000E+00 0. -1.
      99926    2    1    2    0    0  0.00000000000E+00  0.14210854715E-13  0.26491013261E+03  0.52732671909E+03  0.45595623727E+03 0.  0.
      99925    2    3    3    0    0  0.15782894099E+02  0.71623670059E+02  0.65859634735E+02  0.28105926557E+03  0.26320670473E+03 0.  0.
         25    1    3    3    0    0 -0.15782894099E+02 -0.71623670059E+02  0.19905049788E+03  0.24626745352E+03  0.12509000000E+03 0.  0.
         25    1    4    4    0    0  0.32423678953E+02  0.82236710492E+01  0.12482921860E+02  0.13008556861E+03  0.12509000000E+03 0.  0.
         25    1    4    4    0    0 -0.16640784855E+02  0.63399999010E+02  0.53376712875E+02  0.15097369696E+03  0.12509000000E+03 0.  0.
<mgrwt>
<rscale>  2 0.45595624E+03</rscale>
<asrwt>0</asrwt>
<pdfrwt beam="1">  1       21 0.58252709E-01 0.45595624E+03</pdfrwt>
<pdfrwt beam="2">  1       21 0.19295337E-01 0.45595624E+03</pdfrwt>
<totfact> 0.62909661E+04</totfact>
</mgrwt>
</event>
<event>
 7    0  0.4779893E-002  0.4458389E+03  0.7546771E-02  0.1028970E+00
         21   -1    0    0  502  501  0.00000000000E+00  0.00000000000E+00  0.48149055684E+03  0.48149055684E+03  0.00000000000E+00 0.  1.
         21   -1    0    0  501  502 -0.00000000000E+00 -0.00000000000E+00 -0.10320673993E+03  0.10320673993E+03  0.00000000000E+00 0.  1.
      99926    2    1    2    0    0 -0.17763568394E-14 -0.66613381478E-15  0.37828381691E+03  0.58469729676E+03  0.44583885284E+03 0.  0.
      99925    2    3    3    0    0  0.15893037560E+02 -0.18612737963E+01  0.37530331997E+03  0.45855275885E+03  0.26298668727E+03 0.  0.
         25    1    3    3    0    0 -0.15893037560E+02  0.18612737963E+01  0.29804969370E+01  0.12614453791E+03  0.12509000000E+03 0.  0.
         25    1    4    4    0    0 -0.13619548192E+02 -0.33121306691E+02  0.20692099907E+03  0.24443060571E+03  0.12509000000E+03 0.  0.
         25    1    4    4    0    0  0.29512585753E+02  0.31260032895E+02  0.16838232090E+03  0.21412215315E+03  0.12509000000E+03 0.  0.
<mgrwt>
<rscale>  2 0.44583885E+03</rscale>
<asrwt>0</asrwt>
<pdfrwt beam="1">  1       21 0.70807434E-01 0.44583885E+03</pdfrwt>
<pdfrwt beam="2">  1       21 0.15177462E-01 0.44583885E+03</pdfrwt>
<totfact> 0.64150936E+04</totfact>
</mgrwt>
</event>
<event>
 7    0  0.4779893E-002  0.4491575E+03  0.7546771E-02  0.1027974E+00
         21   -1    0    0  502  501  0.00000000000E+00  0.00000000000E+00  0.19265051742E+03  0.19265051742E+03  0.00000000000E+00 0. -1.
         21   -1    0    0  501  502 -0.00000000000E+00 -0.00000000000E+00 -0.26179845071E+03  0.26179845071E+03  0.00000000000E+00 0. -1.
      99926    2    1    2    0    0  0.00000000000E+00 -0.71054273576E-14 -0.69147933288E+02  0.45444896812E+03  0.44915746454E+03 0.  0.
      99925    2    3    3    0    0  0.50765860985E+02  0.32691335399E+02 -0.13383192653E+03  0.30122552627E+03  0.26302079208E+03 0.  0.
         25    1    3    3    0    0 -0.50765860985E+02 -0.32691335399E+02  0.64683993239E+02  0.15322344185E+03  0.12509000000E+03 0.  0.
         25    1    4    4    0    0  0.39159613437E+02  0.54689183505E+02 -0.63460899346E+02  0.15556084328E+03  0.12509000000E+03 0.  0.
         25    1    4    4    0    0  0.11606247548E+02 -0.21997848106E+02 -0.70371027182E+02  0.14566468299E+03  0.12509000000E+03 0.  0.
<mgrwt>
<rscale>  2 0.44915746E+03</rscale>
<asrwt>0</asrwt>
<pdfrwt beam="1">  1       21 0.28330959E-01 0.44915746E+03</pdfrwt>
<pdfrwt beam="2">  1       21 0.38499772E-01 0.44915746E+03</pdfrwt>
<totfact> 0.71878012E+04</totfact>
</mgrwt>
</event>
<event>
 7    0  0.4779893E-002  0.4532377E+03  0.7546771E-02  0.1026761E+00
         21   -1    0    0  502  501  0.00000000000E+00  0.00000000000E+00  0.96009327365E+02  0.96009327365E+02  0.00000000000E+00 0.  1.
         21   -1    0    0  501  502 -0.00000000000E+00 -0.00000000000E+00 -0.53490752175E+03  0.53490752175E+03  0.00000000000E+00 0.  1.
      99926    2    1    2    0    0  0.14210854715E-13 -0.71054273576E-14 -0.43889819438E+03  0.63091684911E+03  0.45323773614E+03 0.  0.
      99925    2    3    3    0    0 -0.94071149384E+02  0.59850103324E+02 -0.27568697433E+03  0.39700056822E+03  0.26301088825E+03 0.  0.
         25    1    3    3    0    0  0.94071149384E+02 -0.59850103324E+02 -0.16321122005E+03  0.23391628089E+03  0.12509000000E+03 0.  0.
         25    1    4    4    0    0 -0.76617333746E+02  0.45604279981E+02 -0.11377906843E+03  0.19116262892E+03  0.12509000000E+03 0.  0.
         25    1    4    4    0    0 -0.17453815638E+02  0.14245823343E+02 -0.16190790590E+03  0.20583793930E+03  0.12509000000E+03 0.  0.
<mgrwt>
<rscale>  2 0.45323774E+03</rscale>
<asrwt>0</asrwt>
<pdfrwt beam="1">  1       21 0.14119018E-01 0.45323774E+03</pdfrwt>
<pdfrwt beam="2">  1       21 0.78662872E-01 0.45323774E+03</pdfrwt>
<totfact> 0.57611743E+04</totfact>
</mgrwt>
</event>
<event>
 7    0  0.4779893E-002  0.4409844E+03  0.7546771E-02  0.1030445E+00
         21   -1    0    0  502  501  0.00000000000E+00  0.00000000000E+00  0.32754206476E+03  0.32754206476E+03  0.00000000000E+00 0. -1.
         21   -1    0    0  501  502 -0.00000000000E+00 -0.00000000000E+00 -0.14842920298E+03  0.14842920298E+03  0.00000000000E+00 0. -1.
      99926    2    1    2    0    0  0.00000000000E+00  0.00000000000E+00  0.17911286178E+03  0.47597126774E+03  0.44098438800E+03 0.  0.
      99925    2    3    3    0    0  0.47016895944E+02  0.87530327140E+02  0.10844298709E+03  0.30128902491E+03  0.26295065774E+03 0.  0.
         25    1    3    3    0    0 -0.47016895944E+02 -0.87530327140E+02  0.70669874684E+02  0.17468224283E+03  0.12509000000E+03 0.  0.
         25    1    4    4    0    0  0.97510575945E+01  0.74222394892E+02  0.82648198073E+02  0.16757768280E+03  0.12509000000E+03 0.  0.
         25    1    4    4    0    0  0.37265838349E+02  0.13307932248E+02  0.25794789021E+02  0.13371134211E+03  0.12509000000E+03 0.  0.
<mgrwt>
<rscale>  2 0.44098439E+03</rscale>
<asrwt>0</asrwt>
<pdfrwt beam="1">  1       21 0.48167951E-01 0.44098439E+03</pdfrwt>
<pdfrwt beam="2">  1       21 0.21827824E-01 0.44098439E+03</pdfrwt>
<totfact> 0.74997646E+04</totfact>
</mgrwt>
</event>
<event>
 7    0  0.4779893E-002  0.4605954E+03  0.7546771E-02  0.1024609E+00
         21   -1    0    0  502  501  0.00000000000E+00  0.00000000000E+00  0.38426739186E+03  0.38426739186E+03  0.00000000000E+00 0.  1.
         21   -1    0    0  501  502 -0.00000000000E+00 -0.00000000000E+00 -0.13802113846E+03  0.13802113846E+03  0.00000000000E+00 0.  1.
      99926    2    1    2    0    0  0.00000000000E+00 -0.14210854715E-13  0.24624625340E+03  0.52228853032E+03  0.46059536645E+03 0.  0.
      99925    2    3    3    0    0  0.40322628493E+02  0.72695326607E+02  0.58726622798E+02  0.28203523723E+03  0.26302953054E+03 0.  0.
         25    1    4    4    0    0  0.15625573085E+02  0.33790258146E+01  0.17394547194E+01  0.12611942813E+03  0.12509000000E+03 0.  0.
         25    1    4    4    0    0  0.24697055407E+02  0.69316300792E+02  0.56987168079E+02  0.15591580910E+03  0.12509000000E+03 0.  0.
         25    1    3    3    0    0 -0.40322628493E+02 -0.72695326607E+02  0.18751963060E+03  0.24025329309E+03  0.12509000000E+03 0.  0.
<mgrwt>
<rscale>  2 0.46059537E+03</rscale>
<asrwt>0</asrwt>
<pdfrwt beam="1">  1       21 0.56509910E-01 0.46059537E+03</pdfrwt>
<pdfrwt beam="2">  1       21 0.20297226E-01 0.46059537E+03</pdfrwt>
<totfact> 0.60979197E+04</totfact>
</mgrwt>
</event>
<event>
 7    0  0.4779893E-002  0.4577570E+03  0.7546771E-02  0.1025434E+00
         21   -1    0    0  502  501  0.00000000000E+00  0.00000000000E+00  0.58607395681E+03  0.58607395681E+03  0.00000000000E+00 0. -1.
         21   -1    0    0  501  502 -0.00000000000E+00 -0.00000000000E+00 -0.89383533577E+02  0.89383533577E+02  0.00000000000E+00 0. -1.
      99926    2    1    2    0    0  0.00000000000E+00  0.00000000000E+00  0.49669042323E+03  0.67545749039E+03  0.45775697132E+03 0.  0.
      99925    2    3    3    0    0 -0.41574355790E+02  0.10645187839E+03  0.28691824740E+03  0.40580530084E+03  0.26324025533E+03 0.  0.
         25    1    3    3    0    0  0.41574355790E+02 -0.10645187839E+03  0.20977217583E+03  0.26965218954E+03  0.12509000000E+03 0.  0.
         25    1    4    4    0    0 -0.19124896616E+02  0.42109820211E+02  0.19510904365E+03  0.23633460526E+03  0.12509000000E+03 0.  0.
         25    1    4    4    0    0 -0.22449459175E+02  0.64342058182E+02  0.91809203751E+02  0.16947069558E+03  0.12509000000E+03 0.  0.
<mgrwt>
<rscale>  2 0.45775697E+03</rscale>
<asrwt>0</asrwt>
<pdfrwt beam="1">  1       21 0.86187345E-01 0.45775697E+03</pdfrwt>
<pdfrwt beam="2">  1       21 0.13144638E-01 0.45775697E+03</pdfrwt>
<totfact> 0.53093107E+04</totfact>
</mgrwt>
</event>
<event>
 7    0  0.4779893E-002  0.4408528E+03  0.7546771E-02  0.1030485E+00
         21   -1    0    0  502  501  0.00000000000E+00  0.00000000000E+00  0.70349940067E+03  0.70349940067E+03  0.00000000000E+00 0. -1.
         21   -1    0    0  501  502 -0.00000000000E+00 -0.00000000000E+00 -0.69065868733E+02  0.69065868733E+02  0.00000000000E+00 0. -1.
      99926    2    1    2    0    0  0.35527136788E-14  0.00000000000E+00  0.63443353193E+03  0.77256526940E+03  0.44085279747E+03 0.  0.
      99925    2    3    3    0    0  0.20337074231E+02 -0.71932806100E+02  0.28989384392E+03  0.39847566797E+03  0.26297621953E+03 0.  0.
         25    1    4    4    0    0  0.15219970052E+02  0.38092687245E+01  0.15123290134E+03  0.19688843685E+03  0.12509000000E+03 0.  0.
         25    1    4    4    0    0  0.51171041793E+01 -0.75742074825E+02  0.13866094258E+03  0.20158723112E+03  0.12509000000E+03 0.  0.
         25    1    3    3    0    0 -0.20337074231E+02  0.71932806100E+02  0.34453968801E+03  0.37408960143E+03  0.12509000000E+03 0.  0.
<mgrwt>
<rscale>  2 0.44085280E+03</rscale>
<asrwt>0</asrwt>
<pdfrwt beam="1">  1       21 0.10345579E+00 0.44085280E+03</pdfrwt>
<pdfrwt beam="2">  1       21 0.10156746E-01 0.44085280E+03</pdfrwt>
<totfact> 0.54976346E+04</totfact>
</mgrwt>
</event>
<event>
 7    0  0.4779893E-002  0.4548531E+03  0.7546771E-02  0.1026285E+00
         21   -1    0    0  502  501  0.00000000000E+00  0.00000000000E+00  0.97478016108E+02  0.97478016108E+02  0.00000000000E+00 0. -1.
         21   -1    0    0  501  502 -0.00000000000E+00 -0.00000000000E+00 -0.53061026545E+03  0.53061026545E+03  0.00000000000E+00 0. -1.
      99926    2    1    2    0    0  0.00000000000E+00  0.00000000000E+00 -0.43313224934E+03  0.62808828155E+03  0.45485310157E+03 0.  0.
      99925    2    3    3    0    0  0.85175421503E+02  0.64681034855E+02 -0.22219960201E+03  0.36054654928E+03  0.26302597280E+03 0.  0.
         25    1    4    4    0    0  0.30462799492E+02  0.15883318636E+02 -0.15083574744E+03  0.19894520042E+03  0.12509000000E+03 0.  0.
         25    1    4    4    0    0  0.54712622011E+02  0.48797716219E+02 -0.71363854571E+02  0.16160134886E+03  0.12509000000E+03 0.  0.
         25    1    3    3    0    0 -0.85175421503E+02 -0.64681034855E+02 -0.21093264733E+03  0.26754173227E+03  0.12509000000E+03 0.  0.
<mgrwt>
<rscale>  2 0.45485310E+03</rscale>
<asrwt>0</asrwt>
<pdfrwt beam="1">  1       21 0.14335002E-01 0.45485310E+03</pdfrwt>
<pdfrwt beam="2">  1       21 0.78030921E-01 0.45485310E+03</pdfrwt>
<totfact> 0.57047958E+04</totfact>
</mgrwt>
</event>
<event>
 7    0  0.4779893E-002  0.4542073E+03  0.7546771E-02  0.1026475E+00
         21   -1    0    0  502  501  0.00000000000E+00  0.00000000000E+00  0.66239896917E+03  0.66239896917E+03  0.00000000000E+00 0.  1.
         21   -1    0    0  501  502 -0.00000000000E+00 -0.00000000000E+00 -0.77862532841E+02  0.77862532841E+02  0.00000000000E+00 0.  1.
      99926    2    1    2    0    0  0.00000000000E+00  0.00000000000E+00  0.58453643633E+03  0.74026150201E+03  0.45420727203E+03 0.  0.
      99925    2    3    3    0    0 -0.87463506870E+02 -0.40668370162E+02  0.46223327391E+03  0.54048824804E+03  0.26299080857E+03 0.  0.
         25    1    3    3    0    0  0.87463506870E+02  0.40668370162E+02  0.12230316242E+03  0.19977325398E+03  0.12509000000E+03 0.  0.
         25    1    4    4    0    0 -0.10797412138E+02 -0.11938869745E+01  0.17279469323E+03  0.21359663758E+03  0.12509000000E+03 0.  0.
         25    1    4    4    0    0 -0.76666094732E+02 -0.39474483188E+02  0.28943858068E+03  0.32689161046E+03  0.12509000000E+03 0.  0.
<mgrwt>
<rscale>  2 0.45420727E+03</rscale>
<asrwt>0</asrwt>
<pdfrwt beam="1">  1       21 0.97411610E-01 0.45420727E+03</pdfrwt>
<pdfrwt beam="2">  1       21 0.11450373E-01 0.45420727E+03</pdfrwt>
<totfact> 0.51088574E+04</totfact>
</mgrwt>
</event>
<event>
 7    0  0.4779893E-002  0.4532350E+03  0.7546771E-02  0.1026762E+00
         21   -1    0    0  502  501  0.00000000000E+00  0.00000000000E+00  0.61518948432E+02  0.61518948432E+02  0.00000000000E+00 0.  1.
         21   -1    0    0  501  502 -0.00000000000E+00 -0.00000000000E+00 -0.83479129742E+03  0.83479129742E+03  0.00000000000E+00 0.  1.
      99926    2    1    2    0    0  0.35527136788E-14  0.00000000000E+00 -0.77327234899E+03  0.89631024585E+03  0.45323496236E+03 0.  0.
      99925    2    3    3    0    0  0.28147697120E+02 -0.49957702757E+02 -0.29861151296E+03  0.40210534677E+03  0.26311938224E+03 0.  0.
         25    1    4    4    0    0  0.34129030795E+02  0.54605954220E+01 -0.11766292347E+03  0.17517614137E+03  0.12509000000E+03 0.  0.
         25    1    4    4    0    0 -0.59813336748E+01 -0.55418298179E+02 -0.18094858949E+03  0.22692920540E+03  0.12509000000E+03 0.  0.
         25    1    3    3    0    0 -0.28147697120E+02  0.49957702757E+02 -0.47466083603E+03  0.49420489908E+03  0.12509000000E+03 0.  0.
<mgrwt>
<rscale>  2 0.45323496E+03</rscale>
<asrwt>0</asrwt>
<pdfrwt beam="1">  1       21 0.90469054E-02 0.45323496E+03</pdfrwt>
<pdfrwt beam="2">  1       21 0.12276341E+00 0.45323496E+03</pdfrwt>
<totfact> 0.43998520E+04</totfact>
</mgrwt>
</event>
<event>
 7    0  0.4779893E-002  0.4586974E+03  0.7546771E-02  0.1025160E+00
         21   -1    0    0  502  501  0.00000000000E+00  0.00000000000E+00  0.62389105943E+02  0.62389105943E+02  0.00000000000E+00 0. -1.
         21   -1    0    0  501  502 -0.00000000000E+00 -0.00000000000E+00 -0.84310908038E+03  0.84310908038E+03  0.00000000000E+00 0. -1.
      99926    2    1    2    0    0  0.00000000000E+00  0.00000000000E+00 -0.78071997444E+03  0.90549818633E+03  0.45869738058E+03 0.  0.
      99925    2    3    3    0    0 -0.17617180386E+02  0.67586379838E+02 -0.30573317958E+03  0.40937496859E+03  0.26312887342E+03 0.  0.
         25    1    4    4    0    0  0.28640044984E+02  0.32256389792E+02 -0.17418615380E+03  0.21874425966E+03  0.12509000000E+03 0.  0.
         25    1    4    4    0    0 -0.46257225370E+02  0.35329990046E+02 -0.13154702578E+03  0.19063070893E+03  0.12509000000E+03 0.  0.
         25    1    3    3    0    0  0.17617180386E+02 -0.67586379838E+02 -0.47498679486E+03  0.49612321773E+03  0.12509000000E+03 0.  0.
<mgrwt>
<rscale>  2 0.45869738E+03</rscale>
<asrwt>0</asrwt>
<pdfrwt beam="1">  1       21 0.91748700E-02 0.45869738E+03</pdfrwt>
<pdfrwt beam="2">  1       21 0.12398661E+00 0.45869738E+03</pdfrwt>
<totfact> 0.41774431E+04</totfact>
</mgrwt>
</event>
<event>
 7    0  0.4779893E-002  0.4547446E+03  0.7546771E-02  0.1026317E+00
         21   -1    0    0  502  501  0.00000000000E+00  0.00000000000E+00  0.23456803476E+03  0.23456803476E+03  0.00000000000E+00 0.  1.
         21   -1    0    0  501  502 -0.00000000000E+00 -0.00000000000E+00 -0.22039726653E+03  0.22039726653E+03  0.00000000000E+00 0.  1.
      99926    2    1    2    0    0  0.71054273576E-14  0.00000000000E+00  0.14170768230E+02  0.45496530128E+03  0.45474455983E+03 0.  0.
      99925    2    3    3    0    0 -0.44391713725E+02 -0.28360483223E+02  0.10875307991E+03  0.28953174048E+03  0.26310920756E+03 0.  0.
         25    1    3    3    0    0  0.44391713725E+02  0.28360483223E+02 -0.94582311679E+02  0.16543356080E+03  0.12509000000E+03 0.  0.
         25    1    4    4    0    0 -0.37944376570E+02  0.23048085586E+02  0.59434967920E+02  0.14543388008E+03  0.12509000000E+03 0.  0.
         25    1    4    4    0    0 -0.64473371550E+01 -0.51408568809E+02  0.49318111989E+02  0.14409786041E+03  0.12509000000E+03 0.  0.
<mgrwt>
<rscale>  2 0.45474456E+03</rscale>
<asrwt>0</asrwt>
<pdfrwt beam="1">  1       21 0.34495300E-01 0.45474456E+03</pdfrwt>
<pdfrwt beam="2">  1       21 0.32411362E-01 0.45474456E+03</pdfrwt>
<totfact> 0.68688235E+04</totfact>
</mgrwt>
</event>
<event>
 7    0  0.4779893E-002  0.4558336E+03  0.7546771E-02  0.1025997E+00
         21   -1    0    0  502  501  0.00000000000E+00  0.00000000000E+00  0.36740220064E+03  0.36740220064E+03  0.00000000000E+00 0.  1.
         21   -1    0    0  501  502 -0.00000000000E+00 -0.00000000000E+00 -0.14138744248E+03  0.14138744248E+03  0.00000000000E+00 0.  1.
      99926    2    1    2    0    0  0.00000000000E+00  0.14210854715E-13  0.22601475816E+03  0.50878964312E+03  0.45583355520E+03 0.  0.
      99925    2    3    3    0    0 -0.32764402672E+02 -0.10893225326E+03  0.13375851991E+03  0.31618002893E+03  0.26294244078E+03 0.  0.
         25    1    3    3    0    0  0.32764402672E+02  0.10893225326E+03  0.92256238254E+02  0.19260961419E+03  0.12509000000E+03 0.  0.
         25    1    4    4    0    0 -0.87576986999E+01 -0.11654228620E+02  0.51865243944E+02  0.13619849471E+03  0.12509000000E+03 0.  0.
         25    1    4    4    0    0 -0.24006703972E+02 -0.97278024640E+02  0.81893275961E+02  0.17998153422E+03  0.12509000000E+03 0.  0.
<mgrwt>
<rscale>  2 0.45583356E+03</rscale>
<asrwt>0</asrwt>
<pdfrwt beam="1">  1       21 0.54029735E-01 0.45583356E+03</pdfrwt>
<pdfrwt beam="2">  1       21 0.20792271E-01 0.45583356E+03</pdfrwt>
<totfact> 0.64231484E+04</totfact>
</mgrwt>
</event>
<event>
 7    0  0.4779893E-002  0.4507245E+03  0.7546771E-02  0.1027506E+00
         21   -1    0    0  502  501  0.00000000000E+00  0.00000000000E+00  0.10891586498E+04  0.10891586498E+04  0.00000000000E+00 0. -1.
         21   -1    0    0  501  502 -0.00000000000E+00 -0.00000000000E+00 -0.46630626232E+02  0.46630626232E+02  0.00000000000E+00 0. -1.
      99926    2    1    2    0    0  0.14210854715E-13  0.71054273576E-14  0.10425280236E+04  0.11357892761E+04  0.45072452744E+03 0.  0.
      99925    2    3    3    0    0 -0.92403132344E+02 -0.41123279202E+02  0.76165506390E+03  0.81211260012E+03  0.26301896501E+03 0.  0.
         25    1    3    3    0    0  0.92403132344E+02  0.41123279202E+02  0.28087295972E+03  0.32367667596E+03  0.12509000000E+03 0.  0.
         25    1    4    4    0    0 -0.15266658543E+02  0.54903831892E+01  0.30176652117E+03  0.32706842796E+03  0.12509000000E+03 0.  0.
         25    1    4    4    0    0 -0.77136473801E+02 -0.46613662391E+02  0.45988854273E+03  0.48504417216E+03  0.12509000000E+03 0.  0.
<mgrwt>
<rscale>  2 0.45072453E+03</rscale>
<asrwt>0</asrwt>
<pdfrwt beam="1">  1       21 0.16017037E+00 0.45072453E+03</pdfrwt>
<pdfrwt beam="2">  1       21 0.68574458E-02 0.45072453E+03</pdfrwt>
<totfact> 0.35426390E+04</totfact>
</mgrwt>
</event>
<event>
 7    0  0.4779893E-002  0.4304922E+03  0.7546771E-02  0.1033705E+00
         21   -1    0    0  502  501  0.00000000000E+00  0.00000000000E+00  0.58968788162E+02  0.58968788162E+02  0.00000000000E+00 0.  1.
         21   -1    0    0  501  502 -0.00000000000E+00 -0.00000000000E+00 -0.78568477816E+03  0.78568477816E+03  0.00000000000E+00 0.  1.
      99926    2    1    2    0    0 -0.35527136788E-14  0.00000000000E+00 -0.72671599000E+03  0.84465356632E+03  0.43049217993E+03 0.  0.
      99925    2    3    3    0    0  0.21983943690E+02  0.81599347301E+02 -0.41782827590E+03  0.50085002463E+03  0.26292305294E+03 0.  0.
         25    1    3    3    0    0 -0.21983943690E+02 -0.81599347301E+02 -0.30888771410E+03  0.34380354169E+03  0.12509000000E+03 0.  0.
         25    1    4    4    0    0 -0.10092795675E+02  0.70664632129E+02 -0.25361491319E+03  0.29165628238E+03  0.12509000000E+03 0.  0.
         25    1    4    4    0    0  0.32076739366E+02  0.10934715172E+02 -0.16421336271E+03  0.20919374225E+03  0.12509000000E+03 0.  0.
<mgrwt>
<rscale>  2 0.43049218E+03</rscale>
<asrwt>0</asrwt>
<pdfrwt beam="1">  1       21 0.86718810E-02 0.43049218E+03</pdfrwt>
<pdfrwt beam="2">  1       21 0.11554187E+00 0.43049218E+03</pdfrwt>
<totfact> 0.55626073E+04</totfact>
</mgrwt>
</event>
<event>
 7    0  0.4779893E-002  0.4327287E+03  0.7546771E-02  0.1033001E+00
         21   -1    0    0  502  501  0.00000000000E+00  0.00000000000E+00  0.19638357125E+03  0.19638357125E+03  0.00000000000E+00 0. -1.
         21   -1    0    0  501  502 -0.00000000000E+00 -0.00000000000E+00 -0.23837801662E+03  0.23837801662E+03  0.00000000000E+00 0. -1.
      99926    2    1    2    0    0 -0.35527136788E-14  0.17763568394E-14 -0.41994445368E+02  0.43476158788E+03  0.43272867348E+03 0.  0.
      99925    2    3    3    0    0  0.20463975016E+02  0.56011077672E+01  0.61576713326E+02  0.27097929428E+03  0.26303600442E+03 0.  0.
         25    1    4    4    0    0  0.33510717113E+02 -0.10693208897E+02 -0.13535426826E+00  0.12994167653E+03  0.12509000000E+03 0.  0.
         25    1    3    3    0    0 -0.20463975016E+02 -0.56011077672E+01 -0.10357115869E+03  0.16378229359E+03  0.12509000000E+03 0.  0.
         25    1    4    4    0    0 -0.13046742097E+02  0.16294316665E+02  0.61712067594E+02  0.14103761775E+03  0.12509000000E+03 0.  0.
<mgrwt>
<rscale>  2 0.43272867E+03</rscale>
<asrwt>0</asrwt>
<pdfrwt beam="1">  1       21 0.28879937E-01 0.43272867E+03</pdfrwt>
<pdfrwt beam="2">  1       21 0.35055591E-01 0.43272867E+03</pdfrwt>
<totfact> 0.84021113E+04</totfact>
</mgrwt>
</event>
<event>
 7    0  0.4779893E-002  0.4212549E+03  0.7546771E-02  0.1036659E+00
         21   -1    0    0  502  501  0.00000000000E+00  0.00000000000E+00  0.45663128865E+03  0.45663128865E+03  0.00000000000E+00 0.  1.
         21   -1    0    0  501  502 -0.00000000000E+00 -0.00000000000E+00 -0.97154793001E+02  0.97154793001E+02  0.00000000000E+00 0.  1.
      99926    2    1    2    0    0  0.71054273576E-14  0.00000000000E+00  0.35947649564E+03  0.55378608165E+03  0.42125487927E+03 0.  0.
      99925    2    3    3    0    0  0.61606373788E+02 -0.36285751949E+02  0.19496358589E+03  0.33509907549E+03  0.26299921955E+03 0.  0.
         25    1    4    4    0    0  0.30261956224E+01 -0.35902139228E+02  0.65249936749E+02  0.14561313061E+03  0.12509000000E+03 0.  0.
         25    1    3    3    0    0 -0.61606373788E+02  0.36285751949E+02  0.16451290975E+03  0.21868700615E+03  0.12509000000E+03 0.  0.
         25    1    4    4    0    0  0.58580178165E+02 -0.38361272052E+00  0.12971364914E+03  0.18948594488E+03  0.12509000000E+03 0.  0.
<mgrwt>
<rscale>  2 0.42125488E+03</rscale>
<asrwt>0</asrwt>
<pdfrwt beam="1">  1       21 0.67151659E-01 0.42125488E+03</pdfrwt>
<pdfrwt beam="2">  1       21 0.14287470E-01 0.42125488E+03</pdfrwt>
<totfact> 0.81223895E+04</totfact>
</mgrwt>
</event>
<event>
 7    0  0.4779893E-002  0.4618506E+03  0.7546771E-02  0.1024246E+00
         21   -1    0    0  502  501  0.00000000000E+00  0.00000000000E+00  0.20872029098E+03  0.20872029098E+03  0.00000000000E+00 0.  1.
         21   -1    0    0  501  502 -0.00000000000E+00 -0.00000000000E+00 -0.25549264022E+03  0.25549264022E+03  0.00000000000E+00 0.  1.
      99926    2    1    2    0    0 -0.22204460493E-15 -0.14210854715E-13 -0.46772349242E+02  0.46421293121E+03  0.46185061746E+03 0.  0.
      99925    2    3    3    0    0  0.11232166031E+01 -0.10559277359E+03  0.26914928674E+02  0.28469017923E+03  0.26300758414E+03 0.  0.
         25    1    3    3    0    0 -0.11232166031E+01  0.10559277359E+03 -0.73687277916E+02  0.17952275198E+03  0.12509000000E+03 0.  0.
         25    1    4    4    0    0  0.54838147123E+01 -0.21948790110E+02 -0.16071656048E+02  0.12813129141E+03  0.12509000000E+03 0.  0.
         25    1    4    4    0    0 -0.43605981092E+01 -0.83643983482E+02  0.42986584722E+02  0.15655888782E+03  0.12509000000E+03 0.  0.
<mgrwt>
<rscale>  2 0.46185062E+03</rscale>
<asrwt>0</asrwt>
<pdfrwt beam="1">  1       21 0.30694160E-01 0.46185062E+03</pdfrwt>
<pdfrwt beam="2">  1       21 0.37572447E-01 0.46185062E+03</pdfrwt>
<totfact> 0.64289587E+04</totfact>
</mgrwt>
</event>
<event>
 7    0  0.4779893E-002  0.4327363E+03  0.7546771E-02  0.1032999E+00
         21   -1    0    0  502  501  0.00000000000E+00  0.00000000000E+00  0.16573311395E+03  0.16573311395E+03  0.00000000000E+00 0. -1.
         21   -1    0    0  501  502 -0.00000000000E+00 -0.00000000000E+00 -0.28247331066E+03  0.28247331066E+03  0.00000000000E+00 0. -1.
      99926    2    1    2    0    0  0.00000000000E+00 -0.35527136788E-14 -0.11674019671E+03  0.44820642461E+03  0.43273632334E+03 0.  0.
      99925    2    3    3    0    0  0.84852312679E+02 -0.29600899743E+02 -0.86976106033E+02  0.29133215194E+03  0.26312250284E+03 0.  0.
         25    1    3    3    0    0 -0.84852312679E+02  0.29600899743E+02 -0.29764090675E+02  0.15687427267E+03  0.12509000000E+03 0.  0.
         25    1    4    4    0    0  0.73030777544E+02 -0.44052568675E+02 -0.42290916655E+02  0.15719463415E+03  0.12509000000E+03 0.  0.
         25    1    4    4    0    0  0.11821535135E+02  0.14451668932E+02 -0.44685189378E+02  0.13413751779E+03  0.12509000000E+03 0.  0.
<mgrwt>
<rscale>  2 0.43273632E+03</rscale>
<asrwt>0</asrwt>
<pdfrwt beam="1">  1       21 0.24372517E-01 0.43273632E+03</pdfrwt>
<pdfrwt beam="2">  1       21 0.41540193E-01 0.43273632E+03</pdfrwt>
<totfact> 0.82771123E+04</totfact>
</mgrwt>
</event>
<event>
 7    0  0.4779893E-002  0.4503210E+03  0.7546771E-02  0.1027626E+00
         21   -1    0    0  502  501  0.00000000000E+00  0.00000000000E+00  0.11026487339E+03  0.11026487339E+03  0.00000000000E+00 0. -1.
         21   -1    0    0  501  502 -0.00000000000E+00 -0.00000000000E+00 -0.45977694657E+03  0.45977694657E+03  0.00000000000E+00 0. -1.
      99926    2    1    2    0    0  0.00000000000E+00  0.00000000000E+00 -0.34951207318E+03  0.57004181996E+03  0.45032098242E+03 0.  0.
      99925    2    3    3    0    0  0.55398093584E+02  0.86400566241E+02 -0.17486184579E+03  0.33195734620E+03  0.26284027082E+03 0.  0.
         25    1    4    4    0    0  0.41417469674E+02  0.37519533700E+02 -0.43937492542E+02  0.14387888502E+03  0.12509000000E+03 0.  0.
         25    1    3    3    0    0 -0.55398093584E+02 -0.86400566241E+02 -0.17465022739E+03  0.23808447376E+03  0.12509000000E+03 0.  0.
         25    1    4    4    0    0  0.13980623911E+02  0.48881032541E+02 -0.13092435325E+03  0.18807846118E+03  0.12509000000E+03 0.  0.
<mgrwt>
<rscale>  2 0.45032098E+03</rscale>
<asrwt>0</asrwt>
<pdfrwt beam="1">  1       21 0.16215423E-01 0.45032098E+03</pdfrwt>
<pdfrwt beam="2">  1       21 0.67614256E-01 0.45032098E+03</pdfrwt>
<totfact> 0.62854803E+04</totfact>
</mgrwt>
</event>
<event>
 7    0  0.4779893E-002  0.4502808E+03  0.7546771E-02  0.1027638E+00
         21   -1    0    0  502  501  0.00000000000E+00  0.00000000000E+00  0.58302618964E+02  0.58302618964E+02  0.00000000000E+00 0.  1.
         21   -1    0    0  501  502 -0.00000000000E+00 -0.00000000000E+00 -0.86939826515E+03  0.86939826515E+03  0.00000000000E+00 0.  1.
      99926    2    1    2    0    0  0.14210854715E-13  0.71054273576E-14 -0.81109564619E+03  0.92770088412E+03  0.45028078254E+03 0.  0.
      99925    2    3    3    0    0 -0.99386480612E+02 -0.41184206183E+02 -0.48138368541E+03  0.55901226679E+03  0.26304115737E+03 0.  0.
         25    1    4    4    0    0 -0.32674341957E+02 -0.57327837498E+02 -0.23298869000E+03  0.27255335504E+03  0.12509000000E+03 0.  0.
         25    1    3    3    0    0  0.99386480612E+02  0.41184206183E+02 -0.32971196078E+03  0.36868861733E+03  0.12509000000E+03 0.  0.
         25    1    4    4    0    0 -0.66712138655E+02  0.16143631315E+02 -0.24839499541E+03  0.28645891175E+03  0.12509000000E+03 0.  0.
<mgrwt>
<rscale>  2 0.45028078E+03</rscale>
<asrwt>0</asrwt>
<pdfrwt beam="1">  1       21 0.85739147E-02 0.45028078E+03</pdfrwt>
<pdfrwt beam="2">  1       21 0.12785268E+00 0.45028078E+03</pdfrwt>
<totfact> 0.43646173E+04</totfact>
</mgrwt>
</event>
<event>
 6    0  0.4779893E-002  0.4471877E+03  0.7546771E-02  0.1028564E+00
         21   -1    0    0  502  501  0.00000000000E+00  0.00000000000E+00  0.60354300616E+02  0.60354300616E+02  0.00000000000E+00 0.  1.
         21   -1    0    0  501  502 -0.00000000000E+00 -0.00000000000E+00 -0.82834560103E+03  0.82834560103E+03  0.00000000000E+00 0.  1.
      99926    2    1    2    0    0 -0.35527136788E-14  0.14210854715E-13 -0.76799130042E+03  0.88869990165E+03  0.44718774321E+03 0.  0.
         25    1    3    3    0    0  0.26893022387E+02 -0.55987597240E+02 -0.41101212700E+03  0.43409252739E+03  0.12509000000E+03 0.  0.
         25    1    3    3    0    0  0.32830715331E+01 -0.25041635629E+02 -0.18869092300E+03  0.22779296432E+03  0.12509000000E+03 0.  0.
         25    1    3    3    0    0 -0.30176093920E+02  0.81029232868E+02 -0.16828825042E+03  0.22681440993E+03  0.12509000000E+03 0.  0.
<mgrwt>
<rscale>  2 0.44718774E+03</rscale>
<asrwt>0</asrwt>
<pdfrwt beam="1">  1       21 0.88756328E-02 0.44718774E+03</pdfrwt>
<pdfrwt beam="2">  1       21 0.12181552E+00 0.44718774E+03</pdfrwt>
<totfact> 0.46506181E+04</totfact>
</mgrwt>
</event>
<event>
 7    0  0.4779893E-002  0.4610976E+03  0.7546771E-02  0.1024463E+00
         21   -1    0    0  502  501  0.00000000000E+00  0.00000000000E+00  0.50796920989E+02  0.50796920989E+02  0.00000000000E+00 0. -1.
         21   -1    0    0  501  502 -0.00000000000E+00 -0.00000000000E+00 -0.10463774388E+04  0.10463774388E+04  0.00000000000E+00 0. -1.
      99926    2    1    2    0    0  0.00000000000E+00  0.00000000000E+00 -0.99558051785E+03  0.10971743598E+04  0.46109761260E+03 0.  0.
      99925    2    3    3    0    0  0.77956586580E+02  0.67887824560E+02 -0.48376845114E+03  0.56025249788E+03  0.26299232107E+03 0.  0.
         25    1    4    4    0    0 -0.32863938852E+01  0.32316639653E+02 -0.22128729167E+03  0.25626302725E+03  0.12509000000E+03 0.  0.
         25    1    3    3    0    0 -0.77956586580E+02 -0.67887824560E+02 -0.51181206671E+03  0.53692186196E+03  0.12509000000E+03 0.  0.
         25    1    4    4    0    0  0.81242980465E+02  0.35571184907E+02 -0.26248115947E+03  0.30398947062E+03  0.12509000000E+03 0.  0.
<mgrwt>
<rscale>  2 0.46109761E+03</rscale>
<asrwt>0</asrwt>
<pdfrwt beam="1">  1       21 0.74701356E-02 0.46109761E+03</pdfrwt>
<pdfrwt beam="2">  1       21 0.15387903E+00 0.46109761E+03</pdfrwt>
<totfact> 0.33948497E+04</totfact>
</mgrwt>
</event>
<event>
 7    0  0.4779893E-002  0.4581796E+03  0.7546771E-02  0.1025311E+00
         21   -1    0    0  502  501  0.00000000000E+00  0.00000000000E+00  0.48560022638E+03  0.48560022638E+03  0.00000000000E+00 0. -1.
         21   -1    0    0  501  502 -0.00000000000E+00 -0.00000000000E+00 -0.10807682999E+03  0.10807682999E+03  0.00000000000E+00 0. -1.
      99926    2    1    2    0    0  0.00000000000E+00  0.00000000000E+00  0.37752339639E+03  0.59367705637E+03  0.45817958537E+03 0.  0.
      99925    2    3    3    0    0 -0.78590403837E+02  0.42505748101E+02  0.14073552082E+03  0.31136659551E+03  0.26298190011E+03 0.  0.
         25    1    4    4    0    0 -0.33603769730E+02  0.55408178174E+02  0.96151587903E+02  0.17056352337E+03  0.12509000000E+03 0.  0.
         25    1    3    3    0    0  0.78590403837E+02 -0.42505748101E+02  0.23678787557E+03  0.28231046086E+03  0.12509000000E+03 0.  0.
         25    1    4    4    0    0 -0.44986634107E+02 -0.12902430073E+02  0.44583932919E+02  0.14080307214E+03  0.12509000000E+03 0.  0.
<mgrwt>
<rscale>  2 0.45817959E+03</rscale>
<asrwt>0</asrwt>
<pdfrwt beam="1">  1       21 0.71411797E-01 0.45817959E+03</pdfrwt>
<pdfrwt beam="2">  1       21 0.15893652E-01 0.45817959E+03</pdfrwt>
<totfact> 0.57607902E+04</totfact>
</mgrwt>
</event>
<event>
 7    0  0.4779893E-002  0.4551429E+03  0.7546771E-02  0.1026199E+00
         21   -1    0    0  502  501  0.00000000000E+00  0.00000000000E+00  0.34658436166E+03  0.34658436166E+03  0.00000000000E+00 0.  1.
         21   -1    0    0  501  502 -0.00000000000E+00 -0.00000000000E+00 -0.14942614977E+03  0.14942614977E+03  0.00000000000E+00 0.  1.
      99926    2    1    2    0    0  0.00000000000E+00  0.00000000000E+00  0.19715821189E+03  0.49601051143E+03  0.45514290825E+03 0.  0.
      99925    2    3    3    0    0 -0.46827240138E+02 -0.10236176142E+03  0.13859659763E+03  0.31783169287E+03  0.26293962709E+03 0.  0.
         25    1    4    4    0    0 -0.61505250143E+02 -0.56352969696E+02  0.89866398692E+02  0.17516286907E+03  0.12509000000E+03 0.  0.
         25    1    4    4    0    0  0.14678010005E+02 -0.46008791720E+02  0.48730198941E+02  0.14266882379E+03  0.12509000000E+03 0.  0.
         25    1    3    3    0    0  0.46827240138E+02  0.10236176142E+03  0.58561614261E+02  0.17817881856E+03  0.12509000000E+03 0.  0.
<mgrwt>
<rscale>  2 0.45514291E+03</rscale>
<asrwt>0</asrwt>
<pdfrwt beam="1">  1       21 0.50968288E-01 0.45514291E+03</pdfrwt>
<pdfrwt beam="2">  1       21 0.21974434E-01 0.45514291E+03</pdfrwt>
<totfact> 0.65477535E+04</totfact>
</mgrwt>
</event>
<event>
 7    0  0.4779893E-002  0.4530470E+03  0.7546771E-02  0.1026817E+00
         21   -1    0    0  502  501  0.00000000000E+00  0.00000000000E+00  0.46594977305E+03  0.46594977305E+03  0.00000000000E+00 0.  1.
         21   -1    0    0  501  502 -0.00000000000E+00 -0.00000000000E+00 -0.11012536602E+03  0.11012536602E+03  0.00000000000E+00 0.  1.
      99926    2    1    2    0    0  0.00000000000E+00 -0.71054273576E-14  0.35582440703E+03  0.57607513907E+03  0.45304697021E+03 0.  0.
      99925    2    3    3    0    0  0.93452144015E+02  0.30980655029E+02  0.15852595013E+03  0.32256519173E+03  0.26310591374E+03 0.  0.
         25    1    3    3    0    0 -0.93452144015E+02 -0.30980655029E+02  0.19729845690E+03  0.25350994734E+03  0.12509000000E+03 0.  0.
         25    1    4    4    0    0  0.64797873805E+02  0.46721554666E+02  0.10885119461E+03  0.18405911765E+03  0.12509000000E+03 0.  0.
         25    1    4    4    0    0  0.28654270210E+02 -0.15740899637E+02  0.49674755518E+02  0.13850607409E+03  0.12509000000E+03 0.  0.
<mgrwt>
<rscale>  2 0.45304697E+03</rscale>
<asrwt>0</asrwt>
<pdfrwt beam="1">  1       21 0.68522025E-01 0.45304697E+03</pdfrwt>
<pdfrwt beam="2">  1       21 0.16194907E-01 0.45304697E+03</pdfrwt>
<totfact> 0.61113858E+04</totfact>
</mgrwt>
</event>
<event>
 7    0  0.4779893E-002  0.4568572E+03  0.7546771E-02  0.1025697E+00
         21   -1    0    0  502  501  0.00000000000E+00  0.00000000000E+00  0.39405684361E+03  0.39405684361E+03  0.00000000000E+00 0.  1.
         21   -1    0    0  501  502 -0.00000000000E+00 -0.00000000000E+00 -0.13241651971E+03  0.13241651971E+03  0.00000000000E+00 0.  1.
      99926    2    1    2    0    0  0.71054273576E-14  0.00000000000E+00  0.26164032389E+03  0.52647336332E+03  0.45685724597E+03 0.  0.
      99925    2    3    3    0    0 -0.43663588730E+02  0.92749363297E+02  0.22531133915E+03  0.36071372829E+03  0.26237423817E+03 0.  0.
         25    1    4    4    0    0 -0.38387288686E+02  0.41040586151E+02  0.15877004811E+03  0.20979358885E+03  0.12509000000E+03 0.  0.
         25    1    3    3    0    0  0.43663588730E+02 -0.92749363297E+02  0.36328984742E+02  0.16575963503E+03  0.12509000000E+03 0.  0.
         25    1    4    4    0    0 -0.52763000443E+01  0.51708777147E+02  0.66541291039E+02  0.15092013944E+03  0.12509000000E+03 0.  0.
<mgrwt>
<rscale>  2 0.45685725E+03</rscale>
<asrwt>0</asrwt>
<pdfrwt beam="1">  1       21 0.57949535E-01 0.45685725E+03</pdfrwt>
<pdfrwt beam="2">  1       21 0.19473018E-01 0.45685725E+03</pdfrwt>
<totfact> 0.62520339E+04</totfact>
</mgrwt>
</event>
<event>
 7    0  0.4779893E-002  0.4590941E+03  0.7546771E-02  0.1025044E+00
         21   -1    0    0  502  501  0.00000000000E+00  0.00000000000E+00  0.38068664167E+03  0.38068664167E+03  0.00000000000E+00 0.  1.
         21   -1    0    0  501  502 -0.00000000000E+00 -0.00000000000E+00 -0.13841262874E+03  0.13841262874E+03  0.00000000000E+00 0.  1.
      99926    2    1    2    0    0  0.00000000000E+00  0.00000000000E+00  0.24227401293E+03  0.51909927040E+03  0.45909405920E+03 0.  0.
      99925    2    3    3    0    0  0.72973090489E+02 -0.62957104619E+02  0.77556343250E+02  0.29091494193E+03  0.26330181940E+03 0.  0.
         25    1    4    4    0    0  0.28692426034E+02 -0.66163676558E+02  0.62474313349E+02  0.15732588896E+03  0.12509000000E+03 0.  0.
         25    1    4    4    0    0  0.44280664455E+02  0.32065719382E+01  0.15082029901E+02  0.13358905297E+03  0.12509000000E+03 0.  0.
         25    1    3    3    0    0 -0.72973090489E+02  0.62957104619E+02  0.16471766968E+03  0.22818432848E+03  0.12509000000E+03 0.  0.
<mgrwt>
<rscale>  2 0.45909406E+03</rscale>
<asrwt>0</asrwt>
<pdfrwt beam="1">  1       21 0.55983329E-01 0.45909406E+03</pdfrwt>
<pdfrwt beam="2">  1       21 0.20354798E-01 0.45909406E+03</pdfrwt>
<totfact> 0.61912869E+04</totfact>
</mgrwt>
</event>
<event>
 7    0  0.4779893E-002  0.4460969E+03  0.7546771E-02  0.1028892E+00
         21   -1    0    0  502  501  0.00000000000E+00  0.00000000000E+00  0.19414038671E+03  0.19414038671E+03  0.00000000000E+00 0.  1.
         21   -1    0    0  501  502 -0.00000000000E+00 -0.00000000000E+00 -0.25626100886E+03  0.25626100886E+03  0.00000000000E+00 0.  1.
      99926    2    1    2    0    0 -0.14210854715E-13 -0.71054273576E-14 -0.62120622143E+02  0.45040139557E+03  0.44609690140E+03 0.  0.
      99925    2    3    3    0    0 -0.98403881705E+02 -0.34320285671E+02 -0.30882036888E+02  0.28461670613E+03  0.26304327261E+03 0.  0.
         25    1    4    4    0    0 -0.89348544834E+02 -0.17907793742E+02 -0.15337086229E+01  0.15476986755E+03  0.12509000000E+03 0.  0.
         25    1    3    3    0    0  0.98403881705E+02  0.34320285671E+02 -0.31238585255E+02  0.16578468944E+03  0.12509000000E+03 0.  0.
         25    1    4    4    0    0 -0.90553368710E+01 -0.16412491929E+02 -0.29348328265E+02  0.12984683858E+03  0.12509000000E+03 0.  0.
<mgrwt>
<rscale>  2 0.44609690E+03</rscale>
<asrwt>0</asrwt>
<pdfrwt beam="1">  1       21 0.28550057E-01 0.44609690E+03</pdfrwt>
<pdfrwt beam="2">  1       21 0.37685442E-01 0.44609690E+03</pdfrwt>
<totfact> 0.74002041E+04</totfact>
</mgrwt>
</event>
<event>
 7    0  0.4779893E-002  0.4534950E+03  0.7546771E-02  0.1026685E+00
         21   -1    0    0  502  501  0.00000000000E+00  0.00000000000E+00  0.29181548042E+03  0.29181548042E+03  0.00000000000E+00 0.  1.
         21   -1    0    0  501  502 -0.00000000000E+00 -0.00000000000E+00 -0.17618816631E+03  0.17618816631E+03  0.00000000000E+00 0.  1.
      99926    2    1    2    0    0  0.00000000000E+00  0.71054273576E-14  0.11562731411E+03  0.46800364673E+03  0.45349502488E+03 0.  0.
      99925    2    3    3    0    0  0.68592837920E+02 -0.52414497564E+02 -0.50121454005E+00  0.27673002013E+03  0.26292013208E+03 0.  0.
         25    1    4    4    0    0  0.33066472337E+02 -0.64263182798E+02  0.14972663072E+02  0.14524061758E+03  0.12509000000E+03 0.  0.
         25    1    4    4    0    0  0.35526365584E+02  0.11848685234E+02 -0.15473877612E+02  0.13148940255E+03  0.12509000000E+03 0.  0.
         25    1    3    3    0    0 -0.68592837920E+02  0.52414497564E+02  0.11612852865E+03  0.19127362661E+03  0.12509000000E+03 0.  0.
<mgrwt>
<rscale>  2 0.45349502E+03</rscale>
<asrwt>0</asrwt>
<pdfrwt beam="1">  1       21 0.42914042E-01 0.45349502E+03</pdfrwt>
<pdfrwt beam="2">  1       21 0.25910024E-01 0.45349502E+03</pdfrwt>
<totfact> 0.68397437E+04</totfact>
</mgrwt>
</event>
<event>
 7    0  0.4779893E-002  0.4264130E+03  0.7546771E-02  0.1034999E+00
         21   -1    0    0  502  501  0.00000000000E+00  0.00000000000E+00  0.19526217322E+03  0.19526217322E+03  0.00000000000E+00 0. -1.
         21   -1    0    0  501  502 -0.00000000000E+00 -0.00000000000E+00 -0.23279991419E+03  0.23279991419E+03  0.00000000000E+00 0. -1.
      99926    2    1    2    0    0  0.00000000000E+00  0.00000000000E+00 -0.37537740975E+02  0.42806208741E+03  0.42641302592E+03 0.  0.
      99925    2    3    3    0    0  0.28900002558E+02  0.72763026836E+02 -0.53525613652E+02  0.27962762916E+03  0.26305313427E+03 0.  0.
         25    1    4    4    0    0  0.46747877397E+02  0.62142088181E+02 -0.35935748813E+02  0.15161098017E+03  0.12509000000E+03 0.  0.
         25    1    3    3    0    0 -0.28900002558E+02 -0.72763026836E+02  0.15987872677E+02  0.14843445825E+03  0.12509000000E+03 0.  0.
         25    1    4    4    0    0 -0.17847874839E+02  0.10620938654E+02 -0.17589864840E+02  0.12801664899E+03  0.12509000000E+03 0.  0.
<mgrwt>
<rscale>  2 0.42641303E+03</rscale>
<asrwt>0</asrwt>
<pdfrwt beam="1">  1       21 0.28715026E-01 0.42641303E+03</pdfrwt>
<pdfrwt beam="2">  1       21 0.34235281E-01 0.42641303E+03</pdfrwt>
<totfact> 0.89250865E+04</totfact>
</mgrwt>
</event>
<event>
 7    0  0.4779893E-002  0.4597488E+03  0.7546771E-02  0.1024854E+00
         21   -1    0    0  502  501  0.00000000000E+00  0.00000000000E+00  0.28984045986E+03  0.28984045986E+03  0.00000000000E+00 0. -1.
         21   -1    0    0  501  502 -0.00000000000E+00 -0.00000000000E+00 -0.18231489983E+03  0.18231489983E+03  0.00000000000E+00 0. -1.
      99926    2    1    2    0    0  0.00000000000E+00  0.14210854715E-13  0.10752556003E+03  0.47215535968E+03  0.45974877664E+03 0.  0.
      99925    2    3    3    0    0  0.28381768380E+02  0.11178408427E+03  0.44568573818E+02  0.29073789502E+03  0.26313676967E+03 0.  0.
         25    1    4    4    0    0  0.13357087233E+02  0.83640416743E+02  0.56056847262E+02  0.16113351395E+03  0.12509000000E+03 0.  0.
         25    1    3    3    0    0 -0.28381768380E+02 -0.11178408427E+03  0.62956986212E+02  0.18141746467E+03  0.12509000000E+03 0.  0.
         25    1    4    4    0    0  0.15024681146E+02  0.28143667532E+02 -0.11488273444E+02  0.12960438107E+03  0.12509000000E+03 0.  0.
<mgrwt>
<rscale>  2 0.45974878E+03</rscale>
<asrwt>0</asrwt>
<pdfrwt beam="1">  1       21 0.42623597E-01 0.45974878E+03</pdfrwt>
<pdfrwt beam="2">  1       21 0.26811015E-01 0.45974878E+03</pdfrwt>
<totfact> 0.64800204E+04</totfact>
</mgrwt>
</event>
<event>
 7    0  0.4779893E-002  0.4515308E+03  0.7546771E-02  0.1027267E+00
         21   -1    0    0  502  501  0.00000000000E+00  0.00000000000E+00  0.38257541491E+03  0.38257541491E+03  0.00000000000E+00 0.  1.
         21   -1    0    0  501  502 -0.00000000000E+00 -0.00000000000E+00 -0.13322867098E+03  0.13322867098E+03  0.00000000000E+00 0.  1.
      99926    2    1    2    0    0 -0.71054273576E-14 -0.14210854715E-13  0.24934674393E+03  0.51580408589E+03  0.45153079221E+03 0.  0.
      99925    2    3    3    0    0 -0.42740263351E+02 -0.84930912573E+02  0.22024955526E+03  0.35601001682E+03  0.26304614702E+03 0.  0.
         25    1    3    3    0    0  0.42740263351E+02  0.84930912573E+02  0.29097188672E+02  0.15979406907E+03  0.12509000000E+03 0.  0.
         25    1    4    4    0    0 -0.18146773921E+02 -0.11474041166E+02  0.66823904965E+02  0.14343605334E+03  0.12509000000E+03 0.  0.
         25    1    4    4    0    0 -0.24593489430E+02 -0.73456871407E+02  0.15342565029E+03  0.21257396347E+03  0.12509000000E+03 0.  0.
<mgrwt>
<rscale>  2 0.45153079E+03</rscale>
<asrwt>0</asrwt>
<pdfrwt beam="1">  1       21 0.56261090E-01 0.45153079E+03</pdfrwt>
<pdfrwt beam="2">  1       21 0.19592452E-01 0.45153079E+03</pdfrwt>
<totfact> 0.65971346E+04</totfact>
</mgrwt>
</event>
<event>
 7    0  0.4779893E-002  0.4600837E+03  0.7546771E-02  0.1024757E+00
         21   -1    0    0  502  501  0.00000000000E+00  0.00000000000E+00  0.51280847764E+03  0.51280847764E+03  0.00000000000E+00 0. -1.
         21   -1    0    0  501  502 -0.00000000000E+00 -0.00000000000E+00 -0.10319494536E+03  0.10319494536E+03  0.00000000000E+00 0. -1.
      99926    2    1    2    0    0  0.00000000000E+00  0.35527136788E-14  0.40961353227E+03  0.61600342300E+03  0.46008365688E+03 0.  0.
      99925    2    3    3    0    0  0.47827772520E+02  0.27835500258E+02  0.11621517759E+03  0.29228685943E+03  0.26241823449E+03 0.  0.
         25    1    3    3    0    0 -0.47827772520E+02 -0.27835500258E+02  0.29339835468E+03  0.32371656357E+03  0.12509000000E+03 0.  0.
         25    1    4    4    0    0  0.22500495586E+02  0.37327323698E+02  0.24191971137E+02  0.13465645534E+03  0.12509000000E+03 0.  0.
         25    1    4    4    0    0  0.25327276934E+02 -0.94918234399E+01  0.92023206453E+02  0.15763040409E+03  0.12509000000E+03 0.  0.
<mgrwt>
<rscale>  2 0.46008366E+03</rscale>
<asrwt>0</asrwt>
<pdfrwt beam="1">  1       21 0.75413010E-01 0.46008366E+03</pdfrwt>
<pdfrwt beam="2">  1       21 0.15175727E-01 0.46008366E+03</pdfrwt>
<totfact> 0.55444071E+04</totfact>
</mgrwt>
</event>
<event>
 7    0  0.4779893E-002  0.4541131E+03  0.7546771E-02  0.1026503E+00
         21   -1    0    0  502  501  0.00000000000E+00  0.00000000000E+00  0.60282189278E+03  0.60282189278E+03  0.00000000000E+00 0. -1.
         21   -1    0    0  501  502 -0.00000000000E+00 -0.00000000000E+00 -0.85522239630E+02  0.85522239630E+02  0.00000000000E+00 0. -1.
      99926    2    1    2    0    0  0.00000000000E+00  0.00000000000E+00  0.51729965315E+03  0.68834413241E+03  0.45411310648E+03 0.  0.
      99925    2    3    3    0    0  0.34227919900E+02  0.95503809138E+02  0.39892946147E+03  0.48846532303E+03  0.26298503477E+03 0.  0.
         25    1    4    4    0    0 -0.17914679311E+02  0.49321273818E+02  0.23001288229E+03  0.26703362692E+03  0.12509000000E+03 0.  0.
         25    1    4    4    0    0  0.52142599212E+02  0.46182535320E+02  0.16891657918E+03  0.22143169611E+03  0.12509000000E+03 0.  0.
         25    1    3    3    0    0 -0.34227919900E+02 -0.95503809138E+02  0.11837019168E+03  0.19987880938E+03  0.12509000000E+03 0.  0.
<mgrwt>
<rscale>  2 0.45411311E+03</rscale>
<asrwt>0</asrwt>
<pdfrwt beam="1">  1       21 0.88650276E-01 0.45411311E+03</pdfrwt>
<pdfrwt beam="2">  1       21 0.12576800E-01 0.45411311E+03</pdfrwt>
<totfact> 0.53915967E+04</totfact>
</mgrwt>
</event>
<event>
 7    0  0.4779893E-002  0.4465037E+03  0.7546771E-02  0.1028770E+00
         21   -1    0    0  502  501  0.00000000000E+00  0.00000000000E+00  0.81453033841E+03  0.81453033841E+03  0.00000000000E+00 0. -1.
         21   -1    0    0  501  502 -0.00000000000E+00 -0.00000000000E+00 -0.61190348325E+02  0.61190348325E+02  0.00000000000E+00 0. -1.
      99926    2    1    2    0    0  0.00000000000E+00  0.00000000000E+00  0.75333999009E+03  0.87572068673E+03  0.44650372956E+03 0.  0.
      99925    2    3    3    0    0 -0.68594105144E+02  0.30920957105E+02  0.33519152230E+03  0.43282464243E+03  0.26329177280E+03 0.  0.
         25    1    4    4    0    0  0.26537614910E+01  0.89935511706E+01  0.18600784620E+03  0.22435318888E+03  0.12509000000E+03 0.  0.
         25    1    3    3    0    0  0.68594105144E+02 -0.30920957105E+02  0.41814846779E+03  0.44289604430E+03  0.12509000000E+03 0.  0.
         25    1    4    4    0    0 -0.71247866635E+02  0.21927405934E+02  0.14918367610E+03  0.20847145355E+03  0.12509000000E+03 0.  0.
<mgrwt>
<rscale>  2 0.44650373E+03</rscale>
<asrwt>0</asrwt>
<pdfrwt beam="1">  1       21 0.11978387E+00 0.44650373E+03</pdfrwt>
<pdfrwt beam="2">  1       21 0.89985811E-02 0.44650373E+03</pdfrwt>
<totfact> 0.47374948E+04</totfact>
</mgrwt>
</event>
<event>
 7    0  0.4779893E-002  0.5114263E+03  0.7546771E-02  0.1010839E+00
         21   -1    0    0  502  501  0.00000000000E+00  0.00000000000E+00  0.24988657574E+03  0.24988657574E+03  0.00000000000E+00 0.  1.
         21   -1    0    0  501  502 -0.00000000000E+00 -0.00000000000E+00 -0.26167554983E+03  0.26167554983E+03  0.00000000000E+00 0.  1.
      99926    2    1    2    0    0  0.00000000000E+00 -0.14210854715E-13 -0.11788974084E+02  0.51156212557E+03  0.51142626879E+03 0.  0.
      99925    2    3    3    0    0 -0.11051533759E+03  0.69452562945E+02 -0.10032405862E+03  0.31025820699E+03  0.26297897240E+03 0.  0.
         25    1    4    4    0    0 -0.84628167292E+02  0.43163540382E+02 -0.23299571601E+02  0.15879356427E+03  0.12509000000E+03 0.  0.
         25    1    4    4    0    0 -0.25887170298E+02  0.26289022563E+02 -0.77024487018E+02  0.15146464272E+03  0.12509000000E+03 0.  0.
         25    1    3    3    0    0  0.11051533759E+03 -0.69452562945E+02  0.88535084535E+02  0.20130391858E+03  0.12509000000E+03 0.  0.
<mgrwt>
<rscale>  2 0.51142627E+03</rscale>
<asrwt>0</asrwt>
<pdfrwt beam="1">  1       21 0.36748026E-01 0.51142627E+03</pdfrwt>
<pdfrwt beam="2">  1       21 0.38481698E-01 0.51142627E+03</pdfrwt>
<totfact> 0.42162018E+04</totfact>
</mgrwt>
</event>
<event>
 7    0  0.4779893E-002  0.4522858E+03  0.7546771E-02  0.1027043E+00
         21   -1    0    0  502  501  0.00000000000E+00  0.00000000000E+00  0.56348373089E+03  0.56348373089E+03  0.00000000000E+00 0. -1.
         21   -1    0    0  501  502 -0.00000000000E+00 -0.00000000000E+00 -0.90757928068E+02  0.90757928068E+02  0.00000000000E+00 0. -1.
      99926    2    1    2    0    0 -0.14210854715E-13  0.00000000000E+00  0.47272580282E+03  0.65424165896E+03  0.45228582076E+03 0.  0.
      99925    2    3    3    0    0 -0.88680879139E+02 -0.45522189061E+02  0.23027973426E+03  0.36378654662E+03  0.26339196546E+03 0.  0.
         25    1    4    4    0    0 -0.75585701095E+02  0.11845282226E+01  0.10257978305E+03  0.17856293375E+03  0.12509000000E+03 0.  0.
         25    1    4    4    0    0 -0.13095178044E+02 -0.46706717284E+02  0.12769995121E+03  0.18522361287E+03  0.12509000000E+03 0.  0.
         25    1    3    3    0    0  0.88680879139E+02  0.45522189061E+02  0.24244606857E+03  0.29045511234E+03  0.12509000000E+03 0.  0.
<mgrwt>
<rscale>  2 0.45228582E+03</rscale>
<asrwt>0</asrwt>
<pdfrwt beam="1">  1       21 0.82865253E-01 0.45228582E+03</pdfrwt>
<pdfrwt beam="2">  1       21 0.13346754E-01 0.45228582E+03</pdfrwt>
<totfact> 0.56661115E+04</totfact>
</mgrwt>
</event>
<event>
 7    0  0.4779893E-002  0.4548775E+03  0.7546771E-02  0.1026277E+00
         21   -1    0    0  502  501  0.00000000000E+00  0.00000000000E+00  0.89964335364E+03  0.89964335364E+03  0.00000000000E+00 0. -1.
         21   -1    0    0  501  502 -0.00000000000E+00 -0.00000000000E+00 -0.57498768818E+02  0.57498768818E+02  0.00000000000E+00 0. -1.
      99926    2    1    2    0    0 -0.14210854715E-13  0.71054273576E-14  0.84214458482E+03  0.95714212246E+03  0.45487750091E+03 0.  0.
      99925    2    3    3    0    0 -0.10408921260E+03 -0.43703815763E+02  0.53942357614E+03  0.61068562463E+03  0.26308658258E+03 0.  0.
         25    1    3    3    0    0  0.10408921260E+03  0.43703815763E+02  0.30272100868E+03  0.34645649783E+03  0.12509000000E+03 0.  0.
         25    1    4    4    0    0 -0.31121815416E+02 -0.77272532633E+01  0.18011233832E+03  0.22162184087E+03  0.12509000000E+03 0.  0.
         25    1    4    4    0    0 -0.72967397189E+02 -0.35976562499E+02  0.35931123783E+03  0.38906378375E+03  0.12509000000E+03 0.  0.
<mgrwt>
<rscale>  2 0.45487750E+03</rscale>
<asrwt>0</asrwt>
<pdfrwt beam="1">  1       21 0.13230048E+00 0.45487750E+03</pdfrwt>
<pdfrwt beam="2">  1       21 0.84557019E-02 0.45487750E+03</pdfrwt>
<totfact> 0.40892123E+04</totfact>
</mgrwt>
</event>
<event>
 7    0  0.4779893E-002  0.5002742E+03  0.7546771E-02  0.1013707E+00
         21   -1    0    0  502  501  0.00000000000E+00  0.00000000000E+00  0.17017855844E+03  0.17017855844E+03  0.00000000000E+00 0. -1.
         21   -1    0    0  501  502 -0.00000000000E+00 -0.00000000000E+00 -0.36766417237E+03  0.36766417237E+03  0.00000000000E+00 0. -1.
      99926    2    1    2    0    0  0.00000000000E+00  0.00000000000E+00 -0.19748561393E+03  0.53784273081E+03  0.50027416021E+03 0.  0.
      99925    2    3    3    0    0 -0.56017445467E+02  0.24360278528E+02 -0.26917337006E+03  0.38126042068E+03  0.26300917828E+03 0.  0.
         25    1    4    4    0    0 -0.48091182101E+02 -0.22889016319E+02 -0.13034003959E+03  0.18834198386E+03  0.12509000000E+03 0.  0.
         25    1    4    4    0    0 -0.79262633660E+01  0.47249294848E+02 -0.13883333047E+03  0.19291843682E+03  0.12509000000E+03 0.  0.
         25    1    3    3    0    0  0.56017445467E+02 -0.24360278528E+02  0.71687756135E+02  0.15658231013E+03  0.12509000000E+03 0.  0.
<mgrwt>
<rscale>  2 0.50027416E+03</rscale>
<asrwt>0</asrwt>
<pdfrwt beam="1">  1       21 0.25026260E-01 0.50027416E+03</pdfrwt>
<pdfrwt beam="2">  1       21 0.54068259E-01 0.50027416E+03</pdfrwt>
<totfact> 0.44442918E+04</totfact>
</mgrwt>
</event>
<event>
 7    0  0.4779893E-002  0.4709638E+03  0.7546771E-02  0.1021649E+00
         21   -1    0    0  502  501  0.00000000000E+00  0.00000000000E+00  0.51746152473E+03  0.51746152473E+03  0.00000000000E+00 0. -1.
         21   -1    0    0  501  502 -0.00000000000E+00 -0.00000000000E+00 -0.10716107060E+03  0.10716107060E+03  0.00000000000E+00 0. -1.
      99926    2    1    2    0    0  0.28421709430E-13  0.00000000000E+00  0.41030045413E+03  0.62462259532E+03  0.47096382444E+03 0.  0.
      99925    2    3    3    0    0 -0.10504511716E+03  0.35867428877E+02  0.33798324675E+03  0.44241876529E+03  0.26302231788E+03 0.  0.
         25    1    4    4    0    0 -0.13169681846E+02 -0.30999054172E+00  0.13845482706E+03  0.18705823652E+03  0.12509000000E+03 0.  0.
         25    1    3    3    0    0  0.10504511716E+03 -0.35867428877E+02  0.72317207375E+02  0.18220383003E+03  0.12509000000E+03 0.  0.
         25    1    4    4    0    0 -0.91875435317E+02  0.36177419419E+02  0.19952841969E+03  0.25536052877E+03  0.12509000000E+03 0.  0.
<mgrwt>
<rscale>  2 0.47096382E+03</rscale>
<asrwt>0</asrwt>
<pdfrwt beam="1">  1       21 0.76097282E-01 0.47096382E+03</pdfrwt>
<pdfrwt beam="2">  1       21 0.15758981E-01 0.47096382E+03</pdfrwt>
<totfact> 0.50512807E+04</totfact>
</mgrwt>
</event>
<event>
 7    0  0.4779893E-002  0.4506122E+03  0.7546771E-02  0.1027540E+00
         21   -1    0    0  502  501  0.00000000000E+00  0.00000000000E+00  0.75842987175E+02  0.75842987175E+02  0.00000000000E+00 0.  1.
         21   -1    0    0  501  502 -0.00000000000E+00 -0.00000000000E+00 -0.66931483612E+03  0.66931483612E+03  0.00000000000E+00 0.  1.
      99926    2    1    2    0    0  0.00000000000E+00  0.00000000000E+00 -0.59347184895E+03  0.74515782330E+03  0.45061219039E+03 0.  0.
      99925    2    3    3    0    0 -0.75765098519E+02  0.75527889539E+02 -0.40887018471E+03  0.49783193547E+03  0.26309123089E+03 0.  0.
         25    1    4    4    0    0 -0.26430969796E+02  0.20219894539E+02 -0.13067136913E+03  0.18392921223E+03  0.12509000000E+03 0.  0.
         25    1    4    4    0    0 -0.49334128723E+02  0.55307995000E+02 -0.27819881558E+03  0.31390272324E+03  0.12509000000E+03 0.  0.
         25    1    3    3    0    0  0.75765098519E+02 -0.75527889539E+02 -0.18460166423E+03  0.24732588783E+03  0.12509000000E+03 0.  0.
<mgrwt>
<rscale>  2 0.45061219E+03</rscale>
<asrwt>0</asrwt>
<pdfrwt beam="1">  1       21 0.11153381E-01 0.45061219E+03</pdfrwt>
<pdfrwt beam="2">  1       21 0.98428645E-01 0.45061219E+03</pdfrwt>
<totfact> 0.52299399E+04</totfact>
</mgrwt>
</event>
<event>
 7    0  0.4779893E-002  0.4621967E+03  0.7546771E-02  0.1024146E+00
         21   -1    0    0  502  501  0.00000000000E+00  0.00000000000E+00  0.89894804718E+03  0.89894804718E+03  0.00000000000E+00 0. -1.
         21   -1    0    0  501  502 -0.00000000000E+00 -0.00000000000E+00 -0.59409940506E+02  0.59409940506E+02  0.00000000000E+00 0. -1.
      99926    2    1    2    0    0  0.00000000000E+00 -0.17763568394E-14  0.83953810667E+03  0.95835798769E+03  0.46219671137E+03 0.  0.
      99925    2    3    3    0    0  0.44570831125E+02 -0.10739356937E+02  0.29627450403E+03  0.39899697472E+03  0.26328332898E+03 0.  0.
         25    1    4    4    0    0  0.36608463188E+02 -0.36456759910E+02  0.11800396487E+03  0.17955979156E+03  0.12509000000E+03 0.  0.
         25    1    3    3    0    0 -0.44570831125E+02  0.10739356937E+02  0.54326360264E+03  0.55936101297E+03  0.12509000000E+03 0.  0.
         25    1    4    4    0    0  0.79623679365E+01  0.25717402974E+02  0.17827053916E+03  0.21943718316E+03  0.12509000000E+03 0.  0.
<mgrwt>
<rscale>  2 0.46219671E+03</rscale>
<asrwt>0</asrwt>
<pdfrwt beam="1">  1       21 0.13219823E+00 0.46219671E+03</pdfrwt>
<pdfrwt beam="2">  1       21 0.87367565E-02 0.46219671E+03</pdfrwt>
<totfact> 0.38586673E+04</totfact>
</mgrwt>
</event>
<event>
 7    0  0.4779893E-002  0.4553119E+03  0.7546771E-02  0.1026150E+00
         21   -1    0    0  502  501  0.00000000000E+00  0.00000000000E+00  0.22516565626E+02  0.22516565626E+02  0.00000000000E+00 0.  1.
         21   -1    0    0  501  502 -0.00000000000E+00 -0.00000000000E+00 -0.23017381413E+04  0.23017381413E+04  0.00000000000E+00 0.  1.
      99926    2    1    2    0    0  0.71054273576E-14  0.00000000000E+00 -0.22792215757E+04  0.23242547070E+04  0.45531192786E+03 0.  0.
      99925    2    3    3    0    0 -0.63473521045E+02  0.84447779367E+02 -0.12241938951E+04  0.12565978191E+04  0.26311037755E+03 0.  0.
         25    1    3    3    0    0  0.63473521045E+02 -0.84447779367E+02 -0.10550276806E+04  0.10676568879E+04  0.12509000000E+03 0.  0.
         25    1    4    4    0    0 -0.19899896265E+02  0.81456135287E+02 -0.68589851081E+03  0.70223598816E+03  0.12509000000E+03 0.  0.
         25    1    4    4    0    0 -0.43573624781E+02  0.29916440794E+01 -0.53829538430E+03  0.55436183091E+03  0.12509000000E+03 0.  0.
<mgrwt>
<rscale>  2 0.45531193E+03</rscale>
<asrwt>0</asrwt>
<pdfrwt beam="1">  1       21 0.33112597E-02 0.45531193E+03</pdfrwt>
<pdfrwt beam="2">  1       21 0.33849090E+00 0.45531193E+03</pdfrwt>
<totfact> 0.90795172E+03</totfact>
</mgrwt>
</event>
<event>
 7    0  0.4779893E-002  0.4443498E+03  0.7546771E-02  0.1029421E+00
         21   -1    0    0  502  501  0.00000000000E+00  0.00000000000E+00  0.12025430390E+03  0.12025430390E+03  0.00000000000E+00 0.  1.
         21   -1    0    0  501  502 -0.00000000000E+00 -0.00000000000E+00 -0.41047741098E+03  0.41047741098E+03  0.00000000000E+00 0.  1.
      99926    2    1    2    0    0  0.00000000000E+00 -0.71054273576E-14 -0.29022310708E+03  0.53073171488E+03  0.44434975109E+03 0.  0.
      99925    2    3    3    0    0 -0.82874525433E+02  0.43064531202E+02 -0.23554383297E+03  0.36532291242E+03  0.26316761252E+03 0.  0.
         25    1    3    3    0    0  0.82874525433E+02 -0.43064531202E+02 -0.54679274110E+02  0.16540880246E+03  0.12509000000E+03 0.  0.
         25    1    4    4    0    0 -0.50181493097E+02 -0.17942566243E+02 -0.12352981705E+03  0.18370422351E+03  0.12509000000E+03 0.  0.
         25    1    4    4    0    0 -0.32693032336E+02  0.61007097445E+02 -0.11201401591E+03  0.18161868891E+03  0.12509000000E+03 0.  0.
<mgrwt>
<rscale>  2 0.44434975E+03</rscale>
<asrwt>0</asrwt>
<pdfrwt beam="1">  1       21 0.17684456E-01 0.44434975E+03</pdfrwt>
<pdfrwt beam="2">  1       21 0.60364325E-01 0.44434975E+03</pdfrwt>
<totfact> 0.68775219E+04</totfact>
</mgrwt>
</event>
<event>
 7    0  0.4779893E-002  0.4583576E+03  0.7546771E-02  0.1025259E+00
         21   -1    0    0  502  501  0.00000000000E+00  0.00000000000E+00  0.18111618796E+03  0.18111618796E+03  0.00000000000E+00 0.  1.
         21   -1    0    0  501  502 -0.00000000000E+00 -0.00000000000E+00 -0.28999578575E+03  0.28999578575E+03  0.00000000000E+00 0.  1.
      99926    2    1    2    0    0  0.00000000000E+00  0.00000000000E+00 -0.10887959779E+03  0.47111197370E+03  0.45835763870E+03 0.  0.
      99925    2    3    3    0    0  0.12589625647E+02  0.11495421735E+03 -0.54726565071E+02  0.29235786938E+03  0.26287859575E+03 0.  0.
         25    1    4    4    0    0  0.22711515403E+02  0.65609262758E+02 -0.64950996168E+02  0.15711947141E+03  0.12509000000E+03 0.  0.
         25    1    3    3    0    0 -0.12589625647E+02 -0.11495421735E+03 -0.54153032717E+02  0.17875410432E+03  0.12509000000E+03 0.  0.
         25    1    4    4    0    0 -0.10121889756E+02  0.49344954589E+02  0.10224431097E+02  0.13523839798E+03  0.12509000000E+03 0.  0.
<mgrwt>
<rscale>  2 0.45835764E+03</rscale>
<asrwt>0</asrwt>
<pdfrwt beam="1">  1       21 0.26634734E-01 0.45835764E+03</pdfrwt>
<pdfrwt beam="2">  1       21 0.42646438E-01 0.45835764E+03</pdfrwt>
<totfact> 0.65588769E+04</totfact>
</mgrwt>
</event>
<event>
 7    0  0.4779893E-002  0.4575755E+03  0.7546771E-02  0.1025487E+00
         21   -1    0    0  502  501  0.00000000000E+00  0.00000000000E+00  0.54190955921E+03  0.54190955921E+03  0.00000000000E+00 0. -1.
         21   -1    0    0  501  502 -0.00000000000E+00 -0.00000000000E+00 -0.96591442881E+02  0.96591442881E+02  0.00000000000E+00 0. -1.
      99926    2    1    2    0    0  0.00000000000E+00  0.00000000000E+00  0.44531811633E+03  0.63850100209E+03  0.45757546366E+03 0.  0.
      99925    2    3    3    0    0  0.15513335775E+02  0.11263790046E+03  0.25114695415E+03  0.38105603995E+03  0.26306073976E+03 0.  0.
         25    1    4    4    0    0  0.22632562812E+02  0.46032592264E+02  0.17133901455E+03  0.21825626785E+03  0.12509000000E+03 0.  0.
         25    1    3    3    0    0 -0.15513335775E+02 -0.11263790046E+03  0.19417116218E+03  0.25744496214E+03  0.12509000000E+03 0.  0.
         25    1    4    4    0    0 -0.71192270371E+01  0.66605308197E+02  0.79807939601E+02  0.16279977210E+03  0.12509000000E+03 0.  0.
<mgrwt>
<rscale>  2 0.45757546E+03</rscale>
<asrwt>0</asrwt>
<pdfrwt beam="1">  1       21 0.79692581E-01 0.45757546E+03</pdfrwt>
<pdfrwt beam="2">  1       21 0.14204624E-01 0.45757546E+03</pdfrwt>
<totfact> 0.55237519E+04</totfact>
</mgrwt>
</event>
<event>
 7    0  0.4779893E-002  0.4532846E+03  0.7546771E-02  0.1026747E+00
         21   -1    0    0  502  501  0.00000000000E+00  0.00000000000E+00  0.61535800224E+03  0.61535800224E+03  0.00000000000E+00 0. -1.
         21   -1    0    0  501  502 -0.00000000000E+00 -0.00000000000E+00 -0.83474544695E+02  0.83474544695E+02  0.00000000000E+00 0. -1.
      99926    2    1    2    0    0  0.00000000000E+00  0.71054273576E-14  0.53188345754E+03  0.69883254693E+03  0.45328458637E+03 0.  0.
      99925    2    3    3    0    0  0.48046860031E+02 -0.62521203507E+02  0.45703745624E+03  0.53310133787E+03  0.26286193788E+03 0.  0.
         25    1    4    4    0    0  0.26336315318E+02 -0.18115654867E+02  0.29830744599E+03  0.32504864081E+03  0.12509000000E+03 0.  0.
         25    1    4    4    0    0  0.21710544714E+02 -0.44405548640E+02  0.15873001024E+03  0.20805269706E+03  0.12509000000E+03 0.  0.
         25    1    3    3    0    0 -0.48046860031E+02  0.62521203507E+02  0.74846001304E+02  0.16573120906E+03  0.12509000000E+03 0.  0.
<mgrwt>
<rscale>  2 0.45328459E+03</rscale>
<asrwt>0</asrwt>
<pdfrwt beam="1">  1       21 0.90493822E-01 0.45328459E+03</pdfrwt>
<pdfrwt beam="2">  1       21 0.12275669E-01 0.45328459E+03</pdfrwt>
<totfact> 0.53687528E+04</totfact>
</mgrwt>
</event>
<event>
 7    0  0.4779893E-002  0.4559968E+03  0.7546771E-02  0.1025949E+00
         21   -1    0    0  502  501  0.00000000000E+00  0.00000000000E+00  0.83696457955E+02  0.83696457955E+02  0.00000000000E+00 0. -1.
         21   -1    0    0  501  502 -0.00000000000E+00 -0.00000000000E+00 -0.62109284415E+03  0.62109284415E+03  0.00000000000E+00 0. -1.
      99926    2    1    2    0    0  0.00000000000E+00  0.00000000000E+00 -0.53739638620E+03  0.70478930211E+03  0.45599680313E+03 0.  0.
      99925    2    3    3    0    0  0.29732399974E+02  0.10310419909E+03 -0.27849513853E+03  0.39788238524E+03  0.26312802743E+03 0.  0.
         25    1    3    3    0    0 -0.29732399974E+02 -0.10310419909E+03 -0.25890124767E+03  0.30690691687E+03  0.12509000000E+03 0.  0.
         25    1    4    4    0    0 -0.67319168781E+01  0.85107743041E+02 -0.13084723141E+03  0.20014283074E+03  0.12509000000E+03 0.  0.
         25    1    4    4    0    0  0.36464316852E+02  0.17996456053E+02 -0.14764790712E+03  0.19773955449E+03  0.12509000000E+03 0.  0.
<mgrwt>
<rscale>  2 0.45599680E+03</rscale>
<asrwt>0</asrwt>
<pdfrwt beam="1">  1       21 0.12308303E-01 0.45599680E+03</pdfrwt>
<pdfrwt beam="2">  1       21 0.91337180E-01 0.45599680E+03</pdfrwt>
<totfact> 0.52232796E+04</totfact>
</mgrwt>
</event>
<event>
 7    0  0.4779893E-002  0.4553746E+03  0.7546771E-02  0.1026131E+00
         21   -1    0    0  502  501  0.00000000000E+00  0.00000000000E+00  0.23324031129E+02  0.23324031129E+02  0.00000000000E+00 0.  1.
         21   -1    0    0  501  502 -0.00000000000E+00 -0.00000000000E+00 -0.22226650653E+04  0.22226650653E+04  0.00000000000E+00 0.  1.
      99926    2    1    2    0    0  0.00000000000E+00 -0.35527136788E-14 -0.21993410342E+04  0.22459890964E+04  0.45537461138E+03 0.  0.
      99925    2    3    3    0    0 -0.87343101374E+02  0.23411465616E+02 -0.10447602260E+04  0.10811366316E+04  0.26297447084E+03 0.  0.
         25    1    4    4    0    0 -0.36564239214E+02 -0.21818295230E+02 -0.58967395353E+03  0.60429782489E+03  0.12509000000E+03 0.  0.
         25    1    4    4    0    0 -0.50778862160E+02  0.45229760845E+02 -0.45508627242E+03  0.47683880668E+03  0.12509000000E+03 0.  0.
         25    1    3    3    0    0  0.87343101374E+02 -0.23411465616E+02 -0.11545808082E+04  0.11648524649E+04  0.12509000000E+03 0.  0.
<mgrwt>
<rscale>  2 0.45537461E+03</rscale>
<asrwt>0</asrwt>
<pdfrwt beam="1">  1       21 0.34300053E-02 0.45537461E+03</pdfrwt>
<pdfrwt beam="2">  1       21 0.32686244E+00 0.45537461E+03</pdfrwt>
<totfact> 0.10063928E+04</totfact>
</mgrwt>
</event>
<event>
 7    0  0.4779893E-002  0.4519168E+03  0.7546771E-02  0.1027152E+00
         21   -1    0    0  502  501  0.00000000000E+00  0.00000000000E+00  0.69596847869E+02  0.69596847869E+02  0.00000000000E+00 0.  1.
         21   -1    0    0  501  502 -0.00000000000E+00 -0.00000000000E+00 -0.73361356066E+03  0.73361356066E+03  0.00000000000E+00 0.  1.
      99926    2    1    2    0    0 -0.17763568394E-14  0.71054273576E-14 -0.66401671280E+03  0.80321040853E+03  0.45191676834E+03 0.  0.
      99925    2    3    3    0    0  0.95857348127E+01  0.33145618229E+02 -0.60514807861E+03  0.66071990881E+03  0.26297544094E+03 0.  0.
         25    1    3    3    0    0 -0.95857348127E+01 -0.33145618229E+02 -0.58868634185E+02  0.14249049972E+03  0.12509000000E+03 0.  0.
         25    1    4    4    0    0  0.31129575413E+02  0.21002279240E+02 -0.23001768682E+03  0.26451047342E+03  0.12509000000E+03 0.  0.
         25    1    4    4    0    0 -0.21543840601E+02  0.12143338989E+02 -0.37513039180E+03  0.39620943540E+03  0.12509000000E+03 0.  0.
<mgrwt>
<rscale>  2 0.45191677E+03</rscale>
<asrwt>0</asrwt>
<pdfrwt beam="1">  1       21 0.10234831E-01 0.45191677E+03</pdfrwt>
<pdfrwt beam="2">  1       21 0.10788434E+00 0.45191677E+03</pdfrwt>
<totfact> 0.48779523E+04</totfact>
</mgrwt>
</event>
<event>
 7    0  0.4779893E-002  0.4496260E+03  0.7546771E-02  0.1027834E+00
         21   -1    0    0  502  501  0.00000000000E+00  0.00000000000E+00  0.19270446275E+03  0.19270446275E+03  0.00000000000E+00 0. -1.
         21   -1    0    0  501  502 -0.00000000000E+00 -0.00000000000E+00 -0.26227146165E+03  0.26227146165E+03  0.00000000000E+00 0. -1.
      99926    2    1    2    0    0 -0.35527136788E-14  0.00000000000E+00 -0.69566998897E+02  0.45497592440E+03  0.44962598285E+03 0.  0.
      99925    2    3    3    0    0  0.26680693223E+02 -0.10451250778E+03 -0.45772123098E+02  0.28809744200E+03  0.26319256289E+03 0.  0.
         25    1    3    3    0    0 -0.26680693223E+02  0.10451250778E+03 -0.23794875799E+02  0.16687848240E+03  0.12509000000E+03 0.  0.
         25    1    4    4    0    0  0.39092778804E+02 -0.73257563536E+02  0.16712986796E+01  0.15015064871E+03  0.12509000000E+03 0.  0.
         25    1    4    4    0    0 -0.12412085581E+02 -0.31254944249E+02 -0.47443421778E+02  0.13794679329E+03  0.12509000000E+03 0.  0.
<mgrwt>
<rscale>  2 0.44962598E+03</rscale>
<asrwt>0</asrwt>
<pdfrwt beam="1">  1       21 0.28338892E-01 0.44962598E+03</pdfrwt>
<pdfrwt beam="2">  1       21 0.38569333E-01 0.44962598E+03</pdfrwt>
<totfact> 0.71566452E+04</totfact>
</mgrwt>
</event>
<event>
 7    0  0.4779893E-002  0.4577287E+03  0.7546771E-02  0.1025442E+00
         21   -1    0    0  502  501  0.00000000000E+00  0.00000000000E+00  0.26038258347E+03  0.26038258347E+03  0.00000000000E+00 0. -1.
         21   -1    0    0  501  502 -0.00000000000E+00 -0.00000000000E+00 -0.20116124148E+03  0.20116124148E+03  0.00000000000E+00 0. -1.
      99926    2    1    2    0    0  0.00000000000E+00  0.00000000000E+00  0.59221341991E+02  0.46154382495E+03  0.45772866963E+03 0.  0.
      99925    2    3    3    0    0  0.11179741316E+03 -0.27752630183E+02  0.48720312712E+02  0.29117173279E+03  0.26294189288E+03 0.  0.
         25    1    4    4    0    0  0.47591542138E+02 -0.19110870474E+02  0.63806032892E+02  0.14949547882E+03  0.12509000000E+03 0.  0.
         25    1    4    4    0    0  0.64205871026E+02 -0.86417597089E+01 -0.15085720181E+02  0.14167625397E+03  0.12509000000E+03 0.  0.
         25    1    3    3    0    0 -0.11179741316E+03  0.27752630183E+02  0.10501029279E+02  0.17037209216E+03  0.12509000000E+03 0.  0.
<mgrwt>
<rscale>  2 0.45772867E+03</rscale>
<asrwt>0</asrwt>
<pdfrwt beam="1">  1       21 0.38291557E-01 0.45772867E+03</pdfrwt>
<pdfrwt beam="2">  1       21 0.29582535E-01 0.45772867E+03</pdfrwt>
<totfact> 0.66606929E+04</totfact>
</mgrwt>
</event>
<event>
 7    0  0.4779893E-002  0.4585680E+03  0.7546771E-02  0.1025197E+00
         21   -1    0    0  502  501  0.00000000000E+00  0.00000000000E+00  0.16832399699E+03  0.16832399699E+03  0.00000000000E+00 0.  1.
         21   -1    0    0  501  502 -0.00000000000E+00 -0.00000000000E+00 -0.31232122340E+03  0.31232122340E+03  0.00000000000E+00 0.  1.
      99926    2    1    2    0    0  0.00000000000E+00 -0.22204460493E-14 -0.14399722641E+03  0.48064522039E+03  0.45856801750E+03 0.  0.
      99925    2    3    3    0    0 -0.66547603508E+02 -0.10529365247E+01  0.10296007504E+02  0.27116108654E+03  0.26266449108E+03 0.  0.
         25    1    4    4    0    0 -0.34858028558E+02  0.35165860311E+02  0.23177766966E+02  0.13651533565E+03  0.12509000000E+03 0.  0.
         25    1    4    4    0    0 -0.31689574950E+02 -0.36218796835E+02 -0.12881759462E+02  0.13464575089E+03  0.12509000000E+03 0.  0.
         25    1    3    3    0    0  0.66547603508E+02  0.10529365247E+01 -0.15429323391E+03  0.20948413386E+03  0.12509000000E+03 0.  0.
<mgrwt>
<rscale>  2 0.45856802E+03</rscale>
<asrwt>0</asrwt>
<pdfrwt beam="1">  1       21 0.24753529E-01 0.45856802E+03</pdfrwt>
<pdfrwt beam="2">  1       21 0.45929591E-01 0.45856802E+03</pdfrwt>
<totfact> 0.64798559E+04</totfact>
</mgrwt>
</event>
<event>
 7    0  0.4779893E-002  0.4560620E+03  0.7546771E-02  0.1025930E+00
         21   -1    0    0  502  501  0.00000000000E+00  0.00000000000E+00  0.61667394002E+03  0.61667394002E+03  0.00000000000E+00 0. -1.
         21   -1    0    0  501  502 -0.00000000000E+00 -0.00000000000E+00 -0.84320325539E+02  0.84320325539E+02  0.00000000000E+00 0. -1.
      99926    2    1    2    0    0  0.26645352591E-14  0.71054273576E-14  0.53235361448E+03  0.70099426556E+03  0.45606204566E+03 0.  0.
      99925    2    3    3    0    0  0.76339108851E+01 -0.52252555947E+02  0.49035448435E+03  0.55886741648E+03  0.26286244061E+03 0.  0.
         25    1    3    3    0    0 -0.76339108851E+01  0.52252555947E+02  0.41999130137E+02  0.14212684908E+03  0.12509000000E+03 0.  0.
         25    1    4    4    0    0 -0.17670556834E+02  0.51617548969E+01  0.26458835761E+03  0.29324631178E+03  0.12509000000E+03 0.  0.
         25    1    4    4    0    0  0.25304467719E+02 -0.57414310844E+02  0.22576612674E+03  0.26562110469E+03  0.12509000000E+03 0.  0.
<mgrwt>
<rscale>  2 0.45606205E+03</rscale>
<asrwt>0</asrwt>
<pdfrwt beam="1">  1       21 0.90687342E-01 0.45606205E+03</pdfrwt>
<pdfrwt beam="2">  1       21 0.12400048E-01 0.45606205E+03</pdfrwt>
<totfact> 0.52409597E+04</totfact>
</mgrwt>
</event>
<event>
 7    0  0.4779893E-002  0.4569358E+03  0.7546771E-02  0.1025674E+00
         21   -1    0    0  502  501  0.00000000000E+00  0.00000000000E+00  0.48955625462E+02  0.48955625462E+02  0.00000000000E+00 0.  1.
         21   -1    0    0  501  502 -0.00000000000E+00 -0.00000000000E+00 -0.10662223810E+04  0.10662223810E+04  0.00000000000E+00 0.  1.
      99926    2    1    2    0    0  0.00000000000E+00  0.14210854715E-13 -0.10172667555E+04  0.11151780064E+04  0.45693580968E+03 0.  0.
      99925    2    3    3    0    0  0.46641027640E+02 -0.97423772199E+02 -0.54346725073E+03  0.61338098006E+03  0.26308325153E+03 0.  0.
         25    1    4    4    0    0  0.43588860366E+02 -0.12698954809E+02 -0.26616209903E+03  0.29757523967E+03  0.12509000000E+03 0.  0.
         25    1    4    4    0    0  0.30521672733E+01 -0.84724817390E+02 -0.27730515170E+03  0.31580574039E+03  0.12509000000E+03 0.  0.
         25    1    3    3    0    0 -0.46641027640E+02  0.97423772199E+02 -0.47379950478E+03  0.50179702638E+03  0.12509000000E+03 0.  0.
<mgrwt>
<rscale>  2 0.45693581E+03</rscale>
<asrwt>0</asrwt>
<pdfrwt beam="1">  1       21 0.71993581E-02 0.45693581E+03</pdfrwt>
<pdfrwt beam="2">  1       21 0.15679738E+00 0.45693581E+03</pdfrwt>
<totfact> 0.34443663E+04</totfact>
</mgrwt>
</event>
<event>
 7    0  0.4779893E-002  0.4518741E+03  0.7546771E-02  0.1027165E+00
         21   -1    0    0  502  501  0.00000000000E+00  0.00000000000E+00  0.92420446215E+03  0.92420446215E+03  0.00000000000E+00 0. -1.
         21   -1    0    0  501  502 -0.00000000000E+00 -0.00000000000E+00 -0.55234041217E+02  0.55234041217E+02  0.00000000000E+00 0. -1.
      99926    2    1    2    0    0 -0.24424906542E-14  0.71054273576E-14  0.86897042094E+03  0.97943850337E+03  0.45187408581E+03 0.  0.
      99925    2    3    3    0    0  0.51660998356E+00  0.42992677950E+02  0.76835671206E+03  0.81324805913E+03  0.26296716804E+03 0.  0.
         25    1    3    3    0    0 -0.51660998356E+00 -0.42992677950E+02  0.10061370887E+03  0.16619044424E+03  0.12509000000E+03 0.  0.
         25    1    4    4    0    0 -0.25082908276E+02  0.93557466261E+01  0.46762550675E+03  0.48480697700E+03  0.12509000000E+03 0.  0.
         25    1    4    4    0    0  0.25599518259E+02  0.33636931324E+02  0.30073120531E+03  0.32844108213E+03  0.12509000000E+03 0.  0.
<mgrwt>
<rscale>  2 0.45187409E+03</rscale>
<asrwt>0</asrwt>
<pdfrwt beam="1">  1       21 0.13591241E+00 0.45187409E+03</pdfrwt>
<pdfrwt beam="2">  1       21 0.81226537E-02 0.45187409E+03</pdfrwt>
<totfact> 0.40962879E+04</totfact>
</mgrwt>
</event>
<event>
 7    0  0.4779893E-002  0.4368683E+03  0.7546771E-02  0.1031712E+00
         21   -1    0    0  502  501  0.00000000000E+00  0.00000000000E+00  0.75138692242E+02  0.75138692242E+02  0.00000000000E+00 0.  1.
         21   -1    0    0  501  502 -0.00000000000E+00 -0.00000000000E+00 -0.63500550406E+03  0.63500550406E+03  0.00000000000E+00 0.  1.
      99926    2    1    2    0    0  0.00000000000E+00  0.00000000000E+00 -0.55986681182E+03  0.71014419630E+03  0.43686832406E+03 0.  0.
      99925    2    3    3    0    0 -0.49885498894E+02  0.59733171916E+02 -0.44746986762E+03  0.52484121200E+03  0.26300646486E+03 0.  0.
         25    1    4    4    0    0 -0.56583847052E+02  0.88324184725E+01 -0.25293896174E+03  0.28793292592E+03  0.12509000000E+03 0.  0.
         25    1    3    3    0    0  0.49885498894E+02 -0.59733171916E+02 -0.11239694420E+03  0.18530298430E+03  0.12509000000E+03 0.  0.
         25    1    4    4    0    0  0.66983481571E+01  0.50900753443E+02 -0.19453090588E+03  0.23690828608E+03  0.12509000000E+03 0.  0.
<mgrwt>
<rscale>  2 0.43686832E+03</rscale>
<asrwt>0</asrwt>
<pdfrwt beam="1">  1       21 0.11049807E-01 0.43686832E+03</pdfrwt>
<pdfrwt beam="2">  1       21 0.93383165E-01 0.43686832E+03</pdfrwt>
<totfact> 0.60540559E+04</totfact>
</mgrwt>
</event>
<event>
 7    0  0.4779893E-002  0.4453628E+03  0.7546771E-02  0.1029114E+00
         21   -1    0    0  502  501  0.00000000000E+00  0.00000000000E+00  0.90196635589E+03  0.90196635589E+03  0.00000000000E+00 0. -1.
         21   -1    0    0  501  502 -0.00000000000E+00 -0.00000000000E+00 -0.54976546017E+02  0.54976546017E+02  0.00000000000E+00 0. -1.
      99926    2    1    2    0    0  0.00000000000E+00  0.00000000000E+00  0.84698980988E+03  0.95694290191E+03  0.44536275044E+03 0.  0.
      99925    2    3    3    0    0  0.74613032030E+02 -0.46167488428E+02  0.41799186283E+03  0.50154715291E+03  0.26293308591E+03 0.  0.
         25    1    3    3    0    0 -0.74613032030E+02  0.46167488428E+02  0.42899794705E+03  0.45539574900E+03  0.12509000000E+03 0.  0.
         25    1    4    4    0    0  0.53077342348E+02 -0.17803924036E+02  0.14708190484E+03  0.20103427273E+03  0.12509000000E+03 0.  0.
         25    1    4    4    0    0  0.21535689682E+02 -0.28363564391E+02  0.27090995799E+03  0.30051288018E+03  0.12509000000E+03 0.  0.
<mgrwt>
<rscale>  2 0.44536275E+03</rscale>
<asrwt>0</asrwt>
<pdfrwt beam="1">  1       21 0.13264210E+00 0.44536275E+03</pdfrwt>
<pdfrwt beam="2">  1       21 0.80847868E-02 0.44536275E+03</pdfrwt>
<totfact> 0.44090804E+04</totfact>
</mgrwt>
</event>
<event>
 7    0  0.4779893E-002  0.4541019E+03  0.7546771E-02  0.1026506E+00
         21   -1    0    0  502  501  0.00000000000E+00  0.00000000000E+00  0.38068704130E+03  0.38068704130E+03  0.00000000000E+00 0. -1.
         21   -1    0    0  501  502 -0.00000000000E+00 -0.00000000000E+00 -0.13541868810E+03  0.13541868810E+03  0.00000000000E+00 0. -1.
      99926    2    1    2    0    0  0.00000000000E+00  0.00000000000E+00  0.24526835320E+03  0.51610572940E+03  0.45410192560E+03 0.  0.
      99925    2    3    3    0    0 -0.62277926241E+02  0.82294122703E+02  0.20476999538E+03  0.34895762796E+03  0.26303956427E+03 0.  0.
         25    1    4    4    0    0  0.85376203656E+01  0.46665024882E+02  0.85098409805E+02  0.15855523631E+03  0.12509000000E+03 0.  0.
         25    1    4    4    0    0 -0.70815546606E+02  0.35629097820E+02  0.11967158558E+03  0.19040239165E+03  0.12509000000E+03 0.  0.
         25    1    3    3    0    0  0.62277926241E+02 -0.82294122703E+02  0.40498357818E+02  0.16714810144E+03  0.12509000000E+03 0.  0.
<mgrwt>
<rscale>  2 0.45410193E+03</rscale>
<asrwt>0</asrwt>
<pdfrwt beam="1">  1       21 0.55983388E-01 0.45410193E+03</pdfrwt>
<pdfrwt beam="2">  1       21 0.19914513E-01 0.45410193E+03</pdfrwt>
<totfact> 0.64612566E+04</totfact>
</mgrwt>
</event>
<event>
 7    0  0.4779893E-002  0.4490144E+03  0.7546771E-02  0.1028016E+00
         21   -1    0    0  502  501  0.00000000000E+00  0.00000000000E+00  0.14793189983E+03  0.14793189983E+03  0.00000000000E+00 0. -1.
         21   -1    0    0  501  502 -0.00000000000E+00 -0.00000000000E+00 -0.34072081877E+03  0.34072081877E+03  0.00000000000E+00 0. -1.
      99926    2    1    2    0    0  0.00000000000E+00  0.00000000000E+00 -0.19278891894E+03  0.48865271860E+03  0.44901437854E+03 0.  0.
      99925    2    3    3    0    0 -0.62489187121E+02 -0.59046342328E+02 -0.19230242337E+03  0.33686631003E+03  0.26288271101E+03 0.  0.
         25    1    4    4    0    0 -0.66306854839E+02 -0.29027079147E+02 -0.75440453367E+02  0.16302742231E+03  0.12509000000E+03 0.  0.
         25    1    4    4    0    0  0.38176677177E+01 -0.30019263181E+02 -0.11686197001E+03  0.17383888772E+03  0.12509000000E+03 0.  0.
         25    1    3    3    0    0  0.62489187121E+02  0.59046342328E+02 -0.48649556551E+00  0.15178640857E+03  0.12509000000E+03 0.  0.
<mgrwt>
<rscale>  2 0.44901438E+03</rscale>
<asrwt>0</asrwt>
<pdfrwt beam="1">  1       21 0.21754692E-01 0.44901438E+03</pdfrwt>
<pdfrwt beam="2">  1       21 0.50106002E-01 0.44901438E+03</pdfrwt>
<totfact> 0.69310845E+04</totfact>
</mgrwt>
</event>
<event>
 7    0  0.4779893E-002  0.4552941E+03  0.7546771E-02  0.1026155E+00
         21   -1    0    0  502  501  0.00000000000E+00  0.00000000000E+00  0.59299999694E+03  0.59299999694E+03  0.00000000000E+00 0.  1.
         21   -1    0    0  501  502 -0.00000000000E+00 -0.00000000000E+00 -0.87391526176E+02  0.87391526176E+02  0.00000000000E+00 0.  1.
      99926    2    1    2    0    0  0.00000000000E+00  0.00000000000E+00  0.50560847077E+03  0.68039152312E+03  0.45529407971E+03 0.  0.
      99925    2    3    3    0    0 -0.84292891097E+02 -0.36964814209E+02  0.41717736353E+03  0.50167594516E+03  0.26300211468E+03 0.  0.
         25    1    4    4    0    0 -0.20341906195E+02 -0.85216568501E+01  0.13613083128E+03  0.18618679628E+03  0.12509000000E+03 0.  0.
         25    1    3    3    0    0  0.84292891097E+02  0.36964814209E+02  0.88431107235E+02  0.17871557796E+03  0.12509000000E+03 0.  0.
         25    1    4    4    0    0 -0.63950984902E+02 -0.28443157359E+02  0.28104653225E+03  0.31548914888E+03  0.12509000000E+03 0.  0.
<mgrwt>
<rscale>  2 0.45529408E+03</rscale>
<asrwt>0</asrwt>
<pdfrwt beam="1">  1       21 0.87205880E-01 0.45529408E+03</pdfrwt>
<pdfrwt beam="2">  1       21 0.12851695E-01 0.45529408E+03</pdfrwt>
<totfact> 0.53856143E+04</totfact>
</mgrwt>
</event>
<event>
 7    0  0.4779893E-002  0.4541087E+03  0.7546771E-02  0.1026504E+00
         21   -1    0    0  502  501  0.00000000000E+00  0.00000000000E+00  0.13768546210E+03  0.13768546210E+03  0.00000000000E+00 0.  1.
         21   -1    0    0  501  502 -0.00000000000E+00 -0.00000000000E+00 -0.37443081350E+03  0.37443081350E+03  0.00000000000E+00 0.  1.
      99926    2    1    2    0    0  0.00000000000E+00 -0.14210854715E-13 -0.23674535140E+03  0.51211627560E+03  0.45410870761E+03 0.  0.
      99925    2    3    3    0    0 -0.25422941131E+02 -0.69992567477E+02 -0.54639053691E+02  0.27897362141E+03  0.26324051705E+03 0.  0.
         25    1    3    3    0    0  0.25422941131E+02  0.69992567477E+02 -0.18210629771E+03  0.23314265419E+03  0.12509000000E+03 0.  0.
         25    1    4    4    0    0 -0.52640835309E+02 -0.44656778477E+02 -0.23262832820E+02  0.14475480267E+03  0.12509000000E+03 0.  0.
         25    1    4    4    0    0  0.27217894178E+02 -0.25335789000E+02 -0.31376220871E+02  0.13421881874E+03  0.12509000000E+03 0.  0.
<mgrwt>
<rscale>  2 0.45410871E+03</rscale>
<asrwt>0</asrwt>
<pdfrwt beam="1">  1       21 0.20247863E-01 0.45410871E+03</pdfrwt>
<pdfrwt beam="2">  1       21 0.55063354E-01 0.45410871E+03</pdfrwt>
<totfact> 0.64885287E+04</totfact>
</mgrwt>
</event>
<event>
 7    0  0.4779893E-002  0.4541514E+03  0.7546771E-02  0.1026491E+00
         21   -1    0    0  502  501  0.00000000000E+00  0.00000000000E+00  0.17657947186E+03  0.17657947186E+03  0.00000000000E+00 0.  1.
         21   -1    0    0  501  502 -0.00000000000E+00 -0.00000000000E+00 -0.29201228089E+03  0.29201228089E+03  0.00000000000E+00 0.  1.
      99926    2    1    2    0    0  0.14210854715E-13  0.22204460493E-15 -0.11543280902E+03  0.46859175275E+03  0.45415140355E+03 0.  0.
      99925    2    3    3    0    0  0.11139610584E+03  0.10117362067E+01 -0.87536947056E+02  0.29878067178E+03  0.26305333437E+03 0.  0.
         25    1    3    3    0    0 -0.11139610584E+03 -0.10117362067E+01 -0.27895861969E+02  0.16981108097E+03  0.12509000000E+03 0.  0.
         25    1    4    4    0    0  0.53674977327E+02 -0.39866345994E+02 -0.47995566127E+02  0.14973780819E+03  0.12509000000E+03 0.  0.
         25    1    4    4    0    0  0.57721128508E+02  0.40878082201E+02 -0.39541380929E+02  0.14904286359E+03  0.12509000000E+03 0.  0.
<mgrwt>
<rscale>  2 0.45415140E+03</rscale>
<asrwt>0</asrwt>
<pdfrwt beam="1">  1       21 0.25967570E-01 0.45415140E+03</pdfrwt>
<pdfrwt beam="2">  1       21 0.42942982E-01 0.45415140E+03</pdfrwt>
<totfact> 0.67997207E+04</totfact>
</mgrwt>
</event>
<event>
 7    0  0.4779893E-002  0.4382371E+03  0.7546771E-02  0.1031289E+00
         21   -1    0    0  502  501  0.00000000000E+00  0.00000000000E+00  0.10245397534E+04  0.10245397534E+04  0.00000000000E+00 0.  1.
         21   -1    0    0  501  502 -0.00000000000E+00 -0.00000000000E+00 -0.46862938055E+02  0.46862938055E+02  0.00000000000E+00 0.  1.
      99926    2    1    2    0    0  0.00000000000E+00  0.00000000000E+00  0.97767681538E+03  0.10714026915E+04  0.43823711846E+03 0.  0.
      99925    2    3    3    0    0 -0.74375220528E+02 -0.25698424260E+02  0.48790336755E+03  0.55981924694E+03  0.26297492416E+03 0.  0.
         25    1    3    3    0    0  0.74375220528E+02  0.25698424260E+02  0.48977344783E+03  0.51158344455E+03  0.12509000000E+03 0.  0.
         25    1    4    4    0    0 -0.20673902520E+02 -0.34159527334E+02  0.30142976790E+03  0.32878822459E+03  0.12509000000E+03 0.  0.
         25    1    4    4    0    0 -0.53701318008E+02  0.84611030736E+01  0.18647359965E+03  0.23103102235E+03  0.12509000000E+03 0.  0.
<mgrwt>
<rscale>  2 0.43823712E+03</rscale>
<asrwt>0</asrwt>
<pdfrwt beam="1">  1       21 0.15066760E+00 0.43823712E+03</pdfrwt>
<pdfrwt beam="2">  1       21 0.68916092E-02 0.43823712E+03</pdfrwt>
<totfact> 0.41694458E+04</totfact>
</mgrwt>
</event>
<event>
 7    0  0.4779893E-002  0.4479589E+03  0.7546771E-02  0.1028332E+00
         21   -1    0    0  502  501  0.00000000000E+00  0.00000000000E+00  0.39540967514E+03  0.39540967514E+03  0.00000000000E+00 0.  1.
         21   -1    0    0  501  502 -0.00000000000E+00 -0.00000000000E+00 -0.12687296025E+03  0.12687296025E+03  0.00000000000E+00 0.  1.
      99926    2    1    2    0    0  0.00000000000E+00 -0.14210854715E-13  0.26853671489E+03  0.52228263539E+03  0.44795890882E+03 0.  0.
      99925    2    3    3    0    0  0.18061967948E+02  0.66647949880E+02  0.26461124849E+03  0.37934523198E+03  0.26289828506E+03 0.  0.
         25    1    4    4    0    0 -0.26374842424E+01  0.70843161117E+02  0.12293676816E+03  0.18917364210E+03  0.12509000000E+03 0.  0.
         25    1    4    4    0    0  0.20699452190E+02 -0.41952112371E+01  0.14167448033E+03  0.19017158987E+03  0.12509000000E+03 0.  0.
         25    1    3    3    0    0 -0.18061967948E+02 -0.66647949880E+02  0.39254664025E+01  0.14293740342E+03  0.12509000000E+03 0.  0.
<mgrwt>
<rscale>  2 0.44795891E+03</rscale>
<asrwt>0</asrwt>
<pdfrwt beam="1">  1       21 0.58148481E-01 0.44795891E+03</pdfrwt>
<pdfrwt beam="2">  1       21 0.18657788E-01 0.44795891E+03</pdfrwt>
<totfact> 0.67416492E+04</totfact>
</mgrwt>
</event>
<event>
 7    0  0.4779893E-002  0.4373476E+03  0.7546771E-02  0.1031564E+00
         21   -1    0    0  502  501  0.00000000000E+00  0.00000000000E+00  0.47151025985E+02  0.47151025985E+02  0.00000000000E+00 0.  1.
         21   -1    0    0  501  502 -0.00000000000E+00 -0.00000000000E+00 -0.10141501910E+04  0.10141501910E+04  0.00000000000E+00 0.  1.
      99926    2    1    2    0    0  0.35527136788E-14  0.00000000000E+00 -0.96699916498E+03  0.10613012169E+04  0.43734755976E+03 0.  0.
      99925    2    3    3    0    0  0.26005917237E+02  0.91519509555E+02 -0.64402670081E+03  0.70212041419E+03  0.26296493360E+03 0.  0.
         25    1    3    3    0    0 -0.26005917237E+02 -0.91519509555E+02 -0.32297246417E+03  0.35918080276E+03  0.12509000000E+03 0.  0.
         25    1    4    4    0    0  0.42247156194E+02  0.40558639841E+02 -0.25519079144E+03  0.29017180016E+03  0.12509000000E+03 0.  0.
         25    1    4    4    0    0 -0.16241238957E+02  0.50960869714E+02 -0.38883590937E+03  0.41194861403E+03  0.12509000000E+03 0.  0.
<mgrwt>
<rscale>  2 0.43734756E+03</rscale>
<asrwt>0</asrwt>
<pdfrwt beam="1">  1       21 0.69339748E-02 0.43734756E+03</pdfrwt>
<pdfrwt beam="2">  1       21 0.14913973E+00 0.43734756E+03</pdfrwt>
<totfact> 0.42414165E+04</totfact>
</mgrwt>
</event>
<event>
 7    0  0.4779893E-002  0.4591946E+03  0.7546771E-02  0.1025015E+00
         21   -1    0    0  502  501  0.00000000000E+00  0.00000000000E+00  0.36184146527E+02  0.36184146527E+02  0.00000000000E+00 0.  1.
         21   -1    0    0  501  502 -0.00000000000E+00 -0.00000000000E+00 -0.14568515267E+04  0.14568515267E+04  0.00000000000E+00 0.  1.
      99926    2    1    2    0    0  0.00000000000E+00  0.35527136788E-14 -0.14206673802E+04  0.14930356733E+04  0.45919463895E+03 0.  0.
      99925    2    3    3    0    0 -0.57960088232E+02 -0.23946053764E+02 -0.12119996422E+04  0.12417937215E+04  0.26301279221E+03 0.  0.
         25    1    4    4    0    0  0.89041300165E+01  0.54803409951E+01 -0.56354555575E+03  0.57735640568E+03  0.12509000000E+03 0.  0.
         25    1    4    4    0    0 -0.66864218249E+02 -0.29426394760E+02 -0.64845408641E+03  0.66443731583E+03  0.12509000000E+03 0.  0.
         25    1    3    3    0    0  0.57960088232E+02  0.23946053764E+02 -0.20866773805E+03  0.25124195176E+03  0.12509000000E+03 0.  0.
<mgrwt>
<rscale>  2 0.45919464E+03</rscale>
<asrwt>0</asrwt>
<pdfrwt beam="1">  1       21 0.53211979E-02 0.45919464E+03</pdfrwt>
<pdfrwt beam="2">  1       21 0.21424288E+00 0.45919464E+03</pdfrwt>
<totfact> 0.23185649E+04</totfact>
</mgrwt>
</event>
<event>
 7    0  0.4779893E-002  0.4519628E+03  0.7546771E-02  0.1027138E+00
         21   -1    0    0  502  501  0.00000000000E+00  0.00000000000E+00  0.77166861855E+02  0.77166861855E+02  0.00000000000E+00 0.  1.
         21   -1    0    0  501  502 -0.00000000000E+00 -0.00000000000E+00 -0.66178140913E+03  0.66178140913E+03  0.00000000000E+00 0.  1.
      99926    2    1    2    0    0  0.00000000000E+00  0.00000000000E+00 -0.58461454727E+03  0.73894827098E+03  0.45196280633E+03 0.  0.
      99925    2    3    3    0    0 -0.36912023700E+02 -0.10398861334E+03 -0.36613484200E+03  0.46407190074E+03  0.26292941512E+03 0.  0.
         25    1    4    4    0    0 -0.31056405578E+02 -0.11367757920E+02 -0.16594346430E+03  0.21042449403E+03  0.12509000000E+03 0.  0.
         25    1    3    3    0    0  0.36912023700E+02  0.10398861334E+03 -0.21847970527E+03  0.27487637024E+03  0.12509000000E+03 0.  0.
         25    1    4    4    0    0 -0.58556181217E+01 -0.92620855424E+02 -0.20019137770E+03  0.25364740671E+03  0.12509000000E+03 0.  0.
<mgrwt>
<rscale>  2 0.45196281E+03</rscale>
<asrwt>0</asrwt>
<pdfrwt beam="1">  1       21 0.11348068E-01 0.45196281E+03</pdfrwt>
<pdfrwt beam="2">  1       21 0.97320791E-01 0.45196281E+03</pdfrwt>
<totfact> 0.52071043E+04</totfact>
</mgrwt>
</event>
<event>
 7    0  0.4779893E-002  0.4557951E+03  0.7546771E-02  0.1026008E+00
         21   -1    0    0  502  501  0.00000000000E+00  0.00000000000E+00  0.64340496091E+02  0.64340496091E+02  0.00000000000E+00 0.  1.
         21   -1    0    0  501  502 -0.00000000000E+00 -0.00000000000E+00 -0.80722543715E+03  0.80722543715E+03  0.00000000000E+00 0.  1.
      99926    2    1    2    0    0 -0.34416913763E-14  0.00000000000E+00 -0.74288494106E+03  0.87156593325E+03  0.45579506397E+03 0.  0.
      99925    2    3    3    0    0 -0.62607898219E+00 -0.11330838198E+03 -0.44214613124E+03  0.52670288617E+03  0.26283749263E+03 0.  0.
         25    1    4    4    0    0 -0.40055114840E+02 -0.53519794041E+02 -0.20833355132E+03  0.25203007219E+03  0.12509000000E+03 0.  0.
         25    1    4    4    0    0  0.39429035858E+02 -0.59788587940E+02 -0.23381257992E+03  0.27467281399E+03  0.12509000000E+03 0.  0.
         25    1    3    3    0    0  0.62607898219E+00  0.11330838198E+03 -0.30073880982E+03  0.34486304707E+03  0.12509000000E+03 0.  0.
<mgrwt>
<rscale>  2 0.45579506E+03</rscale>
<asrwt>0</asrwt>
<pdfrwt beam="1">  1       21 0.94618380E-02 0.45579506E+03</pdfrwt>
<pdfrwt beam="2">  1       21 0.11870962E+00 0.45579506E+03</pdfrwt>
<totfact> 0.44209959E+04</totfact>
</mgrwt>
</event>
<event>
 7    0  0.4779893E-002  0.4543699E+03  0.7546771E-02  0.1026427E+00
         21   -1    0    0  502  501  0.00000000000E+00  0.00000000000E+00  0.60789534970E+02  0.60789534970E+02  0.00000000000E+00 0. -1.
         21   -1    0    0  501  502 -0.00000000000E+00 -0.00000000000E+00 -0.84904426910E+03  0.84904426910E+03  0.00000000000E+00 0. -1.
      99926    2    1    2    0    0  0.00000000000E+00  0.00000000000E+00 -0.78825473413E+03  0.90983380407E+03  0.45436992104E+03 0.  0.
      99925    2    3    3    0    0 -0.33472453331E+02 -0.79146891649E+02 -0.64173024400E+03  0.69887985199E+03  0.26311728538E+03 0.  0.
         25    1    4    4    0    0 -0.31231007701E+02 -0.86779714181E+01 -0.24546574094E+03  0.27740155210E+03  0.12509000000E+03 0.  0.
         25    1    4    4    0    0 -0.22414456299E+01 -0.70468920231E+02 -0.39626450306E+03  0.42147829989E+03  0.12509000000E+03 0.  0.
         25    1    3    3    0    0  0.33472453331E+02  0.79146891649E+02 -0.14652449013E+03  0.21095395208E+03  0.12509000000E+03 0.  0.
<mgrwt>
<rscale>  2 0.45436992E+03</rscale>
<asrwt>0</asrwt>
<pdfrwt beam="1">  1       21 0.89396385E-02 0.45436992E+03</pdfrwt>
<pdfrwt beam="2">  1       21 0.12485944E+00 0.45436992E+03</pdfrwt>
<totfact> 0.43023114E+04</totfact>
</mgrwt>
</event>
<event>
 7    0  0.4779893E-002  0.4575248E+03  0.7546771E-02  0.1025502E+00
         21   -1    0    0  502  501  0.00000000000E+00  0.00000000000E+00  0.15307663819E+03  0.15307663819E+03  0.00000000000E+00 0. -1.
         21   -1    0    0  501  502 -0.00000000000E+00 -0.00000000000E+00 -0.34186946863E+03  0.34186946863E+03  0.00000000000E+00 0. -1.
      99926    2    1    2    0    0  0.00000000000E+00 -0.14210854715E-13 -0.18879283044E+03  0.49494610682E+03  0.45752477073E+03 0.  0.
      99925    2    3    3    0    0 -0.26798149331E+02 -0.10735793690E+03 -0.82745908156E+02  0.29711454905E+03  0.26303289246E+03 0.  0.
         25    1    3    3    0    0  0.26798149331E+02  0.10735793690E+03 -0.10604692229E+03  0.19783155777E+03  0.12509000000E+03 0.  0.
         25    1    4    4    0    0 -0.52247097008E+02 -0.66282848779E+02 -0.51272981757E+02  0.15937252569E+03  0.12509000000E+03 0.  0.
         25    1    4    4    0    0  0.25448947677E+02 -0.41075088122E+02 -0.31472926399E+02  0.13774202336E+03  0.12509000000E+03 0.  0.
<mgrwt>
<rscale>  2 0.45752477E+03</rscale>
<asrwt>0</asrwt>
<pdfrwt beam="1">  1       21 0.22511271E-01 0.45752477E+03</pdfrwt>
<pdfrwt beam="2">  1       21 0.50274921E-01 0.45752477E+03</pdfrwt>
<totfact> 0.64328145E+04</totfact>
</mgrwt>
</event>
<event>
 7    0  0.4779893E-002  0.4512176E+03  0.7546771E-02  0.1027360E+00
         21   -1    0    0  502  501  0.00000000000E+00  0.00000000000E+00  0.19358416632E+03  0.19358416632E+03  0.00000000000E+00 0.  1.
         21   -1    0    0  501  502 -0.00000000000E+00 -0.00000000000E+00 -0.26293121457E+03  0.26293121457E+03  0.00000000000E+00 0.  1.
      99926    2    1    2    0    0  0.00000000000E+00  0.00000000000E+00 -0.69347048245E+02  0.45651538089E+03  0.45121755273E+03 0.  0.
      99925    2    3    3    0    0  0.95406261084E+02  0.20055859570E+02  0.69660672487E+01  0.28051597222E+03  0.26293743061E+03 0.  0.
         25    1    4    4    0    0  0.90106261652E+02  0.17987162439E+02  0.38078796077E+01  0.15525683382E+03  0.12509000000E+03 0.  0.
         25    1    3    3    0    0 -0.95406261084E+02 -0.20055859570E+02 -0.76313115493E+02  0.17599940867E+03  0.12509000000E+03 0.  0.
         25    1    4    4    0    0  0.52999994321E+01  0.20686971307E+01  0.31581876411E+01  0.12525913839E+03  0.12509000000E+03 0.  0.
<mgrwt>
<rscale>  2 0.45121755E+03</rscale>
<asrwt>0</asrwt>
<pdfrwt beam="1">  1       21 0.28468260E-01 0.45121755E+03</pdfrwt>
<pdfrwt beam="2">  1       21 0.38666355E-01 0.45121755E+03</pdfrwt>
<totfact> 0.70539072E+04</totfact>
</mgrwt>
</event>
<event>
 7    0  0.4779893E-002  0.4586751E+03  0.7546771E-02  0.1025166E+00
         21   -1    0    0  502  501  0.00000000000E+00  0.00000000000E+00  0.16777435969E+04  0.16777435969E+04  0.00000000000E+00 0. -1.
         21   -1    0    0  501  502 -0.00000000000E+00 -0.00000000000E+00 -0.31349072062E+02  0.31349072062E+02  0.00000000000E+00 0. -1.
      99926    2    1    2    0    0  0.00000000000E+00 -0.14210854715E-13  0.16463945248E+04  0.17090926689E+04  0.45867506983E+03 0.  0.
      99925    2    3    3    0    0  0.28900792833E+02 -0.11260728796E+03  0.10615058277E+04  0.10997832622E+04  0.26308353097E+03 0.  0.
         25    1    4    4    0    0  0.46869022083E+02 -0.76172899265E+02  0.64113032871E+03  0.65931375103E+03  0.12509000000E+03 0.  0.
         25    1    4    4    0    0 -0.17968229251E+02 -0.36434388697E+02  0.42037549904E+03  0.44046951113E+03  0.12509000000E+03 0.  0.
         25    1    3    3    0    0 -0.28900792833E+02  0.11260728796E+03  0.58488869707E+03  0.60930940678E+03  0.12509000000E+03 0.  0.
<mgrwt>
<rscale>  2 0.45867507E+03</rscale>
<asrwt>0</asrwt>
<pdfrwt beam="1">  1       21 0.24672694E+00 0.45867507E+03</pdfrwt>
<pdfrwt beam="2">  1       21 0.46101588E-02 0.45867507E+03</pdfrwt>
<totfact> 0.18538650E+04</totfact>
</mgrwt>
</event>
<event>
 7    0  0.4779893E-002  0.4574611E+03  0.7546771E-02  0.1025520E+00
         21   -1    0    0  502  501  0.00000000000E+00  0.00000000000E+00  0.27418420859E+03  0.27418420859E+03  0.00000000000E+00 0. -1.
         21   -1    0    0  501  502 -0.00000000000E+00 -0.00000000000E+00 -0.19081208636E+03  0.19081208636E+03  0.00000000000E+00 0. -1.
      99926    2    1    2    0    0 -0.35527136788E-14 -0.35527136788E-14  0.83372122224E+02  0.46499629495E+03  0.45746108420E+03 0.  0.
      99925    2    3    3    0    0  0.21379668234E+02  0.25859998795E+02  0.16470110810E+03  0.31206578199E+03  0.26293110795E+03 0.  0.
         25    1    3    3    0    0 -0.21379668234E+02 -0.25859998795E+02 -0.81328985880E+02  0.15293051297E+03  0.12509000000E+03 0.  0.
         25    1    4    4    0    0 -0.27101435025E+02 -0.10200666083E+01  0.86306119045E+02  0.15437545984E+03  0.12509000000E+03 0.  0.
         25    1    4    4    0    0  0.48481103260E+02  0.26880065403E+02  0.78394989059E+02  0.15769032215E+03  0.12509000000E+03 0.  0.
<mgrwt>
<rscale>  2 0.45746108E+03</rscale>
<asrwt>0</asrwt>
<pdfrwt beam="1">  1       21 0.40321207E-01 0.45746108E+03</pdfrwt>
<pdfrwt beam="2">  1       21 0.28060601E-01 0.45746108E+03</pdfrwt>
<totfact> 0.66499860E+04</totfact>
</mgrwt>
</event>
<event>
 7    0  0.4779893E-002  0.4549355E+03  0.7546771E-02  0.1026260E+00
         21   -1    0    0  502  501  0.00000000000E+00  0.00000000000E+00  0.10459497291E+04  0.10459497291E+04  0.00000000000E+00 0. -1.
         21   -1    0    0  501  502 -0.00000000000E+00 -0.00000000000E+00 -0.49468511928E+02  0.49468511928E+02  0.00000000000E+00 0. -1.
      99926    2    1    2    0    0 -0.14210854715E-13  0.00000000000E+00  0.99648121720E+03  0.10954182411E+04  0.45493549719E+03 0.  0.
      99925    2    3    3    0    0  0.79517397454E+02  0.78244630003E+02  0.67176052602E+03  0.72999208709E+03  0.26302282082E+03 0.  0.
         25    1    4    4    0    0  0.80852920984E+02  0.35618989162E+02  0.34130723567E+03  0.37409095745E+03  0.12509000000E+03 0.  0.
         25    1    4    4    0    0 -0.13355235301E+01  0.42625640841E+02  0.33045329034E+03  0.35590112964E+03  0.12509000000E+03 0.  0.
         25    1    3    3    0    0 -0.79517397454E+02 -0.78244630003E+02  0.32472069118E+03  0.36542615397E+03  0.12509000000E+03 0.  0.
<mgrwt>
<rscale>  2 0.45493550E+03</rscale>
<asrwt>0</asrwt>
<pdfrwt beam="1">  1       21 0.15381612E+00 0.45493550E+03</pdfrwt>
<pdfrwt beam="2">  1       21 0.72747818E-02 0.45493550E+03</pdfrwt>
<totfact> 0.35671490E+04</totfact>
</mgrwt>
</event>
<event>
 7    0  0.4779893E-002  0.4597320E+03  0.7546771E-02  0.1024859E+00
         21   -1    0    0  502  501  0.00000000000E+00  0.00000000000E+00  0.30807220318E+03  0.30807220318E+03  0.00000000000E+00 0. -1.
         21   -1    0    0  501  502 -0.00000000000E+00 -0.00000000000E+00 -0.17151293738E+03  0.17151293738E+03  0.00000000000E+00 0. -1.
      99926    2    1    2    0    0  0.14210854715E-13  0.00000000000E+00  0.13655926581E+03  0.47958514056E+03  0.45973195883E+03 0.  0.
      99925    2    3    3    0    0 -0.10139261925E+03  0.12701362397E+02  0.14624748015E+03  0.31777303519E+03  0.26296309361E+03 0.  0.
         25    1    4    4    0    0 -0.88824457202E+02  0.22610362012E+01  0.10126968409E+03  0.18384219727E+03  0.12509000000E+03 0.  0.
         25    1    3    3    0    0  0.10139261925E+03 -0.12701362397E+02 -0.96882143386E+01  0.16181210536E+03  0.12509000000E+03 0.  0.
         25    1    4    4    0    0 -0.12568162049E+02  0.10440326196E+02  0.44977796054E+02  0.13393083792E+03  0.12509000000E+03 0.  0.
<mgrwt>
<rscale>  2 0.45973196E+03</rscale>
<asrwt>0</asrwt>
<pdfrwt beam="1">  1       21 0.45304736E-01 0.45973196E+03</pdfrwt>
<pdfrwt beam="2">  1       21 0.25222491E-01 0.45973196E+03</pdfrwt>
<totfact> 0.64282056E+04</totfact>
</mgrwt>
</event>
<event>
 7    0  0.4779893E-002  0.4552917E+03  0.7546771E-02  0.1026156E+00
         21   -1    0    0  502  501  0.00000000000E+00  0.00000000000E+00  0.12909271346E+03  0.12909271346E+03  0.00000000000E+00 0.  1.
         21   -1    0    0  501  502 -0.00000000000E+00 -0.00000000000E+00 -0.40143739081E+03  0.40143739081E+03  0.00000000000E+00 0.  1.
      99926    2    1    2    0    0  0.00000000000E+00  0.00000000000E+00 -0.27234467736E+03  0.53053010427E+03  0.45529173971E+03 0.  0.
      99925    2    3    3    0    0 -0.47487879978E+02  0.82264378073E+02 -0.24357896488E+03  0.37085073503E+03  0.26301526362E+03 0.  0.
         25    1    4    4    0    0  0.44354009206E+01  0.54154483468E+02 -0.15564190269E+03  0.20694030742E+03  0.12509000000E+03 0.  0.
         25    1    4    4    0    0 -0.51923280898E+02  0.28109894605E+02 -0.87937062195E+02  0.16391042762E+03  0.12509000000E+03 0.  0.
         25    1    3    3    0    0  0.47487879978E+02 -0.82264378073E+02 -0.28765712471E+02  0.15967936923E+03  0.12509000000E+03 0.  0.
<mgrwt>
<rscale>  2 0.45529174E+03</rscale>
<asrwt>0</asrwt>
<pdfrwt beam="1">  1       21 0.18984222E-01 0.45529174E+03</pdfrwt>
<pdfrwt beam="2">  1       21 0.59034911E-01 0.45529174E+03</pdfrwt>
<totfact> 0.63024797E+04</totfact>
</mgrwt>
</event>
<event>
 7    0  0.4779893E-002  0.4567174E+03  0.7546771E-02  0.1025738E+00
         21   -1    0    0  502  501  0.00000000000E+00  0.00000000000E+00  0.82019814426E+02  0.82019814426E+02  0.00000000000E+00 0. -1.
         21   -1    0    0  501  502 -0.00000000000E+00 -0.00000000000E+00 -0.63579392166E+03  0.63579392166E+03  0.00000000000E+00 0. -1.
      99926    2    1    2    0    0  0.00000000000E+00 -0.71054273576E-14 -0.55377410723E+03  0.71781373609E+03  0.45671741577E+03 0.  0.
      99925    2    3    3    0    0  0.97029591255E+02 -0.51410051901E+02 -0.29551682624E+03  0.41056454357E+03  0.26301200511E+03 0.  0.
         25    1    4    4    0    0  0.89689313928E+02 -0.25833847947E+02 -0.17984692717E+03  0.23812598775E+03  0.12509000000E+03 0.  0.
         25    1    3    3    0    0 -0.97029591255E+02  0.51410051901E+02 -0.25825728100E+03  0.30724919252E+03  0.12509000000E+03 0.  0.
         25    1    4    4    0    0  0.73402773273E+01 -0.25576203954E+02 -0.11566989907E+03  0.17243855581E+03  0.12509000000E+03 0.  0.
<mgrwt>
<rscale>  2 0.45671742E+03</rscale>
<asrwt>0</asrwt>
<pdfrwt beam="1">  1       21 0.12061737E-01 0.45671742E+03</pdfrwt>
<pdfrwt beam="2">  1       21 0.93499106E-01 0.45671742E+03</pdfrwt>
<totfact> 0.51250595E+04</totfact>
</mgrwt>
</event>
<event>
 7    0  0.4779893E-002  0.4479478E+03  0.7546771E-02  0.1028336E+00
         21   -1    0    0  502  501  0.00000000000E+00  0.00000000000E+00  0.38872587650E+03  0.38872587650E+03  0.00000000000E+00 0. -1.
         21   -1    0    0  501  502 -0.00000000000E+00 -0.00000000000E+00 -0.12904801670E+03  0.12904801670E+03  0.00000000000E+00 0. -1.
      99926    2    1    2    0    0  0.00000000000E+00  0.00000000000E+00  0.25967785979E+03  0.51777389320E+03  0.44794778001E+03 0.  0.
      99925    2    3    3    0    0  0.67811475360E+02 -0.91988217429E+01  0.70295007190E+02  0.28071612076E+03  0.26301547085E+03 0.  0.
         25    1    4    4    0    0  0.76564470286E+00 -0.15184083117E+02  0.56176079431E+02  0.13796522240E+03  0.12509000000E+03 0.  0.
         25    1    4    4    0    0  0.67045830657E+02  0.59852613742E+01  0.14118927759E+02  0.14275089836E+03  0.12509000000E+03 0.  0.
         25    1    3    3    0    0 -0.67811475360E+02  0.91988217429E+01  0.18938285261E+03  0.23705777244E+03  0.12509000000E+03 0.  0.
<mgrwt>
<rscale>  2 0.44794778E+03</rscale>
<asrwt>0</asrwt>
<pdfrwt beam="1">  1       21 0.57165570E-01 0.44794778E+03</pdfrwt>
<pdfrwt beam="2">  1       21 0.18977650E-01 0.44794778E+03</pdfrwt>
<totfact> 0.67751011E+04</totfact>
</mgrwt>
</event>
<event>
 7    0  0.4779893E-002  0.4101434E+03  0.7546771E-02  0.1040323E+00
         21   -1    0    0  502  501  0.00000000000E+00  0.00000000000E+00  0.16149851838E+03  0.16149851838E+03  0.00000000000E+00 0.  1.
         21   -1    0    0  501  502 -0.00000000000E+00 -0.00000000000E+00 -0.26040116294E+03  0.26040116294E+03  0.00000000000E+00 0.  1.
      99926    2    1    2    0    0  0.00000000000E+00  0.00000000000E+00 -0.98902644558E+02  0.42189968133E+03  0.41014339932E+03 0.  0.
      99925    2    3    3    0    0  0.41798797216E+02 -0.10316693190E+02 -0.11175309796E+03  0.28898536359E+03  0.26300230390E+03 0.  0.
         25    1    4    4    0    0  0.10041049936E+02 -0.13833729180E+02 -0.13958661595E+02  0.12702183702E+03  0.12509000000E+03 0.  0.
         25    1    3    3    0    0 -0.41798797216E+02  0.10316693190E+02  0.12850453401E+02  0.13291431774E+03  0.12509000000E+03 0.  0.
         25    1    4    4    0    0  0.31757747280E+02  0.35170359909E+01 -0.97794436365E+02  0.16196352657E+03  0.12509000000E+03 0.  0.
<mgrwt>
<rscale>  2 0.41014340E+03</rscale>
<asrwt>0</asrwt>
<pdfrwt beam="1">  1       21 0.23749782E-01 0.41014340E+03</pdfrwt>
<pdfrwt beam="2">  1       21 0.38294288E-01 0.41014340E+03</pdfrwt>
<totfact> 0.10333815E+05</totfact>
</mgrwt>
</event>
<event>
 7    0  0.4779893E-002  0.4557592E+03  0.7546771E-02  0.1026018E+00
         21   -1    0    0  502  501  0.00000000000E+00  0.00000000000E+00  0.11109775834E+03  0.11109775834E+03  0.00000000000E+00 0.  1.
         21   -1    0    0  501  502 -0.00000000000E+00 -0.00000000000E+00 -0.46741817081E+03  0.46741817081E+03  0.00000000000E+00 0.  1.
      99926    2    1    2    0    0  0.35527136788E-14  0.71054273576E-14 -0.35632041247E+03  0.57851592915E+03  0.45575919513E+03 0.  0.
      99925    2    3    3    0    0 -0.24635490636E+02 -0.44118443057E+02 -0.35370257653E+03  0.44357999776E+03  0.26287707650E+03 0.  0.
         25    1    4    4    0    0  0.24276211701E+02 -0.33920632874E+02 -0.15463781949E+03  0.20322476992E+03  0.12509000000E+03 0.  0.
         25    1    3    3    0    0  0.24635490636E+02  0.44118443057E+02 -0.26178359391E+01  0.13493593140E+03  0.12509000000E+03 0.  0.
         25    1    4    4    0    0 -0.48911702337E+02 -0.10197810183E+02 -0.19906475703E+03  0.24035522784E+03  0.12509000000E+03 0.  0.
<mgrwt>
<rscale>  2 0.45575920E+03</rscale>
<asrwt>0</asrwt>
<pdfrwt beam="1">  1       21 0.16337906E-01 0.45575920E+03</pdfrwt>
<pdfrwt beam="2">  1       21 0.68737967E-01 0.45575920E+03</pdfrwt>
<totfact> 0.59661636E+04</totfact>
</mgrwt>
</event>
<event>
 6    0  0.4779893E-002  0.4518111E+03  0.7546771E-02  0.1027183E+00
         21   -1    0    0  502  501  0.00000000000E+00  0.00000000000E+00  0.26254385531E+02  0.26254385531E+02  0.00000000000E+00 0. -1.
         21   -1    0    0  501  502 -0.00000000000E+00 -0.00000000000E+00 -0.19438015131E+04  0.19438015131E+04  0.00000000000E+00 0. -1.
      99926    2    1    2    0    0  0.00000000000E+00 -0.71054273576E-14 -0.19175471275E+04  0.19700558986E+04  0.45181108583E+03 0.  0.
         25    1    3    3    0    0 -0.38312016045E+02  0.49465531207E+02 -0.65662132687E+03  0.67135216120E+03  0.12509000000E+03 0.  0.
         25    1    3    3    0    0  0.96026099144E+02 -0.44579320673E+02 -0.52513460614E+03  0.55011107080E+03  0.12509000000E+03 0.  0.
         25    1    3    3    0    0 -0.57714083099E+02 -0.48862105338E+01 -0.73579119452E+03  0.74859266659E+03  0.12509000000E+03 0.  0.
<mgrwt>
<rscale>  2 0.45181109E+03</rscale>
<asrwt>0</asrwt>
<pdfrwt beam="1">  1       21 0.38609386E-02 0.45181109E+03</pdfrwt>
<pdfrwt beam="2">  1       21 0.28585319E+00 0.45181109E+03</pdfrwt>
<totfact> 0.14562047E+04</totfact>
</mgrwt>
</event>
<event>
 7    0  0.4779893E-002  0.4567050E+03  0.7546771E-02  0.1025741E+00
         21   -1    0    0  502  501  0.00000000000E+00  0.00000000000E+00  0.14318234746E+03  0.14318234746E+03  0.00000000000E+00 0.  1.
         21   -1    0    0  501  502 -0.00000000000E+00 -0.00000000000E+00 -0.36418495059E+03  0.36418495059E+03  0.00000000000E+00 0.  1.
      99926    2    1    2    0    0 -0.22204460493E-14  0.00000000000E+00 -0.22100260313E+03  0.50736729804E+03  0.45670496443E+03 0.  0.
      99925    2    3    3    0    0 -0.39345981012E+01  0.11470264304E+03 -0.13961197117E+03  0.31910120855E+03  0.26298650426E+03 0.  0.
         25    1    4    4    0    0  0.18945749757E+02  0.91082324691E+02 -0.58927323552E+02  0.16665793970E+03  0.12509000000E+03 0.  0.
         25    1    4    4    0    0 -0.22880347858E+02  0.23620318345E+02 -0.80684647616E+02  0.15244326885E+03  0.12509000000E+03 0.  0.
         25    1    3    3    0    0  0.39345981012E+01 -0.11470264304E+03 -0.81390631960E+02  0.18826608949E+03  0.12509000000E+03 0.  0.
<mgrwt>
<rscale>  2 0.45670496E+03</rscale>
<asrwt>0</asrwt>
<pdfrwt beam="1">  1       21 0.21056228E-01 0.45670496E+03</pdfrwt>
<pdfrwt beam="2">  1       21 0.53556610E-01 0.45670496E+03</pdfrwt>
<totfact> 0.63887193E+04</totfact>
</mgrwt>
</event>
<event>
 7    0  0.4779893E-002  0.4558815E+03  0.7546771E-02  0.1025982E+00
         21   -1    0    0  502  501  0.00000000000E+00  0.00000000000E+00  0.20434669080E+03  0.20434669080E+03  0.00000000000E+00 0.  1.
         21   -1    0    0  501  502 -0.00000000000E+00 -0.00000000000E+00 -0.25425902928E+03  0.25425902928E+03  0.00000000000E+00 0.  1.
      99926    2    1    2    0    0  0.00000000000E+00  0.00000000000E+00 -0.49912338481E+02  0.45860572008E+03  0.45588152513E+03 0.  0.
      99925    2    3    3    0    0 -0.86433424657E+02  0.72794560569E+02 -0.46076338021E+02  0.28998778525E+03  0.26305912210E+03 0.  0.
         25    1    3    3    0    0  0.86433424657E+02 -0.72794560569E+02 -0.38360004604E+01  0.16861793483E+03  0.12509000000E+03 0.  0.
         25    1    4    4    0    0 -0.16159942378E+02  0.92690332355E+01 -0.67438617956E-01  0.12646964601E+03  0.12509000000E+03 0.  0.
         25    1    4    4    0    0 -0.70273482278E+02  0.63525527334E+02 -0.46008899403E+02  0.16351813923E+03  0.12509000000E+03 0.  0.
<mgrwt>
<rscale>  2 0.45588153E+03</rscale>
<asrwt>0</asrwt>
<pdfrwt beam="1">  1       21 0.30050984E-01 0.45588153E+03</pdfrwt>
<pdfrwt beam="2">  1       21 0.37391033E-01 0.45588153E+03</pdfrwt>
<totfact> 0.67804253E+04</totfact>
</mgrwt>
</event>
<event>
 7    0  0.4779893E-002  0.4647047E+03  0.7546771E-02  0.1023426E+00
         21   -1    0    0  502  501  0.00000000000E+00  0.00000000000E+00  0.36315248086E+03  0.36315248086E+03  0.00000000000E+00 0.  1.
         21   -1    0    0  501  502 -0.00000000000E+00 -0.00000000000E+00 -0.14866374715E+03  0.14866374715E+03  0.00000000000E+00 0.  1.
      99926    2    1    2    0    0  0.00000000000E+00 -0.71054273576E-14  0.21448873371E+03  0.51181622801E+03  0.46470467435E+03 0.  0.
      99925    2    3    3    0    0  0.11231589681E+03 -0.45729978214E+02  0.14746232202E+03  0.32514502094E+03  0.26318825323E+03 0.  0.
         25    1    3    3    0    0 -0.11231589681E+03  0.45729978214E+02  0.67026411694E+02  0.18667120707E+03  0.12509000000E+03 0.  0.
         25    1    4    4    0    0  0.45282692661E+02  0.17768269512E+02  0.72386373031E+02  0.15249107763E+03  0.12509000000E+03 0.  0.
         25    1    4    4    0    0  0.67033204153E+02 -0.63498247726E+02  0.75075948988E+02  0.17265394331E+03  0.12509000000E+03 0.  0.
<mgrwt>
<rscale>  2 0.46470467E+03</rscale>
<asrwt>0</asrwt>
<pdfrwt beam="1">  1       21 0.53404777E-01 0.46470467E+03</pdfrwt>
<pdfrwt beam="2">  1       21 0.21862316E-01 0.46470467E+03</pdfrwt>
<totfact> 0.59714410E+04</totfact>
</mgrwt>
</event>
<event>
 7    0  0.4779893E-002  0.4590942E+03  0.7546771E-02  0.1025044E+00
         21   -1    0    0  502  501  0.00000000000E+00  0.00000000000E+00  0.54407994818E+03  0.54407994818E+03  0.00000000000E+00 0. -1.
         21   -1    0    0  501  502 -0.00000000000E+00 -0.00000000000E+00 -0.96845843947E+02  0.96845843947E+02  0.00000000000E+00 0. -1.
      99926    2    1    2    0    0 -0.71054273576E-14  0.14210854715E-13  0.44723410424E+03  0.64092579213E+03  0.45909424634E+03 0.  0.
      99925    2    3    3    0    0  0.56733921350E+02 -0.10230933584E+03  0.27763468725E+03  0.39989175227E+03  0.26295713707E+03 0.  0.
         25    1    3    3    0    0 -0.56733921350E+02  0.10230933584E+03  0.16959941699E+03  0.24103403987E+03  0.12509000000E+03 0.  0.
         25    1    4    4    0    0  0.38672673376E+02 -0.63815554564E+02  0.92847555757E+02  0.17273151820E+03  0.12509000000E+03 0.  0.
         25    1    4    4    0    0  0.18061247974E+02 -0.38493781272E+02  0.18478713149E+03  0.22716023406E+03  0.12509000000E+03 0.  0.
<mgrwt>
<rscale>  2 0.45909425E+03</rscale>
<asrwt>0</asrwt>
<pdfrwt beam="1">  1       21 0.80011755E-01 0.45909425E+03</pdfrwt>
<pdfrwt beam="2">  1       21 0.14242036E-01 0.45909425E+03</pdfrwt>
<totfact> 0.54446691E+04</totfact>
</mgrwt>
</event>
<event>
 7    0  0.4779893E-002  0.4605875E+03  0.7546771E-02  0.1024611E+00
         21   -1    0    0  502  501  0.00000000000E+00  0.00000000000E+00  0.96540672209E+02  0.96540672209E+02  0.00000000000E+00 0. -1.
         21   -1    0    0  501  502 -0.00000000000E+00 -0.00000000000E+00 -0.54935623955E+03  0.54935623955E+03  0.00000000000E+00 0. -1.
      99926    2    1    2    0    0  0.00000000000E+00  0.00000000000E+00 -0.45281556734E+03  0.64589691176E+03  0.46058754064E+03 0.  0.
      99925    2    3    3    0    0 -0.40987294443E+02 -0.40244943599E+01 -0.12789766338E+03  0.29530411766E+03  0.26296493064E+03 0.  0.
         25    1    4    4    0    0 -0.40549603518E+02  0.38237985205E+01 -0.10402800180E+03  0.16771471324E+03  0.12509000000E+03 0.  0.
         25    1    3    3    0    0  0.40987294443E+02  0.40244943599E+01 -0.32491790396E+03  0.35059279410E+03  0.12509000000E+03 0.  0.
         25    1    4    4    0    0 -0.43769092513E+00 -0.78482928804E+01 -0.23869661581E+02  0.12758940441E+03  0.12509000000E+03 0.  0.
<mgrwt>
<rscale>  2 0.46058754E+03</rscale>
<asrwt>0</asrwt>
<pdfrwt beam="1">  1       21 0.14197158E-01 0.46058754E+03</pdfrwt>
<pdfrwt beam="2">  1       21 0.80787683E-01 0.46058754E+03</pdfrwt>
<totfact> 0.53538745E+04</totfact>
</mgrwt>
</event>
<event>
 7    0  0.4779893E-002  0.4562896E+03  0.7546771E-02  0.1025863E+00
         21   -1    0    0  502  501  0.00000000000E+00  0.00000000000E+00  0.10165979195E+04  0.10165979195E+04  0.00000000000E+00 0. -1.
         21   -1    0    0  501  502 -0.00000000000E+00 -0.00000000000E+00 -0.51200234455E+02  0.51200234455E+02  0.00000000000E+00 0. -1.
      99926    2    1    2    0    0  0.00000000000E+00  0.44408920985E-15  0.96539768504E+03  0.10677981540E+04  0.45628960902E+03 0.  0.
      99925    2    3    3    0    0  0.97985862304E+02  0.34911971720E+01  0.46915299593E+03  0.54672261505E+03  0.26303548534E+03 0.  0.
         25    1    3    3    0    0 -0.97985862304E+02 -0.34911971720E+01  0.49624468911E+03  0.52107553890E+03  0.12509000000E+03 0.  0.
         25    1    4    4    0    0  0.72241930832E+02  0.31003965258E+02  0.28384415666E+03  0.31999243085E+03  0.12509000000E+03 0.  0.
         25    1    4    4    0    0  0.25743931472E+02 -0.27512768086E+02  0.18530883927E+03  0.22673018420E+03  0.12509000000E+03 0.  0.
<mgrwt>
<rscale>  2 0.45628961E+03</rscale>
<asrwt>0</asrwt>
<pdfrwt beam="1">  1       21 0.14949968E+00 0.45628961E+03</pdfrwt>
<pdfrwt beam="2">  1       21 0.75294469E-02 0.45628961E+03</pdfrwt>
<totfact> 0.36264693E+04</totfact>
</mgrwt>
</event>
<event>
 7    0  0.4779893E-002  0.4561984E+03  0.7546771E-02  0.1025890E+00
         21   -1    0    0  502  501  0.00000000000E+00  0.00000000000E+00  0.30187922466E+03  0.30187922466E+03  0.00000000000E+00 0.  1.
         21   -1    0    0  501  502 -0.00000000000E+00 -0.00000000000E+00 -0.17235118399E+03  0.17235118399E+03  0.00000000000E+00 0.  1.
      99926    2    1    2    0    0  0.00000000000E+00  0.71054273576E-14  0.12952804067E+03  0.47423040865E+03  0.45619838576E+03 0.  0.
      99925    2    3    3    0    0 -0.10954117609E+03 -0.33218579727E+02  0.78679269995E+02  0.29721106259E+03  0.26275700733E+03 0.  0.
         25    1    3    3    0    0  0.10954117609E+03  0.33218579727E+02  0.50848770680E+02  0.17701934606E+03  0.12509000000E+03 0.  0.
         25    1    4    4    0    0 -0.91412400619E+02 -0.96666341926E+01  0.63604781995E+02  0.16775800188E+03  0.12509000000E+03 0.  0.
         25    1    4    4    0    0 -0.18128775474E+02 -0.23551945535E+02  0.15074487999E+02  0.12945306071E+03  0.12509000000E+03 0.  0.
<mgrwt>
<rscale>  2 0.45619839E+03</rscale>
<asrwt>0</asrwt>
<pdfrwt beam="1">  1       21 0.44394004E-01 0.45619839E+03</pdfrwt>
<pdfrwt beam="2">  1       21 0.25345762E-01 0.45619839E+03</pdfrwt>
<totfact> 0.66488054E+04</totfact>
</mgrwt>
</event>
<event>
 7    0  0.4779893E-002  0.4340117E+03  0.7546771E-02  0.1032600E+00
         21   -1    0    0  502  501  0.00000000000E+00  0.00000000000E+00  0.18484383216E+03  0.18484383216E+03  0.00000000000E+00 0.  1.
         21   -1    0    0  501  502 -0.00000000000E+00 -0.00000000000E+00 -0.25476393132E+03  0.25476393132E+03  0.00000000000E+00 0.  1.
      99926    2    1    2    0    0  0.71054273576E-14  0.35527136788E-14 -0.69920099157E+02  0.43960776349E+03  0.43401171119E+03 0.  0.
      99925    2    3    3    0    0 -0.43113936576E+02 -0.23677261055E+02  0.34011270115E+02  0.26969995955E+03  0.26298645872E+03 0.  0.
         25    1    4    4    0    0 -0.11373671431E+01  0.99681321720E+01 -0.11770029236E+02  0.12604244901E+03  0.12509000000E+03 0.  0.
         25    1    3    3    0    0  0.43113936576E+02  0.23677261055E+02 -0.10393136927E+03  0.16990780393E+03  0.12509000000E+03 0.  0.
         25    1    4    4    0    0 -0.41976569433E+02 -0.33645393227E+02  0.45781299351E+02  0.14365751055E+03  0.12509000000E+03 0.  0.
<mgrwt>
<rscale>  2 0.43401171E+03</rscale>
<asrwt>0</asrwt>
<pdfrwt beam="1">  1       21 0.27182916E-01 0.43401171E+03</pdfrwt>
<pdfrwt beam="2">  1       21 0.37465284E-01 0.43401171E+03</pdfrwt>
<totfact> 0.82690101E+04</totfact>
</mgrwt>
</event>
<event>
 7    0  0.4779893E-002  0.4562018E+03  0.7546771E-02  0.1025889E+00
         21   -1    0    0  502  501  0.00000000000E+00  0.00000000000E+00  0.11165198490E+04  0.11165198490E+04  0.00000000000E+00 0.  1.
         21   -1    0    0  501  502 -0.00000000000E+00 -0.00000000000E+00 -0.46600184457E+02  0.46600184457E+02  0.00000000000E+00 0.  1.
      99926    2    1    2    0    0  0.00000000000E+00  0.00000000000E+00  0.10699196646E+04  0.11631200335E+04  0.45620184530E+03 0.  0.
      99925    2    3    3    0    0 -0.35884652952E+01  0.11342167475E+03  0.63454828951E+03  0.69613706194E+03  0.26282679450E+03 0.  0.
         25    1    4    4    0    0 -0.16005506710E+02  0.83918199612E+02  0.27279059983E+03  0.31202669746E+03  0.12509000000E+03 0.  0.
         25    1    3    3    0    0  0.35884652952E+01 -0.11342167475E+03  0.43537137508E+03  0.46698297156E+03  0.12509000000E+03 0.  0.
         25    1    4    4    0    0  0.12417041415E+02  0.29503475140E+02  0.36175768967E+03  0.38411036448E+03  0.12509000000E+03 0.  0.
<mgrwt>
<rscale>  2 0.45620185E+03</rscale>
<asrwt>0</asrwt>
<pdfrwt beam="1">  1       21 0.16419408E+00 0.45620185E+03</pdfrwt>
<pdfrwt beam="2">  1       21 0.68529690E-02 0.45620185E+03</pdfrwt>
<totfact> 0.33036832E+04</totfact>
</mgrwt>
</event>
<event>
 7    0  0.4779893E-002  0.4548020E+03  0.7546771E-02  0.1026300E+00
         21   -1    0    0  502  501  0.00000000000E+00  0.00000000000E+00  0.34386563622E+03  0.34386563622E+03  0.00000000000E+00 0.  1.
         21   -1    0    0  501  502 -0.00000000000E+00 -0.00000000000E+00 -0.15038202457E+03  0.15038202457E+03  0.00000000000E+00 0.  1.
      99926    2    1    2    0    0  0.14210854715E-13  0.35527136788E-14  0.19348361165E+03  0.49424766079E+03  0.45480198133E+03 0.  0.
      99925    2    3    3    0    0  0.10610925286E+03  0.31400548865E+02  0.14694821348E+03  0.32087459658E+03  0.26290979684E+03 0.  0.
         25    1    4    4    0    0  0.16929996353E+02 -0.33919443649E+01  0.81569316566E+02  0.15033027496E+03  0.12509000000E+03 0.  0.
         25    1    4    4    0    0  0.89179256506E+02  0.34792493230E+02  0.65378896916E+02  0.17054432162E+03  0.12509000000E+03 0.  0.
         25    1    3    3    0    0 -0.10610925286E+03 -0.31400548865E+02  0.46535398166E+02  0.17337306421E+03  0.12509000000E+03 0.  0.
<mgrwt>
<rscale>  2 0.45480198E+03</rscale>
<asrwt>0</asrwt>
<pdfrwt beam="1">  1       21 0.50568476E-01 0.45480198E+03</pdfrwt>
<pdfrwt beam="2">  1       21 0.22115004E-01 0.45480198E+03</pdfrwt>
<totfact> 0.65780038E+04</totfact>
</mgrwt>
</event>
<event>
 7    0  0.4779893E-002  0.4563421E+03  0.7546771E-02  0.1025847E+00
         21   -1    0    0  502  501  0.00000000000E+00  0.00000000000E+00  0.23797263443E+02  0.23797263443E+02  0.00000000000E+00 0.  1.
         21   -1    0    0  501  502 -0.00000000000E+00 -0.00000000000E+00 -0.21877316458E+04  0.21877316458E+04  0.00000000000E+00 0.  1.
      99926    2    1    2    0    0  0.00000000000E+00  0.14210854715E-13 -0.21639343823E+04  0.22115289092E+04  0.45634209237E+03 0.  0.
      99925    2    3    3    0    0  0.43296066667E+02 -0.10256320110E+03 -0.12351922698E+04  0.12678111658E+04  0.26315670060E+03 0.  0.
         25    1    4    4    0    0  0.61401175728E+02 -0.60265896132E+02 -0.61551584864E+03  0.63396320922E+03  0.12509000000E+03 0.  0.
         25    1    4    4    0    0 -0.18105109060E+02 -0.42297304966E+02 -0.61967642115E+03  0.63384795655E+03  0.12509000000E+03 0.  0.
         25    1    3    3    0    0 -0.43296066667E+02  0.10256320110E+03 -0.92874211253E+03  0.94371774345E+03  0.12509000000E+03 0.  0.
<mgrwt>
<rscale>  2 0.45634209E+03</rscale>
<asrwt>0</asrwt>
<pdfrwt beam="1">  1       21 0.34995972E-02 0.45634209E+03</pdfrwt>
<pdfrwt beam="2">  1       21 0.32172527E+00 0.45634209E+03</pdfrwt>
<totfact> 0.10444332E+04</totfact>
</mgrwt>
</event>
<event>
 7    0  0.4779893E-002  0.4504267E+03  0.7546771E-02  0.1027595E+00
         21   -1    0    0  502  501  0.00000000000E+00  0.00000000000E+00  0.58722139570E+02  0.58722139570E+02  0.00000000000E+00 0.  1.
         21   -1    0    0  501  502 -0.00000000000E+00 -0.00000000000E+00 -0.86374674777E+03  0.86374674777E+03  0.00000000000E+00 0.  1.
      99926    2    1    2    0    0  0.00000000000E+00  0.00000000000E+00 -0.80502460820E+03  0.92246888734E+03  0.45042671801E+03 0.  0.
      99925    2    3    3    0    0  0.60321048610E+02 -0.55596606572E+02 -0.65556124562E+03  0.71100632228E+03  0.26275431870E+03 0.  0.
         25    1    4    4    0    0  0.17823159663E+02 -0.15352966582E+02 -0.22106386401E+03  0.25508845265E+03  0.12509000000E+03 0.  0.
         25    1    4    4    0    0  0.42497888946E+02 -0.40243639990E+02 -0.43449738161E+03  0.45591786963E+03  0.12509000000E+03 0.  0.
         25    1    3    3    0    0 -0.60321048610E+02  0.55596606572E+02 -0.14946336258E+03  0.21146256506E+03  0.12509000000E+03 0.  0.
<mgrwt>
<rscale>  2 0.45042672E+03</rscale>
<asrwt>0</asrwt>
<pdfrwt beam="1">  1       21 0.86356088E-02 0.45042672E+03</pdfrwt>
<pdfrwt beam="2">  1       21 0.12702158E+00 0.45042672E+03</pdfrwt>
<totfact> 0.43823054E+04</totfact>
</mgrwt>
</event>
<event>
 7    0  0.4779893E-002  0.4546454E+03  0.7546771E-02  0.1026346E+00
         21   -1    0    0  502  501  0.00000000000E+00  0.00000000000E+00  0.22845559953E+03  0.22845559953E+03  0.00000000000E+00 0. -1.
         21   -1    0    0  501  502 -0.00000000000E+00 -0.00000000000E+00 -0.22619538298E+03  0.22619538298E+03  0.00000000000E+00 0. -1.
      99926    2    1    2    0    0  0.71054273576E-14 -0.14210854715E-13  0.22602165506E+01  0.45465098251E+03  0.45464536434E+03 0.  0.
      99925    2    3    3    0    0 -0.47760778381E+02 -0.81451048215E+02  0.63515365250E+02  0.28638016939E+03  0.26280037022E+03 0.  0.
         25    1    4    4    0    0 -0.30271987939E+01 -0.74360514665E+02  0.23377643833E+02  0.14742005428E+03  0.12509000000E+03 0.  0.
         25    1    3    3    0    0  0.47760778381E+02  0.81451048215E+02 -0.61255148699E+02  0.16827081312E+03  0.12509000000E+03 0.  0.
         25    1    4    4    0    0 -0.44733579587E+02 -0.70905335504E+01  0.40137721417E+02  0.13896011510E+03  0.12509000000E+03 0.  0.
<mgrwt>
<rscale>  2 0.45464536E+03</rscale>
<asrwt>0</asrwt>
<pdfrwt beam="1">  1       21 0.33596412E-01 0.45464536E+03</pdfrwt>
<pdfrwt beam="2">  1       21 0.33264027E-01 0.45464536E+03</pdfrwt>
<totfact> 0.68765741E+04</totfact>
</mgrwt>
</event>
<event>
 7    0  0.4779893E-002  0.4535047E+03  0.7546771E-02  0.1026682E+00
         21   -1    0    0  502  501  0.00000000000E+00  0.00000000000E+00  0.22049318431E+03  0.22049318431E+03  0.00000000000E+00 0.  1.
         21   -1    0    0  501  502 -0.00000000000E+00 -0.00000000000E+00 -0.23318916224E+03  0.23318916224E+03  0.00000000000E+00 0.  1.
      99926    2    1    2    0    0  0.00000000000E+00  0.35527136788E-14 -0.12695977936E+02  0.45368234655E+03  0.45350466780E+03 0.  0.
      99925    2    3    3    0    0 -0.90445246668E+02 -0.21263844586E+02  0.54116856322E+02  0.28414191876E+03  0.26301236117E+03 0.  0.
         25    1    4    4    0    0 -0.39025292448E+02 -0.31284198861E+02 -0.80418292761E+01  0.13495871097E+03  0.12509000000E+03 0.  0.
         25    1    3    3    0    0  0.90445246668E+02  0.21263844586E+02 -0.66812834257E+02  0.16954042778E+03  0.12509000000E+03 0.  0.
         25    1    4    4    0    0 -0.51419954219E+02  0.10020354275E+02  0.62158685598E+02  0.14918320779E+03  0.12509000000E+03 0.  0.
<mgrwt>
<rscale>  2 0.45350467E+03</rscale>
<asrwt>0</asrwt>
<pdfrwt beam="1">  1       21 0.32425469E-01 0.45350467E+03</pdfrwt>
<pdfrwt beam="2">  1       21 0.34292524E-01 0.45350467E+03</pdfrwt>
<totfact> 0.69467575E+04</totfact>
</mgrwt>
</event>
<event>
 7    0  0.4779893E-002  0.4542780E+03  0.7546771E-02  0.1026454E+00
         21   -1    0    0  502  501  0.00000000000E+00  0.00000000000E+00  0.82793251377E+02  0.82793251377E+02  0.00000000000E+00 0.  1.
         21   -1    0    0  501  502 -0.00000000000E+00 -0.00000000000E+00 -0.62314413333E+03  0.62314413333E+03  0.00000000000E+00 0.  1.
      99926    2    1    2    0    0 -0.14210854715E-13  0.00000000000E+00 -0.54035088195E+03  0.70593738471E+03  0.45427801565E+03 0.  0.
      99925    2    3    3    0    0 -0.10317817257E+03  0.36565960199E+02 -0.38077494678E+03  0.47551431311E+03  0.26294770798E+03 0.  0.
         25    1    4    4    0    0 -0.45363064450E+02  0.49301257216E+02 -0.23492988535E+03  0.27445943363E+03  0.12509000000E+03 0.  0.
         25    1    4    4    0    0 -0.57815108115E+02 -0.12735297017E+02 -0.14584506143E+03  0.20105487947E+03  0.12509000000E+03 0.  0.
         25    1    3    3    0    0  0.10317817257E+03 -0.36565960199E+02 -0.15957593517E+03  0.23042307160E+03  0.12509000000E+03 0.  0.
<mgrwt>
<rscale>  2 0.45427802E+03</rscale>
<asrwt>0</asrwt>
<pdfrwt beam="1">  1       21 0.12175479E-01 0.45427802E+03</pdfrwt>
<pdfrwt beam="2">  1       21 0.91638839E-01 0.45427802E+03</pdfrwt>
<totfact> 0.52881559E+04</totfact>
</mgrwt>
</event>
<event>
 7    0  0.4779893E-002  0.4463303E+03  0.7546771E-02  0.1028822E+00
         21   -1    0    0  502  501  0.00000000000E+00  0.00000000000E+00  0.14165989251E+03  0.14165989251E+03  0.00000000000E+00 0. -1.
         21   -1    0    0  501  502 -0.00000000000E+00 -0.00000000000E+00 -0.35156524397E+03  0.35156524397E+03  0.00000000000E+00 0. -1.
      99926    2    1    2    0    0  0.00000000000E+00  0.00000000000E+00 -0.20990535146E+03  0.49322513647E+03  0.44633034703E+03 0.  0.
      99925    2    3    3    0    0 -0.57633763023E+02 -0.83831431234E+02 -0.10457360455E+03  0.30063322462E+03  0.26285991987E+03 0.  0.
         25    1    4    4    0    0  0.10902117138E+02 -0.38328763516E+02 -0.37179597464E+02  0.13644698911E+03  0.12509000000E+03 0.  0.
         25    1    3    3    0    0  0.57633763023E+02  0.83831431234E+02 -0.10533174691E+03  0.19259191185E+03  0.12509000000E+03 0.  0.
         25    1    4    4    0    0 -0.68535880162E+02 -0.45502667718E+02 -0.67394007082E+02  0.16418623551E+03  0.12509000000E+03 0.  0.
<mgrwt>
<rscale>  2 0.44633035E+03</rscale>
<asrwt>0</asrwt>
<pdfrwt beam="1">  1       21 0.20832337E-01 0.44633035E+03</pdfrwt>
<pdfrwt beam="2">  1       21 0.51700771E-01 0.44633035E+03</pdfrwt>
<totfact> 0.70476110E+04</totfact>
</mgrwt>
</event>
<event>
 6    0  0.4779893E-002  0.4620861E+03  0.7546771E-02  0.1024178E+00
         21   -1    0    0  502  501  0.00000000000E+00  0.00000000000E+00  0.28427216375E+03  0.28427216375E+03  0.00000000000E+00 0. -1.
         21   -1    0    0  501  502 -0.00000000000E+00 -0.00000000000E+00 -0.18778091407E+03  0.18778091407E+03  0.00000000000E+00 0. -1.
      99926    2    1    2    0    0  0.71054273576E-14  0.88817841970E-15  0.96491249678E+02  0.47205307783E+03  0.46208608183E+03 0.  0.
         25    1    3    3    0    0 -0.42686453953E+02  0.72595004859E+01 -0.64776872950E+02  0.14737158840E+03  0.12509000000E+03 0.  0.
         25    1    3    3    0    0  0.49830657277E+02 -0.15119566516E+02  0.14439429600E+03  0.19801241505E+03  0.12509000000E+03 0.  0.
         25    1    3    3    0    0 -0.71442033245E+01  0.78600660296E+01  0.16873826631E+02  0.12666907438E+03  0.12509000000E+03 0.  0.
<mgrwt>
<rscale>  2 0.46208608E+03</rscale>
<asrwt>0</asrwt>
<pdfrwt beam="1">  1       21 0.41804730E-01 0.46208608E+03</pdfrwt>
<pdfrwt beam="2">  1       21 0.27614840E-01 0.46208608E+03</pdfrwt>
<totfact> 0.63629557E+04</totfact>
</mgrwt>
</event>
<event>
 7    0  0.4779893E-002  0.4553903E+03  0.7546771E-02  0.1026127E+00
         21   -1    0    0  502  501  0.00000000000E+00  0.00000000000E+00  0.41597036661E+02  0.41597036661E+02  0.00000000000E+00 0. -1.
         21   -1    0    0  501  502 -0.00000000000E+00 -0.00000000000E+00 -0.12463646324E+04  0.12463646324E+04  0.00000000000E+00 0. -1.
      99926    2    1    2    0    0  0.00000000000E+00  0.14210854715E-13 -0.12047675958E+04  0.12879616691E+04  0.45539027354E+03 0.  0.
      99925    2    3    3    0    0  0.39324711828E+02 -0.70614803164E+02 -0.98352832334E+03  0.10212648241E+04  0.26290871925E+03 0.  0.
         25    1    4    4    0    0  0.24597016998E+02 -0.36833598056E+02 -0.34683197360E+03  0.37135111849E+03  0.12509000000E+03 0.  0.
         25    1    4    4    0    0  0.14727694830E+02 -0.33781205108E+02 -0.63669634974E+03  0.64991370557E+03  0.12509000000E+03 0.  0.
         25    1    3    3    0    0 -0.39324711828E+02  0.70614803164E+02 -0.22123927243E+03  0.26669684503E+03  0.12509000000E+03 0.  0.
<mgrwt>
<rscale>  2 0.45539027E+03</rscale>
<asrwt>0</asrwt>
<pdfrwt beam="1">  1       21 0.61172120E-02 0.45539027E+03</pdfrwt>
<pdfrwt beam="2">  1       21 0.18328889E+00 0.45539027E+03</pdfrwt>
<totfact> 0.29377113E+04</totfact>
</mgrwt>
</event>
<event>
 7    0  0.4779893E-002  0.4574425E+03  0.7546771E-02  0.1025526E+00
         21   -1    0    0  502  501  0.00000000000E+00  0.00000000000E+00  0.66879924647E+02  0.66879924647E+02  0.00000000000E+00 0. -1.
         21   -1    0    0  501  502 -0.00000000000E+00 -0.00000000000E+00 -0.78219883415E+03  0.78219883415E+03  0.00000000000E+00 0. -1.
      99926    2    1    2    0    0  0.00000000000E+00  0.00000000000E+00 -0.71531890950E+03  0.84907875879E+03  0.45744245140E+03 0.  0.
      99925    2    3    3    0    0 -0.60191384331E+02 -0.67976319753E+02 -0.31670562694E+03  0.42154649109E+03  0.26297377668E+03 0.  0.
         25    1    3    3    0    0  0.60191384331E+02  0.67976319753E+02 -0.39861328256E+03  0.42753226770E+03  0.12509000000E+03 0.  0.
         25    1    4    4    0    0 -0.20939397934E+02 -0.65862716752E+02 -0.20130348373E+03  0.24687437393E+03  0.12509000000E+03 0.  0.
         25    1    4    4    0    0 -0.39251986397E+02 -0.21136030011E+01 -0.11540214321E+03  0.17467211716E+03  0.12509000000E+03 0.  0.
<mgrwt>
<rscale>  2 0.45744245E+03</rscale>
<asrwt>0</asrwt>
<pdfrwt beam="1">  1       21 0.98352829E-02 0.45744245E+03</pdfrwt>
<pdfrwt beam="2">  1       21 0.11502924E+00 0.45744245E+03</pdfrwt>
<totfact> 0.44619531E+04</totfact>
</mgrwt>
</event>
<event>
 7    0  0.4779893E-002  0.4475760E+03  0.7546771E-02  0.1028447E+00
         21   -1    0    0  502  501  0.00000000000E+00  0.00000000000E+00  0.40571734404E+03  0.40571734404E+03  0.00000000000E+00 0.  1.
         21   -1    0    0  501  502 -0.00000000000E+00 -0.00000000000E+00 -0.12343835147E+03  0.12343835147E+03  0.00000000000E+00 0.  1.
      99926    2    1    2    0    0  0.00000000000E+00  0.00000000000E+00  0.28227899257E+03  0.52915569551E+03  0.44757604990E+03 0.  0.
      99925    2    3    3    0    0  0.38415202492E+02  0.19323920567E+02  0.64223182394E+02  0.27411651001E+03  0.26299449084E+03 0.  0.
         25    1    4    4    0    0 -0.21270230852E+02  0.15029490088E+02  0.28195014498E+02  0.13084638029E+03  0.12509000000E+03 0.  0.
         25    1    4    4    0    0  0.59685433344E+02  0.42944304792E+01  0.36028167896E+02  0.14327012971E+03  0.12509000000E+03 0.  0.
         25    1    3    3    0    0 -0.38415202492E+02 -0.19323920567E+02  0.21805581018E+03  0.25503918550E+03  0.12509000000E+03 0.  0.
<mgrwt>
<rscale>  2 0.44757605E+03</rscale>
<asrwt>0</asrwt>
<pdfrwt beam="1">  1       21 0.59664315E-01 0.44757605E+03</pdfrwt>
<pdfrwt beam="2">  1       21 0.18152699E-01 0.44757605E+03</pdfrwt>
<totfact> 0.67123910E+04</totfact>
</mgrwt>
</event>
<event>
 7    0  0.4779893E-002  0.4571897E+03  0.7546771E-02  0.1025599E+00
         21   -1    0    0  502  501  0.00000000000E+00  0.00000000000E+00  0.30540335320E+03  0.30540335320E+03  0.00000000000E+00 0. -1.
         21   -1    0    0  501  502 -0.00000000000E+00 -0.00000000000E+00 -0.17110359636E+03  0.17110359636E+03  0.00000000000E+00 0. -1.
      99926    2    1    2    0    0  0.14210854715E-13  0.00000000000E+00  0.13429975684E+03  0.47650694956E+03  0.45718972898E+03 0.  0.
      99925    2    3    3    0    0  0.82344190437E+02  0.34573417193E+02  0.85416076232E+01  0.27791564292E+03  0.26303661085E+03 0.  0.
         25    1    4    4    0    0  0.62682127968E+02  0.27587568649E+02 -0.29264919063E+02  0.14558182132E+03  0.12509000000E+03 0.  0.
         25    1    3    3    0    0 -0.82344190437E+02 -0.34573417193E+02  0.12575814922E+03  0.19859130663E+03  0.12509000000E+03 0.  0.
         25    1    4    4    0    0  0.19662062469E+02  0.69858485444E+01  0.37806526686E+02  0.13233382160E+03  0.12509000000E+03 0.  0.
<mgrwt>
<rscale>  2 0.45718973E+03</rscale>
<asrwt>0</asrwt>
<pdfrwt beam="1">  1       21 0.44912258E-01 0.45718973E+03</pdfrwt>
<pdfrwt beam="2">  1       21 0.25162293E-01 0.45718973E+03</pdfrwt>
<totfact> 0.65804296E+04</totfact>
</mgrwt>
</event>
<event>
 7    0  0.4779893E-002  0.4375044E+03  0.7546771E-02  0.1031515E+00
         21   -1    0    0  502  501  0.00000000000E+00  0.00000000000E+00  0.38313538650E+02  0.38313538650E+02  0.00000000000E+00 0.  1.
         21   -1    0    0  501  502 -0.00000000000E+00 -0.00000000000E+00 -0.12489716028E+04  0.12489716028E+04  0.00000000000E+00 0.  1.
      99926    2    1    2    0    0  0.00000000000E+00  0.00000000000E+00 -0.12106580641E+04  0.12872851414E+04  0.43750438524E+03 0.  0.
      99925    2    3    3    0    0  0.81654115937E+01 -0.86093983201E+02 -0.89616098730E+03  0.93795039176E+03  0.26299728965E+03 0.  0.
         25    1    3    3    0    0 -0.81654115937E+01  0.86093983201E+02 -0.31449707684E+03  0.34933474968E+03  0.12509000000E+03 0.  0.
         25    1    4    4    0    0  0.89904995083E+01 -0.59769835134E+02 -0.59074581242E+03  0.60686191615E+03  0.12509000000E+03 0.  0.
         25    1    4    4    0    0 -0.82508791461E+00 -0.26324148068E+02 -0.30541517487E+03  0.33108847561E+03  0.12509000000E+03 0.  0.
<mgrwt>
<rscale>  2 0.43750439E+03</rscale>
<asrwt>0</asrwt>
<pdfrwt beam="1">  1       21 0.56343444E-02 0.43750439E+03</pdfrwt>
<pdfrwt beam="2">  1       21 0.18367228E+00 0.43750439E+03</pdfrwt>
<totfact> 0.33865413E+04</totfact>
</mgrwt>
</event>
<event>
 7    0  0.4779893E-002  0.4509133E+03  0.7546771E-02  0.1027450E+00
         21   -1    0    0  502  501  0.00000000000E+00  0.00000000000E+00  0.48347557169E+03  0.48347557169E+03  0.00000000000E+00 0.  1.
         21   -1    0    0  501  502 -0.00000000000E+00 -0.00000000000E+00 -0.10513601607E+03  0.10513601607E+03  0.00000000000E+00 0.  1.
      99926    2    1    2    0    0  0.00000000000E+00  0.00000000000E+00  0.37833955562E+03  0.58861158775E+03  0.45091327536E+03 0.  0.
      99925    2    3    3    0    0 -0.72767108588E+02 -0.26016549464E+02  0.34009238125E+03  0.43668309344E+03  0.26278771541E+03 0.  0.
         25    1    4    4    0    0 -0.35798254404E+02  0.20804910900E+02  0.13077442566E+03  0.18564433157E+03  0.12509000000E+03 0.  0.
         25    1    4    4    0    0 -0.36968854184E+02 -0.46821460363E+02  0.20931795558E+03  0.25103876187E+03  0.12509000000E+03 0.  0.
         25    1    3    3    0    0  0.72767108588E+02  0.26016549464E+02  0.38247174371E+02  0.15192849432E+03  0.12509000000E+03 0.  0.
<mgrwt>
<rscale>  2 0.45091328E+03</rscale>
<asrwt>0</asrwt>
<pdfrwt beam="1">  1       21 0.71099348E-01 0.45091328E+03</pdfrwt>
<pdfrwt beam="2">  1       21 0.15461179E-01 0.45091328E+03</pdfrwt>
<totfact> 0.61342274E+04</totfact>
</mgrwt>
</event>
<event>
 7    0  0.4779893E-002  0.4529471E+03  0.7546771E-02  0.1026847E+00
         21   -1    0    0  502  501  0.00000000000E+00  0.00000000000E+00  0.40730519876E+03  0.40730519876E+03  0.00000000000E+00 0.  1.
         21   -1    0    0  501  502 -0.00000000000E+00 -0.00000000000E+00 -0.12592587169E+03  0.12592587169E+03  0.00000000000E+00 0.  1.
      99926    2    1    2    0    0  0.14210854715E-13  0.00000000000E+00  0.28137932707E+03  0.53323107044E+03  0.45294707062E+03 0.  0.
      99925    2    3    3    0    0 -0.76976311537E+02 -0.10756637644E+02  0.83869104816E+02  0.28685969673E+03  0.26308439914E+03 0.  0.
         25    1    3    3    0    0  0.76976311537E+02  0.10756637644E+02  0.19751022225E+03  0.24637137371E+03  0.12509000000E+03 0.  0.
         25    1    4    4    0    0 -0.48952472352E+02  0.76716503276E+01  0.38031471669E+01  0.13460004011E+03  0.12509000000E+03 0.  0.
         25    1    4    4    0    0 -0.28023839184E+02 -0.18428287971E+02  0.80065957649E+02  0.15225965662E+03  0.12509000000E+03 0.  0.
<mgrwt>
<rscale>  2 0.45294707E+03</rscale>
<asrwt>0</asrwt>
<pdfrwt beam="1">  1       21 0.59897823E-01 0.45294707E+03</pdfrwt>
<pdfrwt beam="2">  1       21 0.18518511E-01 0.45294707E+03</pdfrwt>
<totfact> 0.64022407E+04</totfact>
</mgrwt>
</event>
<event>
 7    0  0.4779893E-002  0.4549017E+03  0.7546771E-02  0.1026270E+00
         21   -1    0    0  502  501  0.00000000000E+00  0.00000000000E+00  0.14086530364E+04  0.14086530364E+04  0.00000000000E+00 0. -1.
         21   -1    0    0  501  502 -0.00000000000E+00 -0.00000000000E+00 -0.36725780965E+02  0.36725780965E+02  0.00000000000E+00 0. -1.
      99926    2    1    2    0    0 -0.88817841970E-15  0.00000000000E+00  0.13719272554E+04  0.14453788174E+04  0.45490167232E+03 0.  0.
      99925    2    3    3    0    0 -0.57826239247E+01 -0.13184285775E+02  0.12195492608E+04  0.12477078142E+04  0.26318648533E+03 0.  0.
         25    1    3    3    0    0  0.57826239247E+01  0.13184285775E+02  0.15237799466E+03  0.19767100315E+03  0.12509000000E+03 0.  0.
         25    1    4    4    0    0  0.37115406442E+02 -0.20288842815E+01  0.57147579625E+03  0.58618577564E+03  0.12509000000E+03 0.  0.
         25    1    4    4    0    0 -0.42898030367E+02 -0.11155401493E+02  0.64807346452E+03  0.66152203857E+03  0.12509000000E+03 0.  0.
<mgrwt>
<rscale>  2 0.45490167E+03</rscale>
<asrwt>0</asrwt>
<pdfrwt beam="1">  1       21 0.20715482E+00 0.45490167E+03</pdfrwt>
<pdfrwt beam="2">  1       21 0.54008511E-02 0.45490167E+03</pdfrwt>
<totfact> 0.25166657E+04</totfact>
</mgrwt>
</event>
<event>
 7    0  0.4779893E-002  0.4569722E+03  0.7546771E-02  0.1025663E+00
         21   -1    0    0  502  501  0.00000000000E+00  0.00000000000E+00  0.46585813620E+02  0.46585813620E+02  0.00000000000E+00 0.  1.
         21   -1    0    0  501  502 -0.00000000000E+00 -0.00000000000E+00 -0.11206396308E+04  0.11206396308E+04  0.00000000000E+00 0.  1.
      99926    2    1    2    0    0  0.00000000000E+00 -0.71054273576E-14 -0.10740538171E+04  0.11672254444E+04  0.45697224850E+03 0.  0.
      99925    2    3    3    0    0  0.93992881343E+02 -0.46948173492E+02 -0.55534742825E+03  0.62340321358E+03  0.26302472869E+03 0.  0.
         25    1    3    3    0    0 -0.93992881343E+02  0.46948173492E+02 -0.51870638888E+03  0.54382223079E+03  0.12509000000E+03 0.  0.
         25    1    4    4    0    0  0.80546070435E+01 -0.20545794649E+02 -0.21308632289E+03  0.24807316557E+03  0.12509000000E+03 0.  0.
         25    1    4    4    0    0  0.85938274299E+02 -0.26402378844E+02 -0.34226110536E+03  0.37533004802E+03  0.12509000000E+03 0.  0.
<mgrwt>
<rscale>  2 0.45697225E+03</rscale>
<asrwt>0</asrwt>
<pdfrwt beam="1">  1       21 0.68508534E-02 0.45697225E+03</pdfrwt>
<pdfrwt beam="2">  1       21 0.16479998E+00 0.45697225E+03</pdfrwt>
<totfact> 0.32706862E+04</totfact>
</mgrwt>
</event>
<event>
 7    0  0.4779893E-002  0.4561592E+03  0.7546771E-02  0.1025901E+00
         21   -1    0    0  502  501  0.00000000000E+00  0.00000000000E+00  0.93683133085E+03  0.93683133085E+03  0.00000000000E+00 0.  1.
         21   -1    0    0  501  502 -0.00000000000E+00 -0.00000000000E+00 -0.55527918532E+02  0.55527918532E+02  0.00000000000E+00 0.  1.
      99926    2    1    2    0    0  0.14210854715E-13  0.71054273576E-14  0.88130341232E+03  0.99235924939E+03  0.45615915564E+03 0.  0.
      99925    2    3    3    0    0  0.70230948847E+02  0.55536552492E+02  0.70815479518E+03  0.76074610952E+03  0.26312494063E+03 0.  0.
         25    1    4    4    0    0  0.73656067854E+02  0.46317482010E+02  0.39800671333E+03  0.42617763600E+03  0.12509000000E+03 0.  0.
         25    1    4    4    0    0 -0.34251190072E+01  0.92190704826E+01  0.31014808184E+03  0.33456847352E+03  0.12509000000E+03 0.  0.
         25    1    3    3    0    0 -0.70230948847E+02 -0.55536552492E+02  0.17314861715E+03  0.23161313987E+03  0.12509000000E+03 0.  0.
<mgrwt>
<rscale>  2 0.45615916E+03</rscale>
<asrwt>0</asrwt>
<pdfrwt beam="1">  1       21 0.13776930E+00 0.45615916E+03</pdfrwt>
<pdfrwt beam="2">  1       21 0.81658709E-02 0.45615916E+03</pdfrwt>
<totfact> 0.39109984E+04</totfact>
</mgrwt>
</event>
<event>
 7    0  0.4779893E-002  0.4465576E+03  0.7546771E-02  0.1028754E+00
         21   -1    0    0  502  501  0.00000000000E+00  0.00000000000E+00  0.77735562319E+02  0.77735562319E+02  0.00000000000E+00 0. -1.
         21   -1    0    0  501  502 -0.00000000000E+00 -0.00000000000E+00 -0.64132058239E+03  0.64132058239E+03  0.00000000000E+00 0. -1.
      99926    2    1    2    0    0  0.00000000000E+00  0.00000000000E+00 -0.56358502007E+03  0.71905614471E+03  0.44655757120E+03 0.  0.
      99925    2    3    3    0    0 -0.61372135540E+02  0.73252182797E+02 -0.28688515731E+03  0.40071239425E+03  0.26293517854E+03 0.  0.
         25    1    4    4    0    0 -0.49745461382E+02  0.63646025872E+02 -0.11792184566E+03  0.18994340557E+03  0.12509000000E+03 0.  0.
         25    1    3    3    0    0  0.61372135540E+02 -0.73252182797E+02 -0.27669986277E+03  0.31834375046E+03  0.12509000000E+03 0.  0.
         25    1    4    4    0    0 -0.11626674159E+02  0.96061569254E+01 -0.16896331165E+03  0.21076898867E+03  0.12509000000E+03 0.  0.
<mgrwt>
<rscale>  2 0.44655757E+03</rscale>
<asrwt>0</asrwt>
<pdfrwt beam="1">  1       21 0.11431700E-01 0.44655757E+03</pdfrwt>
<pdfrwt beam="2">  1       21 0.94311856E-01 0.44655757E+03</pdfrwt>
<totfact> 0.55473533E+04</totfact>
</mgrwt>
</event>
<event>
 7    0  0.4779893E-002  0.4565573E+03  0.7546771E-02  0.1025784E+00
         21   -1    0    0  502  501  0.00000000000E+00  0.00000000000E+00  0.46775553782E+02  0.46775553782E+02  0.00000000000E+00 0.  1.
         21   -1    0    0  501  502 -0.00000000000E+00 -0.00000000000E+00 -0.11140679516E+04  0.11140679516E+04  0.00000000000E+00 0.  1.
      99926    2    1    2    0    0  0.00000000000E+00  0.71054273576E-14 -0.10672923978E+04  0.11608435053E+04  0.45655731463E+03 0.  0.
      99925    2    3    3    0    0 -0.89507700211E+02  0.61944016607E+02 -0.57994537857E+03  0.64605877866E+03  0.26307149935E+03 0.  0.
         25    1    3    3    0    0  0.89507700211E+02 -0.61944016607E+02 -0.48734701920E+03  0.51478472667E+03  0.12509000000E+03 0.  0.
         25    1    4    4    0    0 -0.17922458107E+02  0.12067524187E+02 -0.20291830516E+03  0.23935368456E+03  0.12509000000E+03 0.  0.
         25    1    4    4    0    0 -0.71585242104E+02  0.49876492420E+02 -0.37702707341E+03  0.40670509410E+03  0.12509000000E+03 0.  0.
<mgrwt>
<rscale>  2 0.45655731E+03</rscale>
<asrwt>0</asrwt>
<pdfrwt beam="1">  1       21 0.68787566E-02 0.45655731E+03</pdfrwt>
<pdfrwt beam="2">  1       21 0.16383355E+00 0.45655731E+03</pdfrwt>
<totfact> 0.33019824E+04</totfact>
</mgrwt>
</event>
<event>
 7    0  0.4779893E-002  0.4508324E+03  0.7546771E-02  0.1027474E+00
         21   -1    0    0  502  501  0.00000000000E+00  0.00000000000E+00  0.15946061898E+03  0.15946061898E+03  0.00000000000E+00 0. -1.
         21   -1    0    0  501  502 -0.00000000000E+00 -0.00000000000E+00 -0.31865205907E+03  0.31865205907E+03  0.00000000000E+00 0. -1.
      99926    2    1    2    0    0  0.00000000000E+00  0.00000000000E+00 -0.15919144009E+03  0.47811267805E+03  0.45083236165E+03 0.  0.
      99925    2    3    3    0    0 -0.97086274511E+02  0.49536336270E+02 -0.93662085227E+02  0.29972770739E+03  0.26302950225E+03 0.  0.
         25    1    3    3    0    0  0.97086274511E+02 -0.49536336270E+02 -0.65529354859E+02  0.17838497066E+03  0.12509000000E+03 0.  0.
         25    1    4    4    0    0 -0.60919756864E+02 -0.84572800515E+01 -0.25423301997E+02  0.14169190078E+03  0.12509000000E+03 0.  0.
         25    1    4    4    0    0 -0.36166517647E+02  0.57993616321E+02 -0.68238783230E+02  0.15803580661E+03  0.12509000000E+03 0.  0.
<mgrwt>
<rscale>  2 0.45083236E+03</rscale>
<asrwt>0</asrwt>
<pdfrwt beam="1">  1       21 0.23450091E-01 0.45083236E+03</pdfrwt>
<pdfrwt beam="2">  1       21 0.46860596E-01 0.45083236E+03</pdfrwt>
<totfact> 0.69095338E+04</totfact>
</mgrwt>
</event>
<event>
 7    0  0.4779893E-002  0.4397542E+03  0.7546771E-02  0.1030822E+00
         21   -1    0    0  502  501  0.00000000000E+00  0.00000000000E+00  0.33698513343E+03  0.33698513343E+03  0.00000000000E+00 0. -1.
         21   -1    0    0  501  502 -0.00000000000E+00 -0.00000000000E+00 -0.14346606130E+03  0.14346606130E+03  0.00000000000E+00 0. -1.
      99926    2    1    2    0    0 -0.71054273576E-14 -0.18873791419E-14  0.19351907213E+03  0.48045119473E+03  0.43975415773E+03 0.  0.
      99925    2    3    3    0    0 -0.44325723951E+02 -0.90576565784E+00  0.21933128373E+03  0.34524997956E+03  0.26291775549E+03 0.  0.
         25    1    4    4    0    0 -0.50455060538E+02 -0.24366323976E+02  0.13544300846E+03  0.19269599768E+03  0.12509000000E+03 0.  0.
         25    1    3    3    0    0  0.44325723951E+02  0.90576565784E+00 -0.25812211602E+02  0.13520121517E+03  0.12509000000E+03 0.  0.
         25    1    4    4    0    0  0.61293365872E+01  0.23460558318E+02  0.83888275264E+02  0.15255398189E+03  0.12509000000E+03 0.  0.
<mgrwt>
<rscale>  2 0.43975416E+03</rscale>
<asrwt>0</asrwt>
<pdfrwt beam="1">  1       21 0.49556637E-01 0.43975416E+03</pdfrwt>
<pdfrwt beam="2">  1       21 0.21097950E-01 0.43975416E+03</pdfrwt>
<totfact> 0.75386379E+04</totfact>
</mgrwt>
</event>
<event>
 6    0  0.4779893E-002  0.4559655E+03  0.7546771E-02  0.1025958E+00
         21   -1    0    0  502  501  0.00000000000E+00  0.00000000000E+00  0.13595669422E+04  0.13595669422E+04  0.00000000000E+00 0. -1.
         21   -1    0    0  501  502 -0.00000000000E+00 -0.00000000000E+00 -0.38229915318E+02  0.38229915318E+02  0.00000000000E+00 0. -1.
      99926    2    1    2    0    0  0.00000000000E+00  0.00000000000E+00  0.13213370269E+04  0.13977968576E+04  0.45596547707E+03 0.  0.
         25    1    3    3    0    0  0.72030107520E+01  0.18405050035E+02  0.60391016434E+03  0.61704588478E+03  0.12509000000E+03 0.  0.
         25    1    3    3    0    0 -0.22002446228E+02  0.71109128105E+02  0.26061742895E+03  0.29851225790E+03  0.12509000000E+03 0.  0.
         25    1    3    3    0    0  0.14799435476E+02 -0.89514178140E+02  0.45680943363E+03  0.48223871488E+03  0.12509000000E+03 0.  0.
<mgrwt>
<rscale>  2 0.45596548E+03</rscale>
<asrwt>0</asrwt>
<pdfrwt beam="1">  1       21 0.19993628E+00 0.45596548E+03</pdfrwt>
<pdfrwt beam="2">  1       21 0.56220473E-02 0.45596548E+03</pdfrwt>
<totfact> 0.26193690E+04</totfact>
</mgrwt>
</event>
<event>
 7    0  0.4779893E-002  0.4572984E+03  0.7546771E-02  0.1025568E+00
         21   -1    0    0  502  501  0.00000000000E+00  0.00000000000E+00  0.84108590441E+03  0.84108590441E+03  0.00000000000E+00 0.  1.
         21   -1    0    0  501  502 -0.00000000000E+00 -0.00000000000E+00 -0.62158287627E+02  0.62158287627E+02  0.00000000000E+00 0.  1.
      99926    2    1    2    0    0  0.00000000000E+00  0.00000000000E+00  0.77892761679E+03  0.90324419204E+03  0.45729841271E+03 0.  0.
      99925    2    3    3    0    0 -0.64079662160E+02  0.35973770716E+02  0.31348253403E+03  0.41571270748E+03  0.26295520670E+03 0.  0.
         25    1    3    3    0    0  0.64079662160E+02 -0.35973770716E+02  0.46544508275E+03  0.48753148456E+03  0.12509000000E+03 0.  0.
         25    1    4    4    0    0  0.64259708900E+01  0.44179874121E+01  0.12971136569E+03  0.18037005906E+03  0.12509000000E+03 0.  0.
         25    1    4    4    0    0 -0.70505633050E+02  0.31555783304E+02  0.18377116834E+03  0.23534264842E+03  0.12509000000E+03 0.  0.
<mgrwt>
<rscale>  2 0.45729841E+03</rscale>
<asrwt>0</asrwt>
<pdfrwt beam="1">  1       21 0.12368910E+00 0.45729841E+03</pdfrwt>
<pdfrwt beam="2">  1       21 0.91409251E-02 0.45729841E+03</pdfrwt>
<totfact> 0.42326917E+04</totfact>
</mgrwt>
</event>
<event>
 7    0  0.4779893E-002  0.4554467E+03  0.7546771E-02  0.1026110E+00
         21   -1    0    0  502  501  0.00000000000E+00  0.00000000000E+00  0.31986174574E+02  0.31986174574E+02  0.00000000000E+00 0. -1.
         21   -1    0    0  501  502 -0.00000000000E+00 -0.00000000000E+00 -0.16212604933E+04  0.16212604933E+04  0.00000000000E+00 0. -1.
      99926    2    1    2    0    0  0.00000000000E+00  0.00000000000E+00 -0.15892743187E+04  0.16532466678E+04  0.45544668697E+03 0.  0.
      99925    2    3    3    0    0  0.82631402813E+02 -0.30992437018E+02 -0.12589925185E+04  0.12892108790E+04  0.26308563080E+03 0.  0.
         25    1    3    3    0    0 -0.82631402813E+02  0.30992437018E+02 -0.33028180017E+03  0.36403578878E+03  0.12509000000E+03 0.  0.
         25    1    4    4    0    0  0.58696325466E+00 -0.57620577033E+01 -0.61032297974E+03  0.62303707236E+03  0.12509000000E+03 0.  0.
         25    1    4    4    0    0  0.82044439558E+02 -0.25230379315E+02 -0.64866953876E+03  0.66617380669E+03  0.12509000000E+03 0.  0.
<mgrwt>
<rscale>  2 0.45544669E+03</rscale>
<asrwt>0</asrwt>
<pdfrwt beam="1">  1       21 0.47038488E-02 0.45544669E+03</pdfrwt>
<pdfrwt beam="2">  1       21 0.23842068E+00 0.45544669E+03</pdfrwt>
<totfact> 0.20182756E+04</totfact>
</mgrwt>
</event>
<event>
 7    0  0.4779893E-002  0.4557667E+03  0.7546771E-02  0.1026016E+00
         21   -1    0    0  502  501  0.00000000000E+00  0.00000000000E+00  0.12747877639E+04  0.12747877639E+04  0.00000000000E+00 0.  1.
         21   -1    0    0  501  502 -0.00000000000E+00 -0.00000000000E+00 -0.40736834060E+02  0.40736834060E+02  0.00000000000E+00 0.  1.
      99926    2    1    2    0    0 -0.71054273576E-14 -0.71054273576E-14  0.12340509298E+04  0.13155245979E+04  0.45576668416E+03 0.  0.
      99925    2    3    3    0    0 -0.56353035157E+02 -0.44201244325E+02  0.10317539217E+04  0.10671277337E+04  0.26289927826E+03 0.  0.
         25    1    3    3    0    0  0.56353035157E+02  0.44201244325E+02  0.20229700812E+03  0.24839686424E+03  0.12509000000E+03 0.  0.
         25    1    4    4    0    0 -0.64394130128E+00  0.62135352494E+00  0.56298887020E+03  0.57671897560E+03  0.12509000000E+03 0.  0.
         25    1    4    4    0    0 -0.55709093856E+02 -0.44822597850E+02  0.46876505150E+03  0.49040875810E+03  0.12509000000E+03 0.  0.
<mgrwt>
<rscale>  2 0.45576668E+03</rscale>
<asrwt>0</asrwt>
<pdfrwt beam="1">  1       21 0.18746876E+00 0.45576668E+03</pdfrwt>
<pdfrwt beam="2">  1       21 0.59907117E-02 0.45576668E+03</pdfrwt>
<totfact> 0.28496870E+04</totfact>
</mgrwt>
</event>
<event>
 7    0  0.4779893E-002  0.4610757E+03  0.7546771E-02  0.1024470E+00
         21   -1    0    0  502  501  0.00000000000E+00  0.00000000000E+00  0.10657805931E+03  0.10657805931E+03  0.00000000000E+00 0.  1.
         21   -1    0    0  501  502 -0.00000000000E+00 -0.00000000000E+00 -0.49867386385E+03  0.49867386385E+03  0.00000000000E+00 0.  1.
      99926    2    1    2    0    0  0.71054273576E-14  0.00000000000E+00 -0.39209580454E+03  0.60525192317E+03  0.46107566685E+03 0.  0.
      99925    2    3    3    0    0 -0.60718278674E+02 -0.28317234873E+02 -0.37418137346E+03  0.46222391858E+03  0.26296516025E+03 0.  0.
         25    1    4    4    0    0 -0.66165914108E+02 -0.66968284842E+00 -0.22144429959E+03  0.26279928193E+03  0.12509000000E+03 0.  0.
         25    1    3    3    0    0  0.60718278674E+02  0.28317234873E+02 -0.17914431081E+02  0.14302800459E+03  0.12509000000E+03 0.  0.
         25    1    4    4    0    0  0.54476354340E+01 -0.27647552024E+02 -0.15273707387E+03  0.19942463664E+03  0.12509000000E+03 0.  0.
<mgrwt>
<rscale>  2 0.46107567E+03</rscale>
<asrwt>0</asrwt>
<pdfrwt beam="1">  1       21 0.15673244E-01 0.46107567E+03</pdfrwt>
<pdfrwt beam="2">  1       21 0.73334391E-01 0.46107567E+03</pdfrwt>
<totfact> 0.55637120E+04</totfact>
</mgrwt>
</event>
<event>
 7    0  0.4779893E-002  0.4538003E+03  0.7546771E-02  0.1026595E+00
         21   -1    0    0  502  501  0.00000000000E+00  0.00000000000E+00  0.21247510081E+03  0.21247510081E+03  0.00000000000E+00 0.  1.
         21   -1    0    0  501  502 -0.00000000000E+00 -0.00000000000E+00 -0.24230450643E+03  0.24230450643E+03  0.00000000000E+00 0.  1.
      99926    2    1    2    0    0  0.00000000000E+00  0.00000000000E+00 -0.29829405616E+02  0.45477960724E+03  0.45380028396E+03 0.  0.
      99925    2    3    3    0    0 -0.82035843401E+02  0.68779938166E+02 -0.54997377221E+02  0.28822182630E+03  0.26189033995E+03 0.  0.
         25    1    4    4    0    0 -0.60563976380E+02  0.24922376487E+01 -0.37480503097E+02  0.14396701947E+03  0.12509000000E+03 0.  0.
         25    1    3    3    0    0  0.82035843401E+02 -0.68779938166E+02  0.25167971605E+02  0.16655778094E+03  0.12509000000E+03 0.  0.
         25    1    4    4    0    0 -0.21471867022E+02  0.66287700517E+02 -0.17516874125E+02  0.14425480683E+03  0.12509000000E+03 0.  0.
<mgrwt>
<rscale>  2 0.45380028E+03</rscale>
<asrwt>0</asrwt>
<pdfrwt beam="1">  1       21 0.31246338E-01 0.45380028E+03</pdfrwt>
<pdfrwt beam="2">  1       21 0.35633016E-01 0.45380028E+03</pdfrwt>
<totfact> 0.69222222E+04</totfact>
</mgrwt>
</event>
<event>
 7    0  0.4779893E-002  0.4406714E+03  0.7546771E-02  0.1030541E+00
         21   -1    0    0  502  501  0.00000000000E+00  0.00000000000E+00  0.81683899710E+02  0.81683899710E+02  0.00000000000E+00 0. -1.
         21   -1    0    0  501  502 -0.00000000000E+00 -0.00000000000E+00 -0.59433776495E+03  0.59433776495E+03  0.00000000000E+00 0. -1.
      99926    2    1    2    0    0 -0.44408920985E-14 -0.14210854715E-13 -0.51265386524E+03  0.67602166466E+03  0.44067142583E+03 0.  0.
      99925    2    3    3    0    0 -0.74823879136E+01  0.91154292688E+02 -0.38530650835E+03  0.47544761696E+03  0.26310499785E+03 0.  0.
         25    1    4    4    0    0  0.33125465790E+02  0.59124892796E+02 -0.17812645979E+03  0.22796840397E+03  0.12509000000E+03 0.  0.
         25    1    3    3    0    0  0.74823879136E+01 -0.91154292688E+02 -0.12734735689E+03  0.20057404770E+03  0.12509000000E+03 0.  0.
         25    1    4    4    0    0 -0.40607853704E+02  0.32029399892E+02 -0.20718004856E+03  0.24747921299E+03  0.12509000000E+03 0.  0.
<mgrwt>
<rscale>  2 0.44067143E+03</rscale>
<asrwt>0</asrwt>
<pdfrwt beam="1">  1       21 0.12012339E-01 0.44067143E+03</pdfrwt>
<pdfrwt beam="2">  1       21 0.87402607E-01 0.44067143E+03</pdfrwt>
<totfact> 0.60800256E+04</totfact>
</mgrwt>
</event>
<event>
 7    0  0.4779893E-002  0.4556952E+03  0.7546771E-02  0.1026037E+00
         21   -1    0    0  502  501  0.00000000000E+00  0.00000000000E+00  0.42441670761E+03  0.42441670761E+03  0.00000000000E+00 0.  1.
         21   -1    0    0  501  502 -0.00000000000E+00 -0.00000000000E+00 -0.12231970323E+03  0.12231970323E+03  0.00000000000E+00 0.  1.
      99926    2    1    2    0    0  0.00000000000E+00  0.00000000000E+00  0.30209700438E+03  0.54673641084E+03  0.45569518637E+03 0.  0.
      99925    2    3    3    0    0  0.56159630596E+02 -0.48845581296E+02  0.29326901876E+03  0.40091036258E+03  0.26302586666E+03 0.  0.
         25    1    4    4    0    0  0.34271362937E+02  0.15331753474E+02  0.15205526692E+03  0.20044425978E+03  0.12509000000E+03 0.  0.
         25    1    4    4    0    0  0.21888267659E+02 -0.64177334770E+02  0.14121375184E+03  0.20046610279E+03  0.12509000000E+03 0.  0.
         25    1    3    3    0    0 -0.56159630596E+02  0.48845581296E+02  0.88279856151E+01  0.14582604826E+03  0.12509000000E+03 0.  0.
<mgrwt>
<rscale>  2 0.45569519E+03</rscale>
<asrwt>0</asrwt>
<pdfrwt beam="1">  1       21 0.62414221E-01 0.45569519E+03</pdfrwt>
<pdfrwt beam="2">  1       21 0.17988192E-01 0.45569519E+03</pdfrwt>
<totfact> 0.61742361E+04</totfact>
</mgrwt>
</event>
<event>
 7    0  0.4779893E-002  0.4564683E+03  0.7546771E-02  0.1025811E+00
         21   -1    0    0  502  501  0.00000000000E+00  0.00000000000E+00  0.10882056689E+03  0.10882056689E+03  0.00000000000E+00 0. -1.
         21   -1    0    0  501  502 -0.00000000000E+00 -0.00000000000E+00 -0.47868541365E+03  0.47868541365E+03  0.00000000000E+00 0. -1.
      99926    2    1    2    0    0  0.00000000000E+00 -0.71054273576E-14 -0.36986484677E+03  0.58750598054E+03  0.45646825990E+03 0.  0.
      99925    2    3    3    0    0 -0.42751313916E+02 -0.51382241376E+02 -0.35189432398E+03  0.44454354715E+03  0.26328984123E+03 0.  0.
         25    1    4    4    0    0  0.61618978455E+01 -0.11754152279E+02 -0.12124483745E+03  0.17471104083E+03  0.12509000000E+03 0.  0.
         25    1    3    3    0    0  0.42751313916E+02  0.51382241376E+02 -0.17970522788E+02  0.14296243339E+03  0.12509000000E+03 0.  0.
         25    1    4    4    0    0 -0.48913211762E+02 -0.39628089097E+02 -0.23064948653E+03  0.26983250632E+03  0.12509000000E+03 0.  0.
<mgrwt>
<rscale>  2 0.45646826E+03</rscale>
<asrwt>0</asrwt>
<pdfrwt beam="1">  1       21 0.16003025E-01 0.45646826E+03</pdfrwt>
<pdfrwt beam="2">  1       21 0.70394914E-01 0.45646826E+03</pdfrwt>
<totfact> 0.58768965E+04</totfact>
</mgrwt>
</event>
<event>
 7    0  0.4779893E-002  0.4507757E+03  0.7546771E-02  0.1027491E+00
         21   -1    0    0  502  501  0.00000000000E+00  0.00000000000E+00  0.39348505200E+02  0.39348505200E+02  0.00000000000E+00 0. -1.
         21   -1    0    0  501  502 -0.00000000000E+00 -0.00000000000E+00 -0.12910195387E+04  0.12910195387E+04  0.00000000000E+00 0. -1.
      99926    2    1    2    0    0  0.17763568394E-14  0.14210854715E-13 -0.12516710335E+04  0.13303680439E+04  0.45077572708E+03 0.  0.
      99925    2    3    3    0    0 -0.15008894689E+02 -0.77862422002E+02 -0.56850010673E+03  0.63132738202E+03  0.26285750561E+03 0.  0.
         25    1    3    3    0    0  0.15008894689E+02  0.77862422002E+02 -0.68317092676E+03  0.69904066187E+03  0.12509000000E+03 0.  0.
         25    1    4    4    0    0 -0.37370520736E+02 -0.18592978366E+02 -0.31793006334E+03  0.34419367795E+03  0.12509000000E+03 0.  0.
         25    1    4    4    0    0  0.22361626047E+02 -0.59269443636E+02 -0.25057004339E+03  0.28713370407E+03  0.12509000000E+03 0.  0.
<mgrwt>
<rscale>  2 0.45077573E+03</rscale>
<asrwt>0</asrwt>
<pdfrwt beam="1">  1       21 0.57865452E-02 0.45077573E+03</pdfrwt>
<pdfrwt beam="2">  1       21 0.18985580E+00 0.45077573E+03</pdfrwt>
<totfact> 0.29192528E+04</totfact>
</mgrwt>
</event>
<event>
 7    0  0.4779893E-002  0.4500199E+03  0.7546771E-02  0.1027716E+00
         21   -1    0    0  502  501  0.00000000000E+00  0.00000000000E+00  0.57109817625E+02  0.57109817625E+02  0.00000000000E+00 0. -1.
         21   -1    0    0  501  502 -0.00000000000E+00 -0.00000000000E+00 -0.88652855649E+03  0.88652855649E+03  0.00000000000E+00 0. -1.
      99926    2    1    2    0    0  0.35527136788E-14  0.00000000000E+00 -0.82941873886E+03  0.94363837411E+03  0.45001992925E+03 0.  0.
      99925    2    3    3    0    0  0.25716504715E+02 -0.34539558587E+02 -0.73296359734E+03  0.77991475899E+03  0.26301535420E+03 0.  0.
         25    1    4    4    0    0  0.40515294708E+02  0.83772731198E+01 -0.40852686156E+03  0.42924744906E+03  0.12509000000E+03 0.  0.
         25    1    4    4    0    0 -0.14798789992E+02 -0.42916831707E+02 -0.32443673578E+03  0.35066730993E+03  0.12509000000E+03 0.  0.
         25    1    3    3    0    0 -0.25716504715E+02  0.34539558587E+02 -0.96455141521E+02  0.16372361512E+03  0.12509000000E+03 0.  0.
<mgrwt>
<rscale>  2 0.45001993E+03</rscale>
<asrwt>0</asrwt>
<pdfrwt beam="1">  1       21 0.83985025E-02 0.45001993E+03</pdfrwt>
<pdfrwt beam="2">  1       21 0.13037185E+00 0.45001993E+03</pdfrwt>
<totfact> 0.43051856E+04</totfact>
</mgrwt>
</event>
<event>
 7    0  0.4779893E-002  0.4559058E+03  0.7546771E-02  0.1025975E+00
         21   -1    0    0  502  501  0.00000000000E+00  0.00000000000E+00  0.37091084952E+02  0.37091084952E+02  0.00000000000E+00 0. -1.
         21   -1    0    0  501  502 -0.00000000000E+00 -0.00000000000E+00 -0.14009436487E+04  0.14009436487E+04  0.00000000000E+00 0. -1.
      99926    2    1    2    0    0  0.00000000000E+00  0.00000000000E+00 -0.13638525637E+04  0.14380347336E+04  0.45590577924E+03 0.  0.
      99925    2    3    3    0    0  0.46577899951E+02 -0.85379695689E+02 -0.66911373330E+03  0.72545579499E+03  0.26289490141E+03 0.  0.
         25    1    4    4    0    0  0.25888737692E+02 -0.33144245945E+02 -0.22711202756E+03  0.26267118026E+03  0.12509000000E+03 0.  0.
         25    1    3    3    0    0 -0.46577899951E+02  0.85379695689E+02 -0.69473883040E+03  0.71257893862E+03  0.12509000000E+03 0.  0.
         25    1    4    4    0    0  0.20689162259E+02 -0.52235449744E+02 -0.44200170574E+03  0.46278461472E+03  0.12509000000E+03 0.  0.
<mgrwt>
<rscale>  2 0.45590578E+03</rscale>
<asrwt>0</asrwt>
<pdfrwt beam="1">  1       21 0.54545710E-02 0.45590578E+03</pdfrwt>
<pdfrwt beam="2">  1       21 0.20602114E+00 0.45590578E+03</pdfrwt>
<totfact> 0.25158327E+04</totfact>
</mgrwt>
</event>
<event>
 7    0  0.4779893E-002  0.4573102E+03  0.7546771E-02  0.1025564E+00
         21   -1    0    0  502  501  0.00000000000E+00  0.00000000000E+00  0.75514582606E+02  0.75514582606E+02  0.00000000000E+00 0. -1.
         21   -1    0    0  501  502 -0.00000000000E+00 -0.00000000000E+00 -0.69235828115E+03  0.69235828115E+03  0.00000000000E+00 0. -1.
      99926    2    1    2    0    0 -0.14210854715E-13  0.00000000000E+00 -0.61684369854E+03  0.76787286376E+03  0.45731016440E+03 0.  0.
      99925    2    3    3    0    0  0.84979254363E+02  0.28719456037E+02 -0.50916809244E+03  0.58002232456E+03  0.26292103339E+03 0.  0.
         25    1    3    3    0    0 -0.84979254363E+02 -0.28719456037E+02 -0.10767560610E+03  0.18785053920E+03  0.12509000000E+03 0.  0.
         25    1    4    4    0    0  0.13067250117E+02 -0.28323274982E+01 -0.28551401938E+03  0.31200086292E+03  0.12509000000E+03 0.  0.
         25    1    4    4    0    0  0.71912004247E+02  0.31551783535E+02 -0.22365407306E+03  0.26802146164E+03  0.12509000000E+03 0.  0.
<mgrwt>
<rscale>  2 0.45731016E+03</rscale>
<asrwt>0</asrwt>
<pdfrwt beam="1">  1       21 0.11105085E-01 0.45731016E+03</pdfrwt>
<pdfrwt beam="2">  1       21 0.10181740E+00 0.45731016E+03</pdfrwt>
<totfact> 0.48472832E+04</totfact>
</mgrwt>
</event>
<event>
 7    0  0.4779893E-002  0.4614459E+03  0.7546771E-02  0.1024363E+00
         21   -1    0    0  502  501  0.00000000000E+00  0.00000000000E+00  0.16014913256E+03  0.16014913256E+03  0.00000000000E+00 0.  1.
         21   -1    0    0  501  502 -0.00000000000E+00 -0.00000000000E+00 -0.33239698045E+03  0.33239698045E+03  0.00000000000E+00 0.  1.
      99926    2    1    2    0    0  0.00000000000E+00  0.00000000000E+00 -0.17224784789E+03  0.49254611301E+03  0.46144593653E+03 0.  0.
      99925    2    3    3    0    0  0.78344656711E+02  0.84528659926E+02 -0.75900087568E+02  0.29706368771E+03  0.26306469105E+03 0.  0.
         25    1    3    3    0    0 -0.78344656711E+02 -0.84528659926E+02 -0.96347760325E+02  0.19548242531E+03  0.12509000000E+03 0.  0.
         25    1    4    4    0    0  0.11020651499E+02  0.33341507711E+02 -0.44160579964E+01  0.13000046371E+03  0.12509000000E+03 0.  0.
         25    1    4    4    0    0  0.67324005211E+02  0.51187152215E+02 -0.71484029572E+02  0.16706322400E+03  0.12509000000E+03 0.  0.
<mgrwt>
<rscale>  2 0.46144594E+03</rscale>
<asrwt>0</asrwt>
<pdfrwt beam="1">  1       21 0.23551344E-01 0.46144594E+03</pdfrwt>
<pdfrwt beam="2">  1       21 0.48881908E-01 0.46144594E+03</pdfrwt>
<totfact> 0.62535703E+04</totfact>
</mgrwt>
</event>
<event>
 7    0  0.4779893E-002  0.5065091E+03  0.7546771E-02  0.1012094E+00
         21   -1    0    0  502  501  0.00000000000E+00  0.00000000000E+00  0.14832904015E+03  0.14832904015E+03  0.00000000000E+00 0.  1.
         21   -1    0    0  501  502 -0.00000000000E+00 -0.00000000000E+00 -0.43240267197E+03  0.43240267197E+03  0.00000000000E+00 0.  1.
      99926    2    1    2    0    0 -0.35527136788E-14  0.00000000000E+00 -0.28407363182E+03  0.58073171212E+03  0.50650912447E+03 0.  0.
      99925    2    3    3    0    0 -0.28794504117E+02 -0.67286015465E+02 -0.33042597572E+03  0.42857199594E+03  0.26293744299E+03 0.  0.
         25    1    4    4    0    0  0.21601612612E+01 -0.15268570305E+02 -0.20883748770E+03  0.24392293846E+03  0.12509000000E+03 0.  0.
         25    1    4    4    0    0 -0.30954665378E+02 -0.52017445160E+02 -0.12158848801E+03  0.18464905748E+03  0.12509000000E+03 0.  0.
         25    1    3    3    0    0  0.28794504117E+02  0.67286015465E+02  0.46352343903E+02  0.15215971619E+03  0.12509000000E+03 0.  0.
<mgrwt>
<rscale>  2 0.50650912E+03</rscale>
<asrwt>0</asrwt>
<pdfrwt beam="1">  1       21 0.21813094E-01 0.50650912E+03</pdfrwt>
<pdfrwt beam="2">  1       21 0.63588629E-01 0.50650912E+03</pdfrwt>
<totfact> 0.40617238E+04</totfact>
</mgrwt>
</event>
<event>
 7    0  0.4779893E-002  0.4530778E+03  0.7546771E-02  0.1026808E+00
         21   -1    0    0  502  501  0.00000000000E+00  0.00000000000E+00  0.37081742471E+03  0.37081742471E+03  0.00000000000E+00 0. -1.
         21   -1    0    0  501  502 -0.00000000000E+00 -0.00000000000E+00 -0.13839663067E+03  0.13839663067E+03  0.00000000000E+00 0. -1.
      99926    2    1    2    0    0  0.00000000000E+00 -0.14210854715E-13  0.23242079404E+03  0.50921405538E+03  0.45307783955E+03 0.  0.
      99925    2    3    3    0    0 -0.37031753318E+02  0.73425078367E+02  0.23089098025E+03  0.35950620216E+03  0.26300469909E+03 0.  0.
         25    1    4    4    0    0 -0.15193350754E+02 -0.44161974872E+01  0.11702294712E+03  0.17202389067E+03  0.12509000000E+03 0.  0.
         25    1    3    3    0    0  0.37031753318E+02 -0.73425078367E+02  0.15298137931E+01  0.14970785322E+03  0.12509000000E+03 0.  0.
         25    1    4    4    0    0 -0.21838402564E+02  0.77841275854E+02  0.11386803313E+03  0.18748231149E+03  0.12509000000E+03 0.  0.
<mgrwt>
<rscale>  2 0.45307784E+03</rscale>
<asrwt>0</asrwt>
<pdfrwt beam="1">  1       21 0.54531974E-01 0.45307784E+03</pdfrwt>
<pdfrwt beam="2">  1       21 0.20352446E-01 0.45307784E+03</pdfrwt>
<totfact> 0.65623438E+04</totfact>
</mgrwt>
</event>
<event>
 7    0  0.4779893E-002  0.4857555E+03  0.7546771E-02  0.1017565E+00
         21   -1    0    0  502  501  0.00000000000E+00  0.00000000000E+00  0.51196347905E+03  0.51196347905E+03  0.00000000000E+00 0. -1.
         21   -1    0    0  501  502 -0.00000000000E+00 -0.00000000000E+00 -0.11522229073E+03  0.11522229073E+03  0.00000000000E+00 0. -1.
      99926    2    1    2    0    0  0.00000000000E+00  0.00000000000E+00  0.39674118832E+03  0.62718576978E+03  0.48575551391E+03 0.  0.
      99925    2    3    3    0    0  0.10380040051E+03 -0.65339644279E+02  0.15611499783E+03  0.32954124369E+03  0.26302423174E+03 0.  0.
         25    1    4    4    0    0  0.63432960464E+02 -0.54021785801E+02  0.12118106482E+03  0.19306592756E+03  0.12509000000E+03 0.  0.
         25    1    3    3    0    0 -0.10380040051E+03  0.65339644279E+02  0.24062619049E+03  0.29764452609E+03  0.12509000000E+03 0.  0.
         25    1    4    4    0    0  0.40367440043E+02 -0.11317858478E+02  0.34933933010E+02  0.13647531613E+03  0.12509000000E+03 0.  0.
<mgrwt>
<rscale>  2 0.48575551E+03</rscale>
<asrwt>0</asrwt>
<pdfrwt beam="1">  1       21 0.75288746E-01 0.48575551E+03</pdfrwt>
<pdfrwt beam="2">  1       21 0.16944455E-01 0.48575551E+03</pdfrwt>
<totfact> 0.45055037E+04</totfact>
</mgrwt>
</event>
<event>
 7    0  0.4779893E-002  0.4465876E+03  0.7546771E-02  0.1028745E+00
         21   -1    0    0  502  501  0.00000000000E+00  0.00000000000E+00  0.15126299240E+04  0.15126299240E+04  0.00000000000E+00 0. -1.
         21   -1    0    0  501  502 -0.00000000000E+00 -0.00000000000E+00 -0.32962541112E+02  0.32962541112E+02  0.00000000000E+00 0. -1.
      99926    2    1    2    0    0  0.44408920985E-15  0.14210854715E-13  0.14796673828E+04  0.15455924651E+04  0.44658762211E+03 0.  0.
      99925    2    3    3    0    0 -0.26296390489E+01 -0.10186370462E+03  0.10278116915E+04  0.10657964634E+04  0.26294885221E+03 0.  0.
         25    1    4    4    0    0  0.68402386091E+01 -0.86930053894E+02  0.48149652676E+03  0.50506438849E+03  0.12509000000E+03 0.  0.
         25    1    4    4    0    0 -0.94698776580E+01 -0.14933650728E+02  0.54631516478E+03  0.56073207495E+03  0.12509000000E+03 0.  0.
         25    1    3    3    0    0  0.26296390489E+01  0.10186370462E+03  0.45185569130E+03  0.47979600163E+03  0.12509000000E+03 0.  0.
<mgrwt>
<rscale>  2 0.44658762E+03</rscale>
<asrwt>0</asrwt>
<pdfrwt beam="1">  1       21 0.22244553E+00 0.44658762E+03</pdfrwt>
<pdfrwt beam="2">  1       21 0.48474335E-02 0.44658762E+03</pdfrwt>
<totfact> 0.24228273E+04</totfact>
</mgrwt>
</event>
<event>
 7    0  0.4779893E-002  0.4591159E+03  0.7546771E-02  0.1025038E+00
         21   -1    0    0  502  501  0.00000000000E+00  0.00000000000E+00  0.61674794997E+03  0.61674794997E+03  0.00000000000E+00 0. -1.
         21   -1    0    0  501  502 -0.00000000000E+00 -0.00000000000E+00 -0.85443103640E+02  0.85443103640E+02  0.00000000000E+00 0. -1.
      99926    2    1    2    0    0  0.00000000000E+00  0.14210854715E-13  0.53130484633E+03  0.70219105361E+03  0.45911592876E+03 0.  0.
      99925    2    3    3    0    0 -0.40168714266E+02  0.82653789888E+02  0.44374077871E+03  0.52397728134E+03  0.26306109192E+03 0.  0.
         25    1    4    4    0    0 -0.34013681818E+01  0.92595054994E+01  0.24443916741E+03  0.27476412141E+03  0.12509000000E+03 0.  0.
         25    1    4    4    0    0 -0.36767346084E+02  0.73394284389E+02  0.19930161129E+03  0.24921315993E+03  0.12509000000E+03 0.  0.
         25    1    3    3    0    0  0.40168714266E+02 -0.82653789888E+02  0.87564067626E+02  0.17821377227E+03  0.12509000000E+03 0.  0.
<mgrwt>
<rscale>  2 0.45911593E+03</rscale>
<asrwt>0</asrwt>
<pdfrwt beam="1">  1       21 0.90698226E-01 0.45911593E+03</pdfrwt>
<pdfrwt beam="2">  1       21 0.12565163E-01 0.45911593E+03</pdfrwt>
<totfact> 0.51108523E+04</totfact>
</mgrwt>
</event>
<event>
 7    0  0.4779893E-002  0.4423994E+03  0.7546771E-02  0.1030013E+00
         21   -1    0    0  502  501  0.00000000000E+00  0.00000000000E+00  0.12508736692E+03  0.12508736692E+03  0.00000000000E+00 0. -1.
         21   -1    0    0  501  502 -0.00000000000E+00 -0.00000000000E+00 -0.39116107948E+03  0.39116107948E+03  0.00000000000E+00 0. -1.
      99926    2    1    2    0    0  0.00000000000E+00  0.00000000000E+00 -0.26607371257E+03  0.51624844640E+03  0.44239940992E+03 0.  0.
      99925    2    3    3    0    0 -0.68162888578E+02 -0.74385583860E+02 -0.16954375423E+03  0.32877862104E+03  0.26300361706E+03 0.  0.
         25    1    3    3    0    0  0.68162888578E+02  0.74385583860E+02 -0.96529958337E+02  0.18746982536E+03  0.12509000000E+03 0.  0.
         25    1    4    4    0    0 -0.35991540634E+02 -0.28166817965E+02 -0.37460507505E+02  0.13834579269E+03  0.12509000000E+03 0.  0.
         25    1    4    4    0    0 -0.32171347943E+02 -0.46218765894E+02 -0.13208324672E+03  0.19043282835E+03  0.12509000000E+03 0.  0.
<mgrwt>
<rscale>  2 0.44239941E+03</rscale>
<asrwt>0</asrwt>
<pdfrwt beam="1">  1       21 0.18395201E-01 0.44239941E+03</pdfrwt>
<pdfrwt beam="2">  1       21 0.57523689E-01 0.44239941E+03</pdfrwt>
<totfact> 0.70974496E+04</totfact>
</mgrwt>
</event>
<event>
 7    0  0.4779893E-002  0.4519952E+03  0.7546771E-02  0.1027129E+00
         21   -1    0    0  502  501  0.00000000000E+00  0.00000000000E+00  0.28886544469E+03  0.28886544469E+03  0.00000000000E+00 0. -1.
         21   -1    0    0  501  502 -0.00000000000E+00 -0.00000000000E+00 -0.17681212784E+03  0.17681212784E+03  0.00000000000E+00 0. -1.
      99926    2    1    2    0    0  0.00000000000E+00  0.00000000000E+00  0.11205331685E+03  0.46567757253E+03  0.45199519437E+03 0.  0.
      99925    2    3    3    0    0  0.12706514216E+02 -0.10956524998E+03  0.69779896213E+02  0.29362946966E+03  0.26302667551E+03 0.  0.
         25    1    4    4    0    0  0.21751414145E+02 -0.63324413915E+02  0.73741489856E+02  0.15990128468E+03  0.12509000000E+03 0.  0.
         25    1    4    4    0    0 -0.90448999289E+01 -0.46240836066E+02 -0.39615936433E+01  0.13372818498E+03  0.12509000000E+03 0.  0.
         25    1    3    3    0    0 -0.12706514216E+02  0.10956524998E+03  0.42273420642E+02  0.17204810287E+03  0.12509000000E+03 0.  0.
<mgrwt>
<rscale>  2 0.45199519E+03</rscale>
<asrwt>0</asrwt>
<pdfrwt beam="1">  1       21 0.42480212E-01 0.45199519E+03</pdfrwt>
<pdfrwt beam="2">  1       21 0.26001784E-01 0.45199519E+03</pdfrwt>
<totfact> 0.69398084E+04</totfact>
</mgrwt>
</event>
<event>
 7    0  0.4779893E-002  0.4649135E+03  0.7546771E-02  0.1023366E+00
         21   -1    0    0  502  501  0.00000000000E+00  0.00000000000E+00  0.42155243565E+03  0.42155243565E+03  0.00000000000E+00 0. -1.
         21   -1    0    0  501  502 -0.00000000000E+00 -0.00000000000E+00 -0.12818365613E+03  0.12818365613E+03  0.00000000000E+00 0. -1.
      99926    2    1    2    0    0  0.00000000000E+00  0.00000000000E+00  0.29336877952E+03  0.54973609178E+03  0.46491346486E+03 0.  0.
      99925    2    3    3    0    0  0.42543510303E+02 -0.11364046795E+03  0.20068808668E+03  0.35234985835E+03  0.26296503250E+03 0.  0.
         25    1    4    4    0    0 -0.17922386103E+02 -0.64832030838E+02  0.90226977745E+02  0.16826413688E+03  0.12509000000E+03 0.  0.
         25    1    3    3    0    0 -0.42543510303E+02  0.11364046795E+03  0.92680692838E+02  0.19738623343E+03  0.12509000000E+03 0.  0.
         25    1    4    4    0    0  0.60465896406E+02 -0.48808437110E+02  0.11046110894E+03  0.18408572147E+03  0.12509000000E+03 0.  0.
<mgrwt>
<rscale>  2 0.46491346E+03</rscale>
<asrwt>0</asrwt>
<pdfrwt beam="1">  1       21 0.61993005E-01 0.46491346E+03</pdfrwt>
<pdfrwt beam="2">  1       21 0.18850538E-01 0.46491346E+03</pdfrwt>
<totfact> 0.57258296E+04</totfact>
</mgrwt>
</event>
<event>
 7    0  0.4779893E-002  0.4524195E+03  0.7546771E-02  0.1027003E+00
         21   -1    0    0  502  501  0.00000000000E+00  0.00000000000E+00  0.72743231890E+02  0.72743231890E+02  0.00000000000E+00 0. -1.
         21   -1    0    0  501  502 -0.00000000000E+00 -0.00000000000E+00 -0.70344484081E+03  0.70344484081E+03  0.00000000000E+00 0. -1.
      99926    2    1    2    0    0  0.35527136788E-14  0.00000000000E+00 -0.63070160892E+03  0.77618807270E+03  0.45241950080E+03 0.  0.
      99925    2    3    3    0    0  0.40756029741E+01  0.37420753047E+02 -0.21916992616E+03  0.34442105531E+03  0.26300852363E+03 0.  0.
         25    1    4    4    0    0 -0.31242529815E+02  0.54095914944E+01 -0.82782473579E+02  0.15331603106E+03  0.12509000000E+03 0.  0.
         25    1    4    4    0    0  0.35318132789E+02  0.32011161553E+02 -0.13638745259E+03  0.19110502424E+03  0.12509000000E+03 0.  0.
         25    1    3    3    0    0 -0.40756029741E+01 -0.37420753047E+02 -0.41153168275E+03  0.43176701739E+03  0.12509000000E+03 0.  0.
<mgrwt>
<rscale>  2 0.45241950E+03</rscale>
<asrwt>0</asrwt>
<pdfrwt beam="1">  1       21 0.10697535E-01 0.45241950E+03</pdfrwt>
<pdfrwt beam="2">  1       21 0.10344777E+00 0.45241950E+03</pdfrwt>
<totfact> 0.49942115E+04</totfact>
</mgrwt>
</event>
<event>
 7    0  0.4779893E-002  0.4372070E+03  0.7546771E-02  0.1031607E+00
         21   -1    0    0  502  501  0.00000000000E+00  0.00000000000E+00  0.19852448275E+03  0.19852448275E+03  0.00000000000E+00 0.  1.
         21   -1    0    0  501  502 -0.00000000000E+00 -0.00000000000E+00 -0.24071335280E+03  0.24071335280E+03  0.00000000000E+00 0.  1.
      99926    2    1    2    0    0 -0.17763568394E-14 -0.71054273576E-14 -0.42188870048E+02  0.43923783555E+03  0.43720701667E+03 0.  0.
      99925    2    3    3    0    0 -0.10636833198E+02 -0.53262098523E+02 -0.10586831056E+03  0.28873011946E+03  0.26307221317E+03 0.  0.
         25    1    4    4    0    0 -0.27666801910E+01 -0.16779520983E+02 -0.94508634161E+02  0.15769780238E+03  0.12509000000E+03 0.  0.
         25    1    4    4    0    0 -0.78701530066E+01 -0.36482577540E+02 -0.11359676399E+02  0.13103231708E+03  0.12509000000E+03 0.  0.
         25    1    3    3    0    0  0.10636833198E+02  0.53262098523E+02  0.63679440512E+02  0.15050771609E+03  0.12509000000E+03 0.  0.
<mgrwt>
<rscale>  2 0.43720702E+03</rscale>
<asrwt>0</asrwt>
<pdfrwt beam="1">  1       21 0.29194777E-01 0.43720702E+03</pdfrwt>
<pdfrwt beam="2">  1       21 0.35399022E-01 0.43720702E+03</pdfrwt>
<totfact> 0.80559557E+04</totfact>
</mgrwt>
</event>
<event>
 7    0  0.4779893E-002  0.4569766E+03  0.7546771E-02  0.1025662E+00
         21   -1    0    0  502  501  0.00000000000E+00  0.00000000000E+00  0.10249345989E+04  0.10249345989E+04  0.00000000000E+00 0.  1.
         21   -1    0    0  501  502 -0.00000000000E+00 -0.00000000000E+00 -0.50936818078E+02  0.50936818078E+02  0.00000000000E+00 0.  1.
      99926    2    1    2    0    0  0.00000000000E+00  0.00000000000E+00  0.97399778080E+03  0.10758714170E+04  0.45697661737E+03 0.  0.
      99925    2    3    3    0    0  0.78306618096E+02  0.83320914344E+02  0.64269472904E+03  0.70373767566E+03  0.26289903044E+03 0.  0.
         25    1    4    4    0    0  0.35238897202E+01  0.33645178817E+02  0.34598823239E+03  0.36945876753E+03  0.12509000000E+03 0.  0.
         25    1    3    3    0    0 -0.78306618096E+02 -0.83320914344E+02  0.33130305175E+03  0.37213374129E+03  0.12509000000E+03 0.  0.
         25    1    4    4    0    0  0.74782728376E+02  0.49675735528E+02  0.29670649665E+03  0.33427890813E+03  0.12509000000E+03 0.  0.
<mgrwt>
<rscale>  2 0.45697662E+03</rscale>
<asrwt>0</asrwt>
<pdfrwt beam="1">  1       21 0.15072566E+00 0.45697662E+03</pdfrwt>
<pdfrwt beam="2">  1       21 0.74907092E-02 0.45697662E+03</pdfrwt>
<totfact> 0.35787015E+04</totfact>
</mgrwt>
</event>
<event>
 7    0  0.4779893E-002  0.4524875E+03  0.7546771E-02  0.1026983E+00
         21   -1    0    0  502  501  0.00000000000E+00  0.00000000000E+00  0.28518230287E+03  0.28518230287E+03  0.00000000000E+00 0.  1.
         21   -1    0    0  501  502 -0.00000000000E+00 -0.00000000000E+00 -0.17948600587E+03  0.17948600587E+03  0.00000000000E+00 0.  1.
      99926    2    1    2    0    0  0.00000000000E+00  0.00000000000E+00  0.10569629700E+03  0.46466830874E+03  0.45248749148E+03 0.  0.
      99925    2    3    3    0    0  0.50292591826E+02  0.90799930387E+02  0.10633006979E+03  0.30212021764E+03  0.26305240926E+03 0.  0.
         25    1    4    4    0    0  0.86652630036E+01  0.29649175389E+02  0.87104413643E+02  0.15552764179E+03  0.12509000000E+03 0.  0.
         25    1    4    4    0    0  0.41627328822E+02  0.61150754999E+02  0.19225656150E+02  0.14659257586E+03  0.12509000000E+03 0.  0.
         25    1    3    3    0    0 -0.50292591826E+02 -0.90799930387E+02 -0.63377279499E+00  0.16254809110E+03  0.12509000000E+03 0.  0.
<mgrwt>
<rscale>  2 0.45248749E+03</rscale>
<asrwt>0</asrwt>
<pdfrwt beam="1">  1       21 0.41938574E-01 0.45248749E+03</pdfrwt>
<pdfrwt beam="2">  1       21 0.26395001E-01 0.45248749E+03</pdfrwt>
<totfact> 0.69203525E+04</totfact>
</mgrwt>
</event>
<event>
 7    0  0.4779893E-002  0.4588791E+03  0.7546771E-02  0.1025107E+00
         21   -1    0    0  502  501  0.00000000000E+00  0.00000000000E+00  0.35648289246E+03  0.35648289246E+03  0.00000000000E+00 0. -1.
         21   -1    0    0  501  502 -0.00000000000E+00 -0.00000000000E+00 -0.14767191584E+03  0.14767191584E+03  0.00000000000E+00 0. -1.
      99926    2    1    2    0    0  0.00000000000E+00  0.00000000000E+00  0.20881097662E+03  0.50415480830E+03  0.45887912000E+03 0.  0.
      99925    2    3    3    0    0  0.21862133079E+02 -0.84860197890E+02  0.47515306775E+02  0.28202194882E+03  0.26381711315E+03 0.  0.
         25    1    4    4    0    0  0.33258494929E+02 -0.20209578545E+02 -0.55324250653E+01  0.13112082358E+03  0.12509000000E+03 0.  0.
         25    1    4    4    0    0 -0.11396361850E+02 -0.64650619345E+02  0.53047731841E+02  0.15090112524E+03  0.12509000000E+03 0.  0.
         25    1    3    3    0    0 -0.21862133079E+02  0.84860197890E+02  0.16129566984E+03  0.22213285948E+03  0.12509000000E+03 0.  0.
<mgrwt>
<rscale>  2 0.45887912E+03</rscale>
<asrwt>0</asrwt>
<pdfrwt beam="1">  1       21 0.52423954E-01 0.45887912E+03</pdfrwt>
<pdfrwt beam="2">  1       21 0.21716458E-01 0.45887912E+03</pdfrwt>
<totfact> 0.63016890E+04</totfact>
</mgrwt>
</event>
<event>
 7    0  0.4779893E-002  0.4538186E+03  0.7546771E-02  0.1026589E+00
         21   -1    0    0  502  501  0.00000000000E+00  0.00000000000E+00  0.21174695729E+03  0.21174695729E+03  0.00000000000E+00 0. -1.
         21   -1    0    0  501  502 -0.00000000000E+00 -0.00000000000E+00 -0.24315737394E+03  0.24315737394E+03  0.00000000000E+00 0. -1.
      99926    2    1    2    0    0  0.00000000000E+00  0.00000000000E+00 -0.31410416650E+02  0.45490433122E+03  0.45381861607E+03 0.  0.
      99925    2    3    3    0    0  0.19785669457E+02  0.66709734325E+02  0.68317518660E+02  0.28044851862E+03  0.26294947589E+03 0.  0.
         25    1    4    4    0    0  0.35793050513E+02  0.49457796943E+02  0.63709675534E+02  0.15308052456E+03  0.12509000000E+03 0.  0.
         25    1    3    3    0    0 -0.19785669457E+02 -0.66709734325E+02 -0.99727935311E+02  0.17445581260E+03  0.12509000000E+03 0.  0.
         25    1    4    4    0    0 -0.16007381056E+02  0.17251937382E+02  0.46078431266E+01  0.12736799406E+03  0.12509000000E+03 0.  0.
<mgrwt>
<rscale>  2 0.45381862E+03</rscale>
<asrwt>0</asrwt>
<pdfrwt beam="1">  1       21 0.31139258E-01 0.45381862E+03</pdfrwt>
<pdfrwt beam="2">  1       21 0.35758437E-01 0.45381862E+03</pdfrwt>
<totfact> 0.69202846E+04</totfact>
</mgrwt>
</event>
<event>
 7    0  0.4779893E-002  0.4566382E+03  0.7546771E-02  0.1025761E+00
         21   -1    0    0  502  501  0.00000000000E+00  0.00000000000E+00  0.58111987781E+02  0.58111987781E+02  0.00000000000E+00 0. -1.
         21   -1    0    0  501  502 -0.00000000000E+00 -0.00000000000E+00 -0.89705434283E+03  0.89705434283E+03  0.00000000000E+00 0. -1.
      99926    2    1    2    0    0  0.00000000000E+00  0.00000000000E+00 -0.83894235505E+03  0.95516633062E+03  0.45663819818E+03 0.  0.
      99925    2    3    3    0    0  0.10224664543E+03 -0.81822222147E+01 -0.63406360354E+03  0.69412201219E+03  0.26314898672E+03 0.  0.
         25    1    4    4    0    0  0.29045665330E+02 -0.16519198664E+02 -0.38069003124E+03  0.40210563610E+03  0.12509000000E+03 0.  0.
         25    1    4    4    0    0  0.73200980095E+02  0.83369764493E+01 -0.25337357230E+03  0.29201637609E+03  0.12509000000E+03 0.  0.
         25    1    3    3    0    0 -0.10224664543E+03  0.81822222147E+01 -0.20487875151E+03  0.26104431842E+03  0.12509000000E+03 0.  0.
<mgrwt>
<rscale>  2 0.45663820E+03</rscale>
<asrwt>0</asrwt>
<pdfrwt beam="1">  1       21 0.85458808E-02 0.45663820E+03</pdfrwt>
<pdfrwt beam="2">  1       21 0.13191975E+00 0.45663820E+03</pdfrwt>
<totfact> 0.40412173E+04</totfact>
</mgrwt>
</event>
<event>
 7    0  0.4779893E-002  0.4531467E+03  0.7546771E-02  0.1026788E+00
         21   -1    0    0  502  501  0.00000000000E+00  0.00000000000E+00  0.26889693818E+03  0.26889693818E+03  0.00000000000E+00 0.  1.
         21   -1    0    0  501  502 -0.00000000000E+00 -0.00000000000E+00 -0.19091137691E+03  0.19091137691E+03  0.00000000000E+00 0.  1.
      99926    2    1    2    0    0 -0.44408920985E-15  0.00000000000E+00  0.77985561276E+02  0.45980831509E+03  0.45314670787E+03 0.  0.
      99925    2    3    3    0    0 -0.36064903705E+01 -0.73166839841E+02 -0.36034729946E+02  0.27537803521E+03  0.26299841690E+03 0.  0.
         25    1    3    3    0    0  0.36064903705E+01  0.73166839841E+02  0.11402029122E+03  0.18443027988E+03  0.12509000000E+03 0.  0.
         25    1    4    4    0    0 -0.18052806691E+02 -0.41636518579E+01  0.33060687295E+01  0.12649773918E+03  0.12509000000E+03 0.  0.
         25    1    4    4    0    0  0.14446316321E+02 -0.69003187983E+02 -0.39340798676E+02  0.14888029604E+03  0.12509000000E+03 0.  0.
<mgrwt>
<rscale>  2 0.45314671E+03</rscale>
<asrwt>0</asrwt>
<pdfrwt beam="1">  1       21 0.39543668E-01 0.45314671E+03</pdfrwt>
<pdfrwt beam="2">  1       21 0.28075202E-01 0.45314671E+03</pdfrwt>
<totfact> 0.69211269E+04</totfact>
</mgrwt>
</event>
<event>
 7    0  0.4779893E-002  0.4517027E+03  0.7546771E-02  0.1027216E+00
         21   -1    0    0  502  501  0.00000000000E+00  0.00000000000E+00  0.62075811596E+03  0.62075811596E+03  0.00000000000E+00 0.  1.
         21   -1    0    0  501  502 -0.00000000000E+00 -0.00000000000E+00 -0.82171823813E+02  0.82171823813E+02  0.00000000000E+00 0.  1.
      99926    2    1    2    0    0  0.00000000000E+00 -0.35527136788E-14  0.53858629214E+03  0.70292993977E+03  0.45170267449E+03 0.  0.
      99925    2    3    3    0    0 -0.27612784022E+02 -0.22079060475E+02  0.50216962914E+03  0.56793500580E+03  0.26291801693E+03 0.  0.
         25    1    4    4    0    0 -0.82800992996E+01  0.10642740186E+02  0.31883071355E+03  0.34275699842E+03  0.12509000000E+03 0.  0.
         25    1    4    4    0    0 -0.19332684723E+02 -0.32721800661E+02  0.18333891559E+03  0.22517800738E+03  0.12509000000E+03 0.  0.
         25    1    3    3    0    0  0.27612784022E+02  0.22079060475E+02  0.36416662999E+02  0.13499493397E+03  0.12509000000E+03 0.  0.
<mgrwt>
<rscale>  2 0.45170267E+03</rscale>
<asrwt>0</asrwt>
<pdfrwt beam="1">  1       21 0.91287956E-01 0.45170267E+03</pdfrwt>
<pdfrwt beam="2">  1       21 0.12084092E-01 0.45170267E+03</pdfrwt>
<totfact> 0.54135196E+04</totfact>
</mgrwt>
</event>
<event>
 7    0  0.4779893E-002  0.4412231E+03  0.7546771E-02  0.1030372E+00
         21   -1    0    0  502  501  0.00000000000E+00  0.00000000000E+00  0.65853863532E+02  0.65853863532E+02  0.00000000000E+00 0.  1.
         21   -1    0    0  501  502 -0.00000000000E+00 -0.00000000000E+00 -0.73905230688E+03  0.73905230688E+03  0.00000000000E+00 0.  1.
      99926    2    1    2    0    0 -0.35527136788E-14 -0.28421709430E-13 -0.67319844334E+03  0.80490617041E+03  0.44122307174E+03 0.  0.
      99925    2    3    3    0    0 -0.22655802585E+02 -0.93277366872E+02 -0.37048897326E+03  0.46359328764E+03  0.26161556621E+03 0.  0.
         25    1    4    4    0    0 -0.29768689061E+02 -0.69909698738E+02 -0.24058536421E+03  0.28160675844E+03  0.12509000000E+03 0.  0.
         25    1    4    4    0    0  0.71128864768E+01 -0.23367668134E+02 -0.12990360904E+03  0.18198652920E+03  0.12509000000E+03 0.  0.
         25    1    3    3    0    0  0.22655802585E+02  0.93277366872E+02 -0.30270947009E+03  0.34131288277E+03  0.12509000000E+03 0.  0.
<mgrwt>
<rscale>  2 0.44122307E+03</rscale>
<asrwt>0</asrwt>
<pdfrwt beam="1">  1       21 0.96843922E-02 0.44122307E+03</pdfrwt>
<pdfrwt beam="2">  1       21 0.10868416E+00 0.44122307E+03</pdfrwt>
<totfact> 0.53033940E+04</totfact>
</mgrwt>
</event>
<event>
 7    0  0.4779893E-002  0.4497839E+03  0.7546771E-02  0.1027786E+00
         21   -1    0    0  502  501  0.00000000000E+00  0.00000000000E+00  0.57991429678E+02  0.57991429678E+02  0.00000000000E+00 0. -1.
         21   -1    0    0  501  502 -0.00000000000E+00 -0.00000000000E+00 -0.87213573213E+03  0.87213573213E+03  0.00000000000E+00 0. -1.
      99926    2    1    2    0    0  0.71054273576E-14  0.00000000000E+00 -0.81414430245E+03  0.93012716181E+03  0.44978393915E+03 0.  0.
      99925    2    3    3    0    0  0.59718389419E+02 -0.63854288726E+02 -0.38330046939E+03  0.47305214301E+03  0.26308824365E+03 0.  0.
         25    1    3    3    0    0 -0.59718389419E+02  0.63854288726E+02 -0.43084383306E+03  0.45707501880E+03  0.12509000000E+03 0.  0.
         25    1    4    4    0    0  0.10045363275E+02 -0.32894393110E+02 -0.12502937748E+03  0.18017437042E+03  0.12509000000E+03 0.  0.
         25    1    4    4    0    0  0.49673026144E+02 -0.30959895615E+02 -0.25827109191E+03  0.29287777259E+03  0.12509000000E+03 0.  0.
<mgrwt>
<rscale>  2 0.44978394E+03</rscale>
<asrwt>0</asrwt>
<pdfrwt beam="1">  1       21 0.85281513E-02 0.44978394E+03</pdfrwt>
<pdfrwt beam="2">  1       21 0.12825526E+00 0.44978394E+03</pdfrwt>
<totfact> 0.43712467E+04</totfact>
</mgrwt>
</event>
<event>
 7    0  0.4779893E-002  0.4515865E+03  0.7546771E-02  0.1027250E+00
         21   -1    0    0  502  501  0.00000000000E+00  0.00000000000E+00  0.13486017053E+03  0.13486017053E+03  0.00000000000E+00 0.  1.
         21   -1    0    0  501  502 -0.00000000000E+00 -0.00000000000E+00 -0.37804036214E+03  0.37804036214E+03  0.00000000000E+00 0.  1.
      99926    2    1    2    0    0  0.71054273576E-14  0.14210854715E-13 -0.24318019161E+03  0.51290053268E+03  0.45158648211E+03 0.  0.
      99925    2    3    3    0    0  0.42263799250E+02 -0.80210253094E+02 -0.22406193733E+03  0.35723123842E+03  0.26304085712E+03 0.  0.
         25    1    3    3    0    0 -0.42263799250E+02  0.80210253094E+02 -0.19118254280E+02  0.15566929426E+03  0.12509000000E+03 0.  0.
         25    1    4    4    0    0  0.40014846554E+02 -0.33915867893E+01 -0.10874473300E+03  0.17054505522E+03  0.12509000000E+03 0.  0.
         25    1    4    4    0    0  0.22489526960E+01 -0.76818666304E+02 -0.11531720433E+03  0.18668618320E+03  0.12509000000E+03 0.  0.
<mgrwt>
<rscale>  2 0.45158648E+03</rscale>
<asrwt>0</asrwt>
<pdfrwt beam="1">  1       21 0.19832378E-01 0.45158648E+03</pdfrwt>
<pdfrwt beam="2">  1       21 0.55594171E-01 0.45158648E+03</pdfrwt>
<totfact> 0.66147164E+04</totfact>
</mgrwt>
</event>
<event>
 7    0  0.4779893E-002  0.4577779E+03  0.7546771E-02  0.1025428E+00
         21   -1    0    0  502  501  0.00000000000E+00  0.00000000000E+00  0.18304774509E+03  0.18304774509E+03  0.00000000000E+00 0.  1.
         21   -1    0    0  501  502 -0.00000000000E+00 -0.00000000000E+00 -0.28621030425E+03  0.28621030425E+03  0.00000000000E+00 0.  1.
      99926    2    1    2    0    0 -0.14210854715E-13  0.00000000000E+00 -0.10316255915E+03  0.46925804934E+03  0.45777789731E+03 0.  0.
      99925    2    3    3    0    0  0.71954116715E+02  0.45078488854E+02  0.16035565279E+02  0.27673489220E+03  0.26289845214E+03 0.  0.
         25    1    4    4    0    0  0.74382773316E+02  0.10513105767E+02 -0.27166339609E+00  0.14591403037E+03  0.12509000000E+03 0.  0.
         25    1    4    4    0    0 -0.24286566008E+01  0.34565383087E+02  0.16307228675E+02  0.13082086182E+03  0.12509000000E+03 0.  0.
         25    1    3    3    0    0 -0.71954116715E+02 -0.45078488854E+02 -0.11919812443E+03  0.19252315715E+03  0.12509000000E+03 0.  0.
<mgrwt>
<rscale>  2 0.45777790E+03</rscale>
<asrwt>0</asrwt>
<pdfrwt beam="1">  1       21 0.26918786E-01 0.45777790E+03</pdfrwt>
<pdfrwt beam="2">  1       21 0.42089751E-01 0.45777790E+03</pdfrwt>
<totfact> 0.66024348E+04</totfact>
</mgrwt>
</event>
<event>
 7    0  0.4779893E-002  0.4461663E+03  0.7546771E-02  0.1028871E+00
         21   -1    0    0  502  501  0.00000000000E+00  0.00000000000E+00  0.60015405051E+02  0.60015405051E+02  0.00000000000E+00 0.  1.
         21   -1    0    0  501  502 -0.00000000000E+00 -0.00000000000E+00 -0.82922189845E+03  0.82922189845E+03  0.00000000000E+00 0.  1.
      99926    2    1    2    0    0  0.00000000000E+00  0.00000000000E+00 -0.76920649340E+03  0.88923730350E+03  0.44616628341E+03 0.  0.
      99925    2    3    3    0    0  0.60562886807E+02  0.49819923906E+02 -0.35243915194E+03  0.44709206369E+03  0.26368175804E+03 0.  0.
         25    1    3    3    0    0 -0.60562886807E+02 -0.49819923906E+02 -0.41676734146E+03  0.44214523981E+03  0.12509000000E+03 0.  0.
         25    1    4    4    0    0  0.71159622846E+02  0.38889958750E+02 -0.18935827329E+03  0.24099830824E+03  0.12509000000E+03 0.  0.
         25    1    4    4    0    0 -0.10596736039E+02  0.10929965156E+02 -0.16308087865E+03  0.20609375545E+03  0.12509000000E+03 0.  0.
<mgrwt>
<rscale>  2 0.44616628E+03</rscale>
<asrwt>0</asrwt>
<pdfrwt beam="1">  1       21 0.88257954E-02 0.44616628E+03</pdfrwt>
<pdfrwt beam="2">  1       21 0.12194439E+00 0.44616628E+03</pdfrwt>
<totfact> 0.46860296E+04</totfact>
</mgrwt>
</event>
<event>
 7    0  0.4779893E-002  0.4426028E+03  0.7546771E-02  0.1029951E+00
         21   -1    0    0  502  501  0.00000000000E+00  0.00000000000E+00  0.13851397622E+04  0.13851397622E+04  0.00000000000E+00 0. -1.
         21   -1    0    0  501  502 -0.00000000000E+00 -0.00000000000E+00 -0.35356947020E+02  0.35356947020E+02  0.00000000000E+00 0. -1.
      99926    2    1    2    0    0  0.00000000000E+00  0.00000000000E+00  0.13497828152E+04  0.14204967092E+04  0.44260281602E+03 0.  0.
      99925    2    3    3    0    0  0.21389420284E+02 -0.70837938967E+02  0.63896686819E+03  0.69497459413E+03  0.26312640867E+03 0.  0.
         25    1    4    4    0    0  0.49939421120E+01 -0.22481247711E+02  0.21292188691E+03  0.24801932179E+03  0.12509000000E+03 0.  0.
         25    1    3    3    0    0 -0.21389420284E+02  0.70837938967E+02  0.71081594699E+03  0.72552211509E+03  0.12509000000E+03 0.  0.
         25    1    4    4    0    0  0.16395478172E+02 -0.48356691256E+02  0.42604498128E+03  0.44695527233E+03  0.12509000000E+03 0.  0.
<mgrwt>
<rscale>  2 0.44260282E+03</rscale>
<asrwt>0</asrwt>
<pdfrwt beam="1">  1       21 0.20369699E+00 0.44260282E+03</pdfrwt>
<pdfrwt beam="2">  1       21 0.51995520E-02 0.44260282E+03</pdfrwt>
<totfact> 0.28432910E+04</totfact>
</mgrwt>
</event>
<event>
 7    0  0.4779893E-002  0.4129158E+03  0.7546771E-02  0.1039397E+00
         21   -1    0    0  502  501  0.00000000000E+00  0.00000000000E+00  0.30210898344E+03  0.30210898344E+03  0.00000000000E+00 0. -1.
         21   -1    0    0  501  502 -0.00000000000E+00 -0.00000000000E+00 -0.14109105199E+03  0.14109105199E+03  0.00000000000E+00 0. -1.
      99926    2    1    2    0    0  0.00000000000E+00  0.71054273576E-14  0.16101793145E+03  0.44320003543E+03  0.41291584755E+03 0.  0.
      99925    2    3    3    0    0  0.33528969474E+02 -0.56049301976E+02  0.11944395478E+03  0.29608912597E+03  0.26293762784E+03 0.  0.
         25    1    4    4    0    0  0.30090455732E+02 -0.80329525029E+01  0.22952604488E+02  0.13093622113E+03  0.12509000000E+03 0.  0.
         25    1    4    4    0    0  0.34385137418E+01 -0.48016349473E+02  0.96491350295E+02  0.16515290483E+03  0.12509000000E+03 0.  0.
         25    1    3    3    0    0 -0.33528969474E+02  0.56049301976E+02  0.41573976666E+02  0.14711090946E+03  0.12509000000E+03 0.  0.
<mgrwt>
<rscale>  2 0.41291585E+03</rscale>
<asrwt>0</asrwt>
<pdfrwt beam="1">  1       21 0.44427792E-01 0.41291585E+03</pdfrwt>
<pdfrwt beam="2">  1       21 0.20748684E-01 0.41291585E+03</pdfrwt>
<totfact> 0.98483905E+04</totfact>
</mgrwt>
</event>
<event>
 7    0  0.4779893E-002  0.4561943E+03  0.7546771E-02  0.1025891E+00
         21   -1    0    0  502  501  0.00000000000E+00  0.00000000000E+00  0.81588785268E+02  0.81588785268E+02  0.00000000000E+00 0. -1.
         21   -1    0    0  501  502 -0.00000000000E+00 -0.00000000000E+00 -0.63768961635E+03  0.63768961635E+03  0.00000000000E+00 0. -1.
      99926    2    1    2    0    0  0.71054273576E-14  0.00000000000E+00 -0.55610083108E+03  0.71927840162E+03  0.45619434971E+03 0.  0.
      99925    2    3    3    0    0  0.53847710649E+02  0.96935395291E+02 -0.39289896422E+03  0.48565818792E+03  0.26305556942E+03 0.  0.
         25    1    3    3    0    0 -0.53847710649E+02 -0.96935395291E+02 -0.16320186686E+03  0.23362021370E+03  0.12509000000E+03 0.  0.
         25    1    4    4    0    0  0.68373579881E+02  0.49640759154E+02 -0.20832554981E+03  0.25726677632E+03  0.12509000000E+03 0.  0.
         25    1    4    4    0    0 -0.14525869232E+02  0.47294636137E+02 -0.18457341442E+03  0.22839141160E+03  0.12509000000E+03 0.  0.
<mgrwt>
<rscale>  2 0.45619435E+03</rscale>
<asrwt>0</asrwt>
<pdfrwt beam="1">  1       21 0.11998351E-01 0.45619435E+03</pdfrwt>
<pdfrwt beam="2">  1       21 0.93777886E-01 0.45619435E+03</pdfrwt>
<totfact> 0.51384339E+04</totfact>
</mgrwt>
</event>
<event>
 7    0  0.4779893E-002  0.4528059E+03  0.7546771E-02  0.1026889E+00
         21   -1    0    0  502  501  0.00000000000E+00  0.00000000000E+00  0.24571570757E+03  0.24571570757E+03  0.00000000000E+00 0. -1.
         21   -1    0    0  501  502 -0.00000000000E+00 -0.00000000000E+00 -0.20860814038E+03  0.20860814038E+03  0.00000000000E+00 0. -1.
      99926    2    1    2    0    0  0.00000000000E+00  0.00000000000E+00  0.37107567187E+02  0.45432384795E+03  0.45280590464E+03 0.  0.
      99925    2    3    3    0    0  0.87372670679E+02  0.33187818137E+02  0.83544912709E+02  0.29141482422E+03  0.26307305541E+03 0.  0.
         25    1    4    4    0    0  0.61402753581E+02  0.50628563080E+02  0.61923611389E+02  0.16067231029E+03  0.12509000000E+03 0.  0.
         25    1    3    3    0    0 -0.87372670679E+02 -0.33187818137E+02 -0.46437345522E+02  0.16290902373E+03  0.12509000000E+03 0.  0.
         25    1    4    4    0    0  0.25969917099E+02 -0.17440744943E+02  0.21621301320E+02  0.13074251393E+03  0.12509000000E+03 0.  0.
<mgrwt>
<rscale>  2 0.45280590E+03</rscale>
<asrwt>0</asrwt>
<pdfrwt beam="1">  1       21 0.36134663E-01 0.45280590E+03</pdfrwt>
<pdfrwt beam="2">  1       21 0.30677668E-01 0.45280590E+03</pdfrwt>
<totfact> 0.69809490E+04</totfact>
</mgrwt>
</event>
<event>
 7    0  0.4779893E-002  0.4554158E+03  0.7546771E-02  0.1026119E+00
         21   -1    0    0  502  501  0.00000000000E+00  0.00000000000E+00  0.21262365363E+03  0.21262365363E+03  0.00000000000E+00 0.  1.
         21   -1    0    0  501  502 -0.00000000000E+00 -0.00000000000E+00 -0.24386222194E+03  0.24386222194E+03  0.00000000000E+00 0.  1.
      99926    2    1    2    0    0  0.14210854715E-13  0.17763568394E-14 -0.31238568310E+02  0.45648587557E+03  0.45541575120E+03 0.  0.
      99925    2    3    3    0    0 -0.11317391731E+03  0.81978302032E+01 -0.15983021059E+02  0.28691058314E+03  0.26303362100E+03 0.  0.
         25    1    3    3    0    0  0.11317391731E+03 -0.81978302032E+01 -0.15255547251E+02  0.16957529243E+03  0.12509000000E+03 0.  0.
         25    1    4    4    0    0 -0.16852927969E+02  0.19238349410E+02  0.14859024021E+01  0.12768653521E+03  0.12509000000E+03 0.  0.
         25    1    4    4    0    0 -0.96320989340E+02 -0.11040519207E+02 -0.17468923461E+02  0.15922404793E+03  0.12509000000E+03 0.  0.
<mgrwt>
<rscale>  2 0.45541575E+03</rscale>
<asrwt>0</asrwt>
<pdfrwt beam="1">  1       21 0.31268185E-01 0.45541575E+03</pdfrwt>
<pdfrwt beam="2">  1       21 0.35862091E-01 0.45541575E+03</pdfrwt>
<totfact> 0.68210564E+04</totfact>
</mgrwt>
</event>
<event>
 7    0  0.4779893E-002  0.4579019E+03  0.7546771E-02  0.1025391E+00
         21   -1    0    0  502  501  0.00000000000E+00  0.00000000000E+00  0.22612207932E+03  0.22612207932E+03  0.00000000000E+00 0.  1.
         21   -1    0    0  501  502 -0.00000000000E+00 -0.00000000000E+00 -0.23181525867E+03  0.23181525867E+03  0.00000000000E+00 0.  1.
      99926    2    1    2    0    0 -0.26645352591E-14 -0.14210854715E-13 -0.56931793465E+01  0.45793733799E+03  0.45790194719E+03 0.  0.
      99925    2    3    3    0    0  0.52868106514E+01 -0.77989538810E+02 -0.89142402024E+02  0.28846285792E+03  0.26297173618E+03 0.  0.
         25    1    4    4    0    0  0.23568430945E+02 -0.38021408501E+02 -0.81070082081E+02  0.15563086053E+03  0.12509000000E+03 0.  0.
         25    1    3    3    0    0 -0.52868106514E+01  0.77989538810E+02  0.83449222677E+02  0.16947448007E+03  0.12509000000E+03 0.  0.
         25    1    4    4    0    0 -0.18281620293E+02 -0.39968130309E+02 -0.80723199427E+01  0.13283199739E+03  0.12509000000E+03 0.  0.
<mgrwt>
<rscale>  2 0.45790195E+03</rscale>
<asrwt>0</asrwt>
<pdfrwt beam="1">  1       21 0.33253247E-01 0.45790195E+03</pdfrwt>
<pdfrwt beam="2">  1       21 0.34090479E-01 0.45790195E+03</pdfrwt>
<totfact> 0.66771629E+04</totfact>
</mgrwt>
</event>
<event>
 7    0  0.4779893E-002  0.4535791E+03  0.7546771E-02  0.1026660E+00
         21   -1    0    0  502  501  0.00000000000E+00  0.00000000000E+00  0.32592156871E+02  0.32592156871E+02  0.00000000000E+00 0. -1.
         21   -1    0    0  501  502 -0.00000000000E+00 -0.00000000000E+00 -0.15780944487E+04  0.15780944487E+04  0.00000000000E+00 0. -1.
      99926    2    1    2    0    0  0.00000000000E+00  0.00000000000E+00 -0.15455022919E+04  0.16106866056E+04  0.45357910812E+03 0.  0.
      99925    2    3    3    0    0  0.87947424789E+02  0.38149060312E+02 -0.11737775535E+04  0.12069331047E+04  0.26409027555E+03 0.  0.
         25    1    4    4    0    0  0.76013138495E+02  0.49606236748E+02 -0.62233307947E+03  0.64123688747E+03  0.12509000000E+03 0.  0.
         25    1    3    3    0    0 -0.87947424789E+02 -0.38149060312E+02 -0.37172473832E+03  0.40375350093E+03  0.12509000000E+03 0.  0.
         25    1    4    4    0    0  0.11934286294E+02 -0.11457176436E+02 -0.55144447408E+03  0.56569621721E+03  0.12509000000E+03 0.  0.
<mgrwt>
<rscale>  2 0.45357911E+03</rscale>
<asrwt>0</asrwt>
<pdfrwt beam="1">  1       21 0.47929646E-02 0.45357911E+03</pdfrwt>
<pdfrwt beam="2">  1       21 0.23207270E+00 0.45357911E+03</pdfrwt>
<totfact> 0.21424777E+04</totfact>
</mgrwt>
</event>
<event>
 7    0  0.4779893E-002  0.4526323E+03  0.7546771E-02  0.1026940E+00
         21   -1    0    0  502  501  0.00000000000E+00  0.00000000000E+00  0.12514663391E+04  0.12514663391E+04  0.00000000000E+00 0.  1.
         21   -1    0    0  501  502 -0.00000000000E+00 -0.00000000000E+00 -0.40927185741E+02  0.40927185741E+02  0.00000000000E+00 0.  1.
      99926    2    1    2    0    0  0.00000000000E+00  0.00000000000E+00  0.12105391534E+04  0.12923935249E+04  0.45263228038E+03 0.  0.
      99925    2    3    3    0    0 -0.81750350053E+02 -0.50489118115E+02  0.60506685966E+03  0.66671271379E+03  0.26299746632E+03 0.  0.
         25    1    3    3    0    0  0.81750350053E+02  0.50489118115E+02  0.60547229372E+03  0.62568081108E+03  0.12509000000E+03 0.  0.
         25    1    4    4    0    0 -0.37290373476E+01 -0.18504060865E+02  0.23100411288E+03  0.26337561439E+03  0.12509000000E+03 0.  0.
         25    1    4    4    0    0 -0.78021312705E+02 -0.31985057250E+02  0.37406274678E+03  0.40333709940E+03  0.12509000000E+03 0.  0.
<mgrwt>
<rscale>  2 0.45263228E+03</rscale>
<asrwt>0</asrwt>
<pdfrwt beam="1">  1       21 0.18403914E+00 0.45263228E+03</pdfrwt>
<pdfrwt beam="2">  1       21 0.60187046E-02 0.45263228E+03</pdfrwt>
<totfact> 0.29882947E+04</totfact>
</mgrwt>
</event>
<event>
 7    0  0.4779893E-002  0.4578063E+03  0.7546771E-02  0.1025419E+00
         21   -1    0    0  502  501  0.00000000000E+00  0.00000000000E+00  0.18329284558E+04  0.18329284558E+04  0.00000000000E+00 0.  1.
         21   -1    0    0  501  502 -0.00000000000E+00 -0.00000000000E+00 -0.28586308490E+02  0.28586308490E+02  0.00000000000E+00 0.  1.
      99926    2    1    2    0    0  0.00000000000E+00  0.35527136788E-14  0.18043421473E+04  0.18615147643E+04  0.45780632707E+03 0.  0.
      99925    2    3    3    0    0  0.11362719829E+03  0.22356156577E+02  0.11438197506E+04  0.11793503541E+04  0.26293097541E+03 0.  0.
         25    1    4    4    0    0  0.78980914711E+02  0.32349676762E+02  0.49694232872E+03  0.51950329416E+03  0.12509000000E+03 0.  0.
         25    1    4    4    0    0  0.34646283584E+02 -0.99935201853E+01  0.64687742191E+03  0.65984705993E+03  0.12509000000E+03 0.  0.
         25    1    3    3    0    0 -0.11362719829E+03 -0.22356156577E+02  0.66052239665E+03  0.68216441017E+03  0.12509000000E+03 0.  0.
<mgrwt>
<rscale>  2 0.45780633E+03</rscale>
<asrwt>0</asrwt>
<pdfrwt beam="1">  1       21 0.26954822E+00 0.45780633E+03</pdfrwt>
<pdfrwt beam="2">  1       21 0.42038701E-02 0.45780633E+03</pdfrwt>
<totfact> 0.15759513E+04</totfact>
</mgrwt>
</event>
<event>
 7    0  0.4779893E-002  0.3929722E+03  0.7546771E-02  0.1046241E+00
         21   -1    0    0  502  501  0.00000000000E+00  0.00000000000E+00  0.38847729510E+02  0.38847729510E+02  0.00000000000E+00 0.  1.
         21   -1    0    0  501  502 -0.00000000000E+00 -0.00000000000E+00 -0.99379756982E+03  0.99379756982E+03  0.00000000000E+00 0.  1.
      99926    2    1    2    0    0  0.35527136788E-14  0.44408920985E-15 -0.95494984031E+03  0.10326452993E+04  0.39297215769E+03 0.  0.
      99925    2    3    3    0    0 -0.25519183085E+02 -0.89183901073E+00 -0.67751880815E+03  0.72724800106E+03  0.26307013433E+03 0.  0.
         25    1    4    4    0    0 -0.44590987785E+02 -0.15957933922E+02 -0.29106596270E+03  0.32032782362E+03  0.12509000000E+03 0.  0.
         25    1    3    3    0    0  0.25519183085E+02  0.89183901073E+00 -0.27743103216E+03  0.30539729827E+03  0.12509000000E+03 0.  0.
         25    1    4    4    0    0  0.19071804700E+02  0.15066094911E+02 -0.38645284545E+03  0.40692017744E+03  0.12509000000E+03 0.  0.
<mgrwt>
<rscale>  2 0.39297216E+03</rscale>
<asrwt>0</asrwt>
<pdfrwt beam="1">  1       21 0.57129009E-02 0.39297216E+03</pdfrwt>
<pdfrwt beam="2">  1       21 0.14614672E+00 0.39297216E+03</pdfrwt>
<totfact> 0.63563195E+04</totfact>
</mgrwt>
</event>
<event>
 7    0  0.4779893E-002  0.4538274E+03  0.7546771E-02  0.1026587E+00
         21   -1    0    0  502  501  0.00000000000E+00  0.00000000000E+00  0.89631769422E+03  0.89631769422E+03  0.00000000000E+00 0. -1.
         21   -1    0    0  501  502 -0.00000000000E+00 -0.00000000000E+00 -0.57445950613E+02  0.57445950613E+02  0.00000000000E+00 0. -1.
      99926    2    1    2    0    0 -0.71054273576E-14  0.71054273576E-14  0.83887174360E+03  0.95376364483E+03  0.45382737686E+03 0.  0.
      99925    2    3    3    0    0  0.60560072046E+02 -0.44262343714E+02  0.70348155580E+03  0.75475437758E+03  0.26294713106E+03 0.  0.
         25    1    4    4    0    0  0.69574585530E+02 -0.10323667921E+02  0.37103670737E+03  0.39782275876E+03  0.12509000000E+03 0.  0.
         25    1    4    4    0    0 -0.90145134835E+01 -0.33938675793E+02  0.33244484842E+03  0.35693161882E+03  0.12509000000E+03 0.  0.
         25    1    3    3    0    0 -0.60560072046E+02  0.44262343714E+02  0.13539018781E+03  0.19900926725E+03  0.12509000000E+03 0.  0.
<mgrwt>
<rscale>  2 0.45382738E+03</rscale>
<asrwt>0</asrwt>
<pdfrwt beam="1">  1       21 0.13181142E+00 0.45382738E+03</pdfrwt>
<pdfrwt beam="2">  1       21 0.84479345E-02 0.45382738E+03</pdfrwt>
<totfact> 0.41366795E+04</totfact>
</mgrwt>
</event>
<event>
 7    0  0.4779893E-002  0.4220073E+03  0.7546771E-02  0.1036415E+00
         21   -1    0    0  502  501  0.00000000000E+00  0.00000000000E+00  0.17904229409E+03  0.17904229409E+03  0.00000000000E+00 0.  1.
         21   -1    0    0  501  502 -0.00000000000E+00 -0.00000000000E+00 -0.24867056235E+03  0.24867056235E+03  0.00000000000E+00 0.  1.
      99926    2    1    2    0    0  0.00000000000E+00  0.00000000000E+00 -0.69628268267E+02  0.42771285644E+03  0.42200733622E+03 0.  0.
      99925    2    3    3    0    0  0.16678803645E+02 -0.76959566021E+02 -0.42793255533E+02  0.27748441938E+03  0.26261261010E+03 0.  0.
         25    1    4    4    0    0  0.19852263341E+02 -0.63856882249E+02 -0.52616331467E+02  0.15128714488E+03  0.12509000000E+03 0.  0.
         25    1    4    4    0    0 -0.31734596961E+01 -0.13102683773E+02  0.98230759341E+01  0.12619727449E+03  0.12509000000E+03 0.  0.
         25    1    3    3    0    0 -0.16678803645E+02  0.76959566021E+02 -0.26835012735E+02  0.15022843706E+03  0.12509000000E+03 0.  0.
<mgrwt>
<rscale>  2 0.42200734E+03</rscale>
<asrwt>0</asrwt>
<pdfrwt beam="1">  1       21 0.26329749E-01 0.42200734E+03</pdfrwt>
<pdfrwt beam="2">  1       21 0.36569200E-01 0.42200734E+03</pdfrwt>
<totfact> 0.92685169E+04</totfact>
</mgrwt>
</event>
<event>
 7    0  0.4779893E-002  0.4491340E+03  0.7546771E-02  0.1027981E+00
         21   -1    0    0  502  501  0.00000000000E+00  0.00000000000E+00  0.79628829996E+02  0.79628829996E+02  0.00000000000E+00 0.  1.
         21   -1    0    0  501  502 -0.00000000000E+00 -0.00000000000E+00 -0.63331750687E+03  0.63331750687E+03  0.00000000000E+00 0.  1.
      99926    2    1    2    0    0  0.13322676296E-14  0.71054273576E-14 -0.55368867688E+03  0.71294633687E+03  0.44913397595E+03 0.  0.
      99925    2    3    3    0    0 -0.28315077706E+01  0.42456732926E+02 -0.19354409147E+03  0.32932905088E+03  0.26303558088E+03 0.  0.
         25    1    3    3    0    0  0.28315077706E+01 -0.42456732926E+02 -0.36014458541E+03  0.38361728599E+03  0.12509000000E+03 0.  0.
         25    1    4    4    0    0 -0.11124038223E+02  0.56736169409E+02 -0.12332568265E+03  0.18493098509E+03  0.12509000000E+03 0.  0.
         25    1    4    4    0    0  0.82925304524E+01 -0.14279436483E+02 -0.70218408812E+02  0.14439806579E+03  0.12509000000E+03 0.  0.
<mgrwt>
<rscale>  2 0.44913398E+03</rscale>
<asrwt>0</asrwt>
<pdfrwt beam="1">  1       21 0.11710122E-01 0.44913398E+03</pdfrwt>
<pdfrwt beam="2">  1       21 0.93134928E-01 0.44913398E+03</pdfrwt>
<totfact> 0.54685986E+04</totfact>
</mgrwt>
</event>
<event>
 7    0  0.4779893E-002  0.4567156E+03  0.7546771E-02  0.1025738E+00
         21   -1    0    0  502  501  0.00000000000E+00  0.00000000000E+00  0.36510428879E+03  0.36510428879E+03  0.00000000000E+00 0.  1.
         21   -1    0    0  501  502 -0.00000000000E+00 -0.00000000000E+00 -0.14282845612E+03  0.14282845612E+03  0.00000000000E+00 0.  1.
      99926    2    1    2    0    0  0.00000000000E+00  0.00000000000E+00  0.22227583268E+03  0.50793274491E+03  0.45671558717E+03 0.  0.
      99925    2    3    3    0    0 -0.90386256571E+02 -0.66212469973E+02  0.11171006658E+03  0.30687040809E+03  0.26293828521E+03 0.  0.
         25    1    3    3    0    0  0.90386256571E+02  0.66212469973E+02  0.11056576610E+03  0.20106233682E+03  0.12509000000E+03 0.  0.
         25    1    4    4    0    0 -0.12947472717E+02 -0.54743329979E+02  0.40437178993E+02  0.14299350605E+03  0.12509000000E+03 0.  0.
         25    1    4    4    0    0 -0.77438783854E+02 -0.11469139994E+02  0.71272887588E+02  0.16387690204E+03  0.12509000000E+03 0.  0.
<mgrwt>
<rscale>  2 0.45671559E+03</rscale>
<asrwt>0</asrwt>
<pdfrwt beam="1">  1       21 0.53691807E-01 0.45671559E+03</pdfrwt>
<pdfrwt beam="2">  1       21 0.21004185E-01 0.45671559E+03</pdfrwt>
<totfact> 0.63843120E+04</totfact>
</mgrwt>
</event>
<event>
 7    0  0.4779893E-002  0.4509459E+03  0.7546771E-02  0.1027440E+00
         21   -1    0    0  502  501  0.00000000000E+00  0.00000000000E+00  0.21888356331E+03  0.21888356331E+03  0.00000000000E+00 0. -1.
         21   -1    0    0  501  502 -0.00000000000E+00 -0.00000000000E+00 -0.23226070331E+03  0.23226070331E+03  0.00000000000E+00 0. -1.
      99926    2    1    2    0    0  0.00000000000E+00  0.00000000000E+00 -0.13377140002E+02  0.45114426662E+03  0.45094589635E+03 0.  0.
      99925    2    3    3    0    0  0.75671279317E+02 -0.70445051870E+02 -0.44051870422E+02  0.28598647833E+03  0.26298108422E+03 0.  0.
         25    1    3    3    0    0 -0.75671279317E+02  0.70445051870E+02  0.30674730419E+02  0.16515778829E+03  0.12509000000E+03 0.  0.
         25    1    4    4    0    0  0.14177073254E+01 -0.11945055831E+02 -0.23664649606E+02  0.12787579127E+03  0.12509000000E+03 0.  0.
         25    1    4    4    0    0  0.74253571991E+02 -0.58499996039E+02 -0.20387220816E+02  0.15811068706E+03  0.12509000000E+03 0.  0.
<mgrwt>
<rscale>  2 0.45094590E+03</rscale>
<asrwt>0</asrwt>
<pdfrwt beam="1">  1       21 0.32188759E-01 0.45094590E+03</pdfrwt>
<pdfrwt beam="2">  1       21 0.34155986E-01 0.45094590E+03</pdfrwt>
<totfact> 0.71101460E+04</totfact>
</mgrwt>
</event>
<event>
 7    0  0.4779893E-002  0.4546145E+03  0.7546771E-02  0.1026355E+00
         21   -1    0    0  502  501  0.00000000000E+00  0.00000000000E+00  0.10104505137E+03  0.10104505137E+03  0.00000000000E+00 0. -1.
         21   -1    0    0  501  502 -0.00000000000E+00 -0.00000000000E+00 -0.51134208022E+03  0.51134208022E+03  0.00000000000E+00 0. -1.
      99926    2    1    2    0    0  0.00000000000E+00  0.00000000000E+00 -0.41029702885E+03  0.61238713159E+03  0.45461450380E+03 0.  0.
      99925    2    3    3    0    0  0.90189725880E+02 -0.67941440877E+02 -0.25001640750E+03  0.37981969681E+03  0.26268721329E+03 0.  0.
         25    1    3    3    0    0 -0.90189725880E+02  0.67941440877E+02 -0.16028062135E+03  0.23256743479E+03  0.12509000000E+03 0.  0.
         25    1    4    4    0    0  0.12445360767E+02 -0.55500384964E+02 -0.10712774434E+03  0.17423846143E+03  0.12509000000E+03 0.  0.
         25    1    4    4    0    0  0.77744365113E+02 -0.12441055913E+02 -0.14288866316E+03  0.20558123538E+03  0.12509000000E+03 0.  0.
<mgrwt>
<rscale>  2 0.45461450E+03</rscale>
<asrwt>0</asrwt>
<pdfrwt beam="1">  1       21 0.14859567E-01 0.45461450E+03</pdfrwt>
<pdfrwt beam="2">  1       21 0.75197363E-01 0.45461450E+03</pdfrwt>
<totfact> 0.58098913E+04</totfact>
</mgrwt>
</event>
<event>
 7    0  0.4779893E-002  0.4094143E+03  0.7546771E-02  0.1040568E+00
         21   -1    0    0  502  501  0.00000000000E+00  0.00000000000E+00  0.15006863491E+04  0.15006863491E+04  0.00000000000E+00 0.  1.
         21   -1    0    0  501  502 -0.00000000000E+00 -0.00000000000E+00 -0.27923896118E+02  0.27923896118E+02  0.00000000000E+00 0.  1.
      99926    2    1    2    0    0  0.00000000000E+00 -0.71054273576E-14  0.14727624530E+04  0.15286102452E+04  0.40941426315E+03 0.  0.
      99925    2    3    3    0    0  0.18757784046E+02 -0.55161076634E+02  0.10484753311E+04  0.10824469693E+04  0.26267151101E+03 0.  0.
         25    1    3    3    0    0 -0.18757784046E+02  0.55161076634E+02  0.42428712194E+03  0.44616327592E+03  0.12509000000E+03 0.  0.
         25    1    4    4    0    0 -0.72494648200E+01  0.65826579593E+01  0.55271772745E+03  0.56678062816E+03  0.12509000000E+03 0.  0.
         25    1    4    4    0    0  0.26007248866E+02 -0.61743734594E+02  0.49575760361E+03  0.51566634115E+03  0.12509000000E+03 0.  0.
<mgrwt>
<rscale>  2 0.40941426E+03</rscale>
<asrwt>0</asrwt>
<pdfrwt beam="1">  1       21 0.22068911E+00 0.40941426E+03</pdfrwt>
<pdfrwt beam="2">  1       21 0.41064563E-02 0.40941426E+03</pdfrwt>
<totfact> 0.33455149E+04</totfact>
</mgrwt>
</event>
<event>
 7    0  0.4779893E-002  0.4556714E+03  0.7546771E-02  0.1026044E+00
         21   -1    0    0  502  501  0.00000000000E+00  0.00000000000E+00  0.10973911530E+04  0.10973911530E+04  0.00000000000E+00 0.  1.
         21   -1    0    0  501  502 -0.00000000000E+00 -0.00000000000E+00 -0.47302285366E+02  0.47302285366E+02  0.00000000000E+00 0.  1.
      99926    2    1    2    0    0  0.00000000000E+00  0.00000000000E+00  0.10500888676E+04  0.11446934384E+04  0.45567141441E+03 0.  0.
      99925    2    3    3    0    0 -0.93185916568E+02 -0.11295150800E+02  0.82206862186E+03  0.86819400607E+03  0.26296923327E+03 0.  0.
         25    1    4    4    0    0 -0.54354820180E+02  0.34072514248E+02  0.40792366659E+03  0.43146796934E+03  0.12509000000E+03 0.  0.
         25    1    3    3    0    0  0.93185916568E+02  0.11295150800E+02  0.22802024577E+03  0.27649943230E+03  0.12509000000E+03 0.  0.
         25    1    4    4    0    0 -0.38831096388E+02 -0.45367665048E+02  0.41414495528E+03  0.43672603673E+03  0.12509000000E+03 0.  0.
<mgrwt>
<rscale>  2 0.45567141E+03</rscale>
<asrwt>0</asrwt>
<pdfrwt beam="1">  1       21 0.16138104E+00 0.45567141E+03</pdfrwt>
<pdfrwt beam="2">  1       21 0.69562191E-02 0.45567141E+03</pdfrwt>
<totfact> 0.33782904E+04</totfact>
</mgrwt>
</event>
<event>
 7    0  0.4779893E-002  0.4504954E+03  0.7546771E-02  0.1027574E+00
         21   -1    0    0  502  501  0.00000000000E+00  0.00000000000E+00  0.54833522830E+03  0.54833522830E+03  0.00000000000E+00 0. -1.
         21   -1    0    0  501  502 -0.00000000000E+00 -0.00000000000E+00 -0.92528289770E+02  0.92528289770E+02  0.00000000000E+00 0. -1.
      99926    2    1    2    0    0  0.00000000000E+00  0.00000000000E+00  0.45580693853E+03  0.64086351807E+03  0.45049537576E+03 0.  0.
      99925    2    3    3    0    0  0.85626668283E+02 -0.33460787971E+02  0.20464042691E+03  0.34559469934E+03  0.26288104008E+03 0.  0.
         25    1    4    4    0    0  0.39224402224E+02  0.23861620688E+02  0.10049215759E+03  0.16689551375E+03  0.12509000000E+03 0.  0.
         25    1    3    3    0    0 -0.85626668283E+02  0.33460787971E+02  0.25116651162E+03  0.29526881873E+03  0.12509000000E+03 0.  0.
         25    1    4    4    0    0  0.46402266059E+02 -0.57322408659E+02  0.10414826931E+03  0.17869918559E+03  0.12509000000E+03 0.  0.
<mgrwt>
<rscale>  2 0.45049538E+03</rscale>
<asrwt>0</asrwt>
<pdfrwt beam="1">  1       21 0.80637532E-01 0.45049538E+03</pdfrwt>
<pdfrwt beam="2">  1       21 0.13607102E-01 0.45049538E+03</pdfrwt>
<totfact> 0.58274919E+04</totfact>
</mgrwt>
</event>
<event>
 7    0  0.4779893E-002  0.4395941E+03  0.7546771E-02  0.1030871E+00
         21   -1    0    0  502  501  0.00000000000E+00  0.00000000000E+00  0.13106098752E+03  0.13106098752E+03  0.00000000000E+00 0. -1.
         21   -1    0    0  501  502 -0.00000000000E+00 -0.00000000000E+00 -0.36861268989E+03  0.36861268989E+03  0.00000000000E+00 0. -1.
      99926    2    1    2    0    0  0.71054273576E-14  0.00000000000E+00 -0.23755170237E+03  0.49967367741E+03  0.43959409982E+03 0.  0.
      99925    2    3    3    0    0  0.50740840860E+02 -0.17535462563E+02 -0.24486313031E+03  0.36335386793E+03  0.26303223258E+03 0.  0.
         25    1    4    4    0    0  0.54381783130E+02 -0.38125247870E+02 -0.12983680914E+03  0.19213541571E+03  0.12509000000E+03 0.  0.
         25    1    4    4    0    0 -0.36409422699E+01  0.20589785307E+02 -0.11502632117E+03  0.17121845222E+03  0.12509000000E+03 0.  0.
         25    1    3    3    0    0 -0.50740840860E+02  0.17535462563E+02  0.73114279381E+01  0.13631980948E+03  0.12509000000E+03 0.  0.
<mgrwt>
<rscale>  2 0.43959410E+03</rscale>
<asrwt>0</asrwt>
<pdfrwt beam="1">  1       21 0.19273675E-01 0.43959410E+03</pdfrwt>
<pdfrwt beam="2">  1       21 0.54207747E-01 0.43959410E+03</pdfrwt>
<totfact> 0.73927491E+04</totfact>
</mgrwt>
</event>
<event>
 7    0  0.4779893E-002  0.4437791E+03  0.7546771E-02  0.1029594E+00
         21   -1    0    0  502  501  0.00000000000E+00  0.00000000000E+00  0.54476077810E+03  0.54476077810E+03  0.00000000000E+00 0. -1.
         21   -1    0    0  501  502 -0.00000000000E+00 -0.00000000000E+00 -0.90379059531E+02  0.90379059531E+02  0.00000000000E+00 0. -1.
      99926    2    1    2    0    0  0.00000000000E+00  0.00000000000E+00  0.45438171857E+03  0.63513983763E+03  0.44377907474E+03 0.  0.
      99925    2    3    3    0    0 -0.92720848786E+02  0.38524741629E+02  0.27430252056E+03  0.39398151376E+03  0.26438276964E+03 0.  0.
         25    1    4    4    0    0 -0.67091413520E+02  0.59210385466E+01  0.19111827522E+03  0.23813865643E+03  0.12509000000E+03 0.  0.
         25    1    4    4    0    0 -0.25629435266E+02  0.32603703083E+02  0.83184245345E+02  0.15584285733E+03  0.12509000000E+03 0.  0.
         25    1    3    3    0    0  0.92720848786E+02 -0.38524741629E+02  0.18007919801E+03  0.24115832387E+03  0.12509000000E+03 0.  0.
<mgrwt>
<rscale>  2 0.44377907E+03</rscale>
<asrwt>0</asrwt>
<pdfrwt beam="1">  1       21 0.80111878E-01 0.44377907E+03</pdfrwt>
<pdfrwt beam="2">  1       21 0.13291038E-01 0.44377907E+03</pdfrwt>
<totfact> 0.61865023E+04</totfact>
</mgrwt>
</event>
<event>
 7    0  0.4779893E-002  0.4626201E+03  0.7546771E-02  0.1024024E+00
         21   -1    0    0  502  501  0.00000000000E+00  0.00000000000E+00  0.26221223127E+02  0.26221223127E+02  0.00000000000E+00 0. -1.
         21   -1    0    0  501  502 -0.00000000000E+00 -0.00000000000E+00 -0.20404977566E+04  0.20404977566E+04  0.00000000000E+00 0. -1.
      99926    2    1    2    0    0  0.00000000000E+00  0.00000000000E+00 -0.20142765335E+04  0.20667189798E+04  0.46262013344E+03 0.  0.
      99925    2    3    3    0    0 -0.30664770964E+02 -0.93397340195E+02 -0.95074783382E+03  0.99135662478E+03  0.26306486399E+03 0.  0.
         25    1    4    4    0    0  0.22338015606E+02 -0.45994997057E+02 -0.51676288420E+03  0.53414034980E+03  0.12509000000E+03 0.  0.
         25    1    4    4    0    0 -0.53002786569E+02 -0.47402343137E+02 -0.43398494961E+03  0.45721627498E+03  0.12509000000E+03 0.  0.
         25    1    3    3    0    0  0.30664770964E+02  0.93397340195E+02 -0.10635286997E+04  0.10753623550E+04  0.12509000000E+03 0.  0.
<mgrwt>
<rscale>  2 0.46262013E+03</rscale>
<asrwt>0</asrwt>
<pdfrwt beam="1">  1       21 0.38560627E-02 0.46262013E+03</pdfrwt>
<pdfrwt beam="2">  1       21 0.30007316E+00 0.46262013E+03</pdfrwt>
<totfact> 0.11929496E+04</totfact>
</mgrwt>
</event>
<event>
 7    0  0.4779893E-002  0.4583015E+03  0.7546771E-02  0.1025275E+00
         21   -1    0    0  502  501  0.00000000000E+00  0.00000000000E+00  0.59689207920E+02  0.59689207920E+02  0.00000000000E+00 0.  1.
         21   -1    0    0  501  502 -0.00000000000E+00 -0.00000000000E+00 -0.87972470478E+03  0.87972470478E+03  0.00000000000E+00 0.  1.
      99926    2    1    2    0    0 -0.35527136788E-14  0.00000000000E+00 -0.82003549686E+03  0.93941391270E+03  0.45830152003E+03 0.  0.
      99925    2    3    3    0    0 -0.31305801568E+02  0.71164049326E+02 -0.69151413710E+03  0.74394109325E+03  0.26308206570E+03 0.  0.
         25    1    4    4    0    0 -0.50946982493E+02  0.16290600541E+02 -0.36015607785E+03  0.38499465867E+03  0.12509000000E+03 0.  0.
         25    1    3    3    0    0  0.31305801568E+02 -0.71164049326E+02 -0.12852135976E+03  0.19547281945E+03  0.12509000000E+03 0.  0.
         25    1    4    4    0    0  0.19641180925E+02  0.54873448785E+02 -0.33135805925E+03  0.35894643458E+03  0.12509000000E+03 0.  0.
<mgrwt>
<rscale>  2 0.45830152E+03</rscale>
<asrwt>0</asrwt>
<pdfrwt beam="1">  1       21 0.87778251E-02 0.45830152E+03</pdfrwt>
<pdfrwt beam="2">  1       21 0.12937127E+00 0.45830152E+03</pdfrwt>
<totfact> 0.40516159E+04</totfact>
</mgrwt>
</event>
<event>
 7    0  0.4779893E-002  0.4570800E+03  0.7546771E-02  0.1025632E+00
         21   -1    0    0  502  501  0.00000000000E+00  0.00000000000E+00  0.40508067266E+03  0.40508067266E+03  0.00000000000E+00 0. -1.
         21   -1    0    0  501  502 -0.00000000000E+00 -0.00000000000E+00 -0.12893859350E+03  0.12893859350E+03  0.00000000000E+00 0. -1.
      99926    2    1    2    0    0  0.26645352591E-14 -0.26645352591E-14  0.27614207916E+03  0.53401926616E+03  0.45708000257E+03 0.  0.
      99925    2    3    3    0    0 -0.23111750801E+01 -0.50033776973E+01  0.39379830095E+02  0.26618677000E+03  0.26320001935E+03 0.  0.
         25    1    4    4    0    0 -0.24595597208E+02  0.30940747795E+02  0.17758850279E+02  0.13238262023E+03  0.12509000000E+03 0.  0.
         25    1    3    3    0    0  0.23111750801E+01  0.50033776973E+01  0.23676224907E+03  0.26783249616E+03  0.12509000000E+03 0.  0.
         25    1    4    4    0    0  0.22284422128E+02 -0.35944125493E+02  0.21620979816E+02  0.13380414977E+03  0.12509000000E+03 0.  0.
<mgrwt>
<rscale>  2 0.45708000E+03</rscale>
<asrwt>0</asrwt>
<pdfrwt beam="1">  1       21 0.59570687E-01 0.45708000E+03</pdfrwt>
<pdfrwt beam="2">  1       21 0.18961558E-01 0.45708000E+03</pdfrwt>
<totfact> 0.61908365E+04</totfact>
</mgrwt>
</event>
<event>
 7    0  0.4779893E-002  0.4493057E+03  0.7546771E-02  0.1027929E+00
         21   -1    0    0  502  501  0.00000000000E+00  0.00000000000E+00  0.30048698974E+03  0.30048698974E+03  0.00000000000E+00 0.  1.
         21   -1    0    0  501  502 -0.00000000000E+00 -0.00000000000E+00 -0.16795700584E+03  0.16795700584E+03  0.00000000000E+00 0.  1.
      99926    2    1    2    0    0  0.14210854715E-13  0.00000000000E+00  0.13252998390E+03  0.46844399558E+03  0.44930566473E+03 0.  0.
      99925    2    3    3    0    0  0.64463047492E+02  0.87493547445E+01 -0.48611942599E+01  0.27157886500E+03  0.26362741323E+03 0.  0.
         25    1    4    4    0    0  0.32288660921E+02 -0.73757167273E+01  0.37449648930E+02  0.13471059025E+03  0.12509000000E+03 0.  0.
         25    1    4    4    0    0  0.32174386572E+02  0.16125071472E+02 -0.42310843190E+02  0.13686827475E+03  0.12509000000E+03 0.  0.
         25    1    3    3    0    0 -0.64463047492E+02 -0.87493547445E+01  0.13739117816E+03  0.19686513057E+03  0.12509000000E+03 0.  0.
<mgrwt>
<rscale>  2 0.44930566E+03</rscale>
<asrwt>0</asrwt>
<pdfrwt beam="1">  1       21 0.44189263E-01 0.44930566E+03</pdfrwt>
<pdfrwt beam="2">  1       21 0.24699560E-01 0.44930566E+03</pdfrwt>
<totfact> 0.70691824E+04</totfact>
</mgrwt>
</event>
<event>
 7    0  0.4779893E-002  0.4599861E+03  0.7546771E-02  0.1024785E+00
         21   -1    0    0  502  501  0.00000000000E+00  0.00000000000E+00  0.35656798146E+03  0.35656798146E+03  0.00000000000E+00 0.  1.
         21   -1    0    0  501  502 -0.00000000000E+00 -0.00000000000E+00 -0.14834983021E+03  0.14834983021E+03  0.00000000000E+00 0.  1.
      99926    2    1    2    0    0  0.00000000000E+00 -0.71054273576E-14  0.20821815125E+03  0.50491781167E+03  0.45998608461E+03 0.  0.
      99925    2    3    3    0    0 -0.10164036076E+03 -0.52116347793E+02  0.98682057139E+02  0.30319388980E+03  0.26294773200E+03 0.  0.
         25    1    4    4    0    0 -0.17458148271E+02 -0.49572619262E+02  0.52433203589E+02  0.14546126790E+03  0.12509000000E+03 0.  0.
         25    1    3    3    0    0  0.10164036076E+03  0.52116347793E+02  0.10953609411E+03  0.20172392188E+03  0.12509000000E+03 0.  0.
         25    1    4    4    0    0 -0.84182212493E+02 -0.25437285313E+01  0.46248853550E+02  0.15773262189E+03  0.12509000000E+03 0.  0.
<mgrwt>
<rscale>  2 0.45998608E+03</rscale>
<asrwt>0</asrwt>
<pdfrwt beam="1">  1       21 0.52436468E-01 0.45998608E+03</pdfrwt>
<pdfrwt beam="2">  1       21 0.21816151E-01 0.45998608E+03</pdfrwt>
<totfact> 0.62419260E+04</totfact>
</mgrwt>
</event>
<event>
 7    0  0.4779893E-002  0.4478065E+03  0.7546771E-02  0.1028378E+00
         21   -1    0    0  502  501  0.00000000000E+00  0.00000000000E+00  0.96343050936E+02  0.96343050936E+02  0.00000000000E+00 0.  1.
         21   -1    0    0  501  502 -0.00000000000E+00 -0.00000000000E+00 -0.52035575855E+03  0.52035575855E+03  0.00000000000E+00 0.  1.
      99926    2    1    2    0    0  0.00000000000E+00 -0.14210854715E-13 -0.42401270761E+03  0.61669880948E+03  0.44780648209E+03 0.  0.
      99925    2    3    3    0    0 -0.98233381267E+01  0.10172693186E+03 -0.22842816620E+03  0.36303429171E+03  0.26300114678E+03 0.  0.
         25    1    4    4    0    0  0.29802792849E+02  0.60906623187E+02 -0.92277563365E+02  0.16958915063E+03  0.12509000000E+03 0.  0.
         25    1    4    4    0    0 -0.39626130976E+02  0.40820308676E+02 -0.13615060284E+03  0.19344514109E+03  0.12509000000E+03 0.  0.
         25    1    3    3    0    0  0.98233381267E+01 -0.10172693186E+03 -0.19558454141E+03  0.25366451777E+03  0.12509000000E+03 0.  0.
<mgrwt>
<rscale>  2 0.44780648E+03</rscale>
<asrwt>0</asrwt>
<pdfrwt beam="1">  1       21 0.14168096E-01 0.44780648E+03</pdfrwt>
<pdfrwt beam="2">  1       21 0.76522904E-01 0.44780648E+03</pdfrwt>
<totfact> 0.61057270E+04</totfact>
</mgrwt>
</event>
<event>
 7    0  0.4779893E-002  0.4402563E+03  0.7546771E-02  0.1030668E+00
         21   -1    0    0  502  501  0.00000000000E+00  0.00000000000E+00  0.27694624044E+03  0.27694624044E+03  0.00000000000E+00 0.  1.
         21   -1    0    0  501  502 -0.00000000000E+00 -0.00000000000E+00 -0.17496679022E+03  0.17496679022E+03  0.00000000000E+00 0.  1.
      99926    2    1    2    0    0  0.14210854715E-13 -0.17763568394E-14  0.10197945021E+03  0.45191303066E+03  0.44025626516E+03 0.  0.
      99925    2    3    3    0    0  0.95985287604E+02  0.12150291792E+02  0.46785453941E+02  0.28441768639E+03  0.26333198933E+03 0.  0.
         25    1    4    4    0    0  0.23970549008E+02  0.33289104732E+02  0.43003756819E+02  0.13849037120E+03  0.12509000000E+03 0.  0.
         25    1    4    4    0    0  0.72014738596E+02 -0.21138812940E+02  0.37816971218E+01  0.14592731520E+03  0.12509000000E+03 0.  0.
         25    1    3    3    0    0 -0.95985287604E+02 -0.12150291792E+02  0.55193996272E+02  0.16749534427E+03  0.12509000000E+03 0.  0.
<mgrwt>
<rscale>  2 0.44025627E+03</rscale>
<asrwt>0</asrwt>
<pdfrwt beam="1">  1       21 0.40727389E-01 0.44025627E+03</pdfrwt>
<pdfrwt beam="2">  1       21 0.25730410E-01 0.44025627E+03</pdfrwt>
<totfact> 0.77476743E+04</totfact>
</mgrwt>
</event>
<event>
 7    0  0.4779893E-002  0.4542902E+03  0.7546771E-02  0.1026450E+00
         21   -1    0    0  502  501  0.00000000000E+00  0.00000000000E+00  0.20961673433E+04  0.20961673433E+04  0.00000000000E+00 0.  1.
         21   -1    0    0  501  502 -0.00000000000E+00 -0.00000000000E+00 -0.24613922521E+02  0.24613922521E+02  0.00000000000E+00 0.  1.
      99926    2    1    2    0    0  0.00000000000E+00  0.00000000000E+00  0.20715534208E+04  0.21207812658E+04  0.45429021816E+03 0.  0.
      99925    2    3    3    0    0 -0.10486686579E+03  0.40239864605E+02  0.12640729727E+04  0.12959852374E+04  0.26283254973E+03 0.  0.
         25    1    4    4    0    0 -0.61435362944E+02  0.18446935522E+02  0.46718899138E+03  0.48788077952E+03  0.12509000000E+03 0.  0.
         25    1    4    4    0    0 -0.43431502845E+02  0.21792929084E+02  0.79688398128E+03  0.80810445793E+03  0.12509000000E+03 0.  0.
         25    1    3    3    0    0  0.10486686579E+03 -0.40239864605E+02  0.80748044813E+03  0.82479602839E+03  0.12509000000E+03 0.  0.
<mgrwt>
<rscale>  2 0.45429022E+03</rscale>
<asrwt>0</asrwt>
<pdfrwt beam="1">  1       21 0.30825978E+00 0.45429022E+03</pdfrwt>
<pdfrwt beam="2">  1       21 0.36196959E-02 0.45429022E+03</pdfrwt>
<totfact> 0.11901697E+04</totfact>
</mgrwt>
</event>
<event>
 7    0  0.4779893E-002  0.4575318E+03  0.7546771E-02  0.1025499E+00
         21   -1    0    0  502  501  0.00000000000E+00  0.00000000000E+00  0.62348750939E+03  0.62348750939E+03  0.00000000000E+00 0. -1.
         21   -1    0    0  501  502 -0.00000000000E+00 -0.00000000000E+00 -0.83937276567E+02  0.83937276567E+02  0.00000000000E+00 0. -1.
      99926    2    1    2    0    0  0.00000000000E+00  0.00000000000E+00  0.53955023283E+03  0.70742478596E+03  0.45753182845E+03 0.  0.
      99925    2    3    3    0    0  0.78731788651E+02  0.14008890831E+01  0.20791470027E+03  0.34434037210E+03  0.26294697609E+03 0.  0.
         25    1    4    4    0    0  0.70100494981E+00  0.29798644112E+01  0.75324026135E+02  0.14604995040E+03  0.12509000000E+03 0.  0.
         25    1    4    4    0    0  0.78030783701E+02 -0.15789753281E+01  0.13259067413E+03  0.19829042169E+03  0.12509000000E+03 0.  0.
         25    1    3    3    0    0 -0.78731788651E+02 -0.14008890831E+01  0.33163553256E+03  0.36308441386E+03  0.12509000000E+03 0.  0.
<mgrwt>
<rscale>  2 0.45753183E+03</rscale>
<asrwt>0</asrwt>
<pdfrwt beam="1">  1       21 0.91689338E-01 0.45753183E+03</pdfrwt>
<pdfrwt beam="2">  1       21 0.12343717E-01 0.45753183E+03</pdfrwt>
<totfact> 0.51468694E+04</totfact>
</mgrwt>
</event>
<event>
 7    0  0.4779893E-002  0.4767024E+03  0.7546771E-02  0.1020045E+00
         21   -1    0    0  502  501  0.00000000000E+00  0.00000000000E+00  0.27937034602E+04  0.27937034602E+04  0.00000000000E+00 0.  1.
         21   -1    0    0  501  502 -0.00000000000E+00 -0.00000000000E+00 -0.20335481439E+02  0.20335481439E+02  0.00000000000E+00 0.  1.
      99926    2    1    2    0    0  0.00000000000E+00  0.00000000000E+00  0.27733679787E+04  0.28140389416E+04  0.47670244330E+03 0.  0.
      99925    2    3    3    0    0 -0.51519930127E+01 -0.13066956167E+03  0.15879851787E+04  0.16149221967E+04  0.26301272978E+03 0.  0.
         25    1    4    4    0    0 -0.37724943731E+02 -0.83987798351E+02  0.90781927075E+03  0.92101056351E+03  0.12509000000E+03 0.  0.
         25    1    4    4    0    0  0.32572950719E+02 -0.46681763315E+02  0.68016590798E+03  0.69391163315E+03  0.12509000000E+03 0.  0.
         25    1    3    3    0    0  0.51519930127E+01  0.13066956167E+03  0.11853828000E+04  0.11991167450E+04  0.12509000000E+03 0.  0.
<mgrwt>
<rscale>  2 0.47670244E+03</rscale>
<asrwt>0</asrwt>
<pdfrwt beam="1">  1       21 0.41083848E+00 0.47670244E+03</pdfrwt>
<pdfrwt beam="2">  1       21 0.29905139E-02 0.47670244E+03</pdfrwt>
<totfact> 0.37491867E+03</totfact>
</mgrwt>
</event>
<event>
 7    0  0.4779893E-002  0.4590432E+03  0.7546771E-02  0.1025059E+00
         21   -1    0    0  502  501  0.00000000000E+00  0.00000000000E+00  0.53988687903E+02  0.53988687903E+02  0.00000000000E+00 0.  1.
         21   -1    0    0  501  502 -0.00000000000E+00 -0.00000000000E+00 -0.97576309389E+03  0.97576309389E+03  0.00000000000E+00 0.  1.
      99926    2    1    2    0    0  0.00000000000E+00  0.00000000000E+00 -0.92177440599E+03  0.10297517818E+04  0.45904321863E+03 0.  0.
      99925    2    3    3    0    0  0.94589455013E+02 -0.87028879232E+01 -0.42467540215E+03  0.50842862580E+03  0.26292121460E+03 0.  0.
         25    1    3    3    0    0 -0.94589455013E+02  0.87028879232E+01 -0.49709900384E+03  0.52132315599E+03  0.12509000000E+03 0.  0.
         25    1    4    4    0    0  0.79097987165E+02  0.14244061481E+02 -0.26329664183E+03  0.30237727190E+03  0.12509000000E+03 0.  0.
         25    1    4    4    0    0  0.15491467847E+02 -0.22946949404E+02 -0.16137876032E+03  0.20605135390E+03  0.12509000000E+03 0.  0.
<mgrwt>
<rscale>  2 0.45904322E+03</rscale>
<asrwt>0</asrwt>
<pdfrwt beam="1">  1       21 0.79395136E-02 0.45904322E+03</pdfrwt>
<pdfrwt beam="2">  1       21 0.14349456E+00 0.45904322E+03</pdfrwt>
<totfact> 0.36852184E+04</totfact>
</mgrwt>
</event>
<event>
 7    0  0.4779893E-002  0.4589943E+03  0.7546771E-02  0.1025073E+00
         21   -1    0    0  502  501  0.00000000000E+00  0.00000000000E+00  0.73359120485E+02  0.73359120485E+02  0.00000000000E+00 0.  1.
         21   -1    0    0  501  502 -0.00000000000E+00 -0.00000000000E+00 -0.71796024713E+03  0.71796024713E+03  0.00000000000E+00 0.  1.
      99926    2    1    2    0    0 -0.17763568394E-14 -0.14210854715E-13 -0.64460112664E+03  0.79131936761E+03  0.45899425823E+03 0.  0.
      99925    2    3    3    0    0 -0.84859467193E+01  0.71003869514E+02 -0.56347426384E+03  0.62596327687E+03  0.26308404969E+03 0.  0.
         25    1    3    3    0    0  0.84859467193E+01 -0.71003869514E+02 -0.81126862804E+02  0.16535609074E+03  0.12509000000E+03 0.  0.
         25    1    4    4    0    0  0.25351560600E+02  0.28484463934E+02 -0.33844141665E+03  0.36282801286E+03  0.12509000000E+03 0.  0.
         25    1    4    4    0    0 -0.33837507319E+02  0.42519405580E+02 -0.22503284719E+03  0.26313526401E+03  0.12509000000E+03 0.  0.
<mgrwt>
<rscale>  2 0.45899426E+03</rscale>
<asrwt>0</asrwt>
<pdfrwt beam="1">  1       21 0.10788106E-01 0.45899426E+03</pdfrwt>
<pdfrwt beam="2">  1       21 0.10558239E+00 0.45899426E+03</pdfrwt>
<totfact> 0.46706109E+04</totfact>
</mgrwt>
</event>
<event>
 7    0  0.4779893E-002  0.4554181E+03  0.7546771E-02  0.1026119E+00
         21   -1    0    0  502  501  0.00000000000E+00  0.00000000000E+00  0.21597538129E+04  0.21597538129E+04  0.00000000000E+00 0.  1.
         21   -1    0    0  501  502 -0.00000000000E+00 -0.00000000000E+00 -0.24008023131E+02  0.24008023131E+02  0.00000000000E+00 0.  1.
      99926    2    1    2    0    0  0.00000000000E+00  0.00000000000E+00  0.21357457898E+04  0.21837618361E+04  0.45541813534E+03 0.  0.
      99925    2    3    3    0    0 -0.43415461000E+02 -0.97823040542E+02  0.15239266177E+04  0.15501811727E+04  0.26316360425E+03 0.  0.
         25    1    4    4    0    0 -0.41929747568E+02 -0.54068571102E+02  0.59480607438E+03  0.61165618474E+03  0.12509000000E+03 0.  0.
         25    1    3    3    0    0  0.43415461000E+02  0.97823040542E+02  0.61181917214E+03  0.63358066339E+03  0.12509000000E+03 0.  0.
         25    1    4    4    0    0 -0.14857134325E+01 -0.43754469439E+02  0.92912054329E+03  0.93852498794E+03  0.12509000000E+03 0.  0.
<mgrwt>
<rscale>  2 0.45541814E+03</rscale>
<asrwt>0</asrwt>
<pdfrwt beam="1">  1       21 0.31761072E+00 0.45541814E+03</pdfrwt>
<pdfrwt beam="2">  1       21 0.35305931E-02 0.45541814E+03</pdfrwt>
<totfact> 0.10899601E+04</totfact>
</mgrwt>
</event>
<event>
 7    0  0.4779893E-002  0.4458138E+03  0.7546771E-02  0.1028978E+00
         21   -1    0    0  502  501  0.00000000000E+00  0.00000000000E+00  0.65700373650E+03  0.65700373650E+03  0.00000000000E+00 0. -1.
         21   -1    0    0  501  502 -0.00000000000E+00 -0.00000000000E+00 -0.75627414248E+02  0.75627414248E+02  0.00000000000E+00 0. -1.
      99926    2    1    2    0    0  0.00000000000E+00  0.00000000000E+00  0.58137632226E+03  0.73263115075E+03  0.44581383443E+03 0.  0.
      99925    2    3    3    0    0  0.67335292609E+02  0.76811883880E+02  0.40347789702E+03  0.49236158352E+03  0.26304259808E+03 0.  0.
         25    1    4    4    0    0  0.42198987512E+02  0.55729200342E+02  0.27485904867E+03  0.30997016478E+03  0.12509000000E+03 0.  0.
         25    1    4    4    0    0  0.25136305098E+02  0.21082683538E+02  0.12861884835E+03  0.18239141874E+03  0.12509000000E+03 0.  0.
         25    1    3    3    0    0 -0.67335292609E+02 -0.76811883880E+02  0.17789842523E+03  0.24026956723E+03  0.12509000000E+03 0.  0.
<mgrwt>
<rscale>  2 0.44581383E+03</rscale>
<asrwt>0</asrwt>
<pdfrwt beam="1">  1       21 0.96618194E-01 0.44581383E+03</pdfrwt>
<pdfrwt beam="2">  1       21 0.11121679E-01 0.44581383E+03</pdfrwt>
<totfact> 0.55035670E+04</totfact>
</mgrwt>
</event>
<event>
 7    0  0.4779893E-002  0.4545132E+03  0.7546771E-02  0.1026385E+00
         21   -1    0    0  502  501  0.00000000000E+00  0.00000000000E+00  0.19610870785E+03  0.19610870785E+03  0.00000000000E+00 0.  1.
         21   -1    0    0  501  502 -0.00000000000E+00 -0.00000000000E+00 -0.26335174908E+03  0.26335174908E+03  0.00000000000E+00 0.  1.
      99926    2    1    2    0    0  0.00000000000E+00  0.00000000000E+00 -0.67243041238E+02  0.45946045693E+03  0.45451323951E+03 0.  0.
      99925    2    3    3    0    0 -0.68001440084E+02 -0.75162400502E+02  0.71233989738E+01  0.28211486823E+03  0.26318144646E+03 0.  0.
         25    1    3    3    0    0  0.68001440084E+02  0.75162400502E+02 -0.74366440211E+02  0.17734558870E+03  0.12509000000E+03 0.  0.
         25    1    4    4    0    0 -0.43586719168E+02 -0.26095837416E+02  0.41572877822E+02  0.14126785582E+03  0.12509000000E+03 0.  0.
         25    1    4    4    0    0 -0.24414720916E+02 -0.49066563086E+02 -0.34449478848E+02  0.14084701240E+03  0.12509000000E+03 0.  0.
<mgrwt>
<rscale>  2 0.45451324E+03</rscale>
<asrwt>0</asrwt>
<pdfrwt beam="1">  1       21 0.28839516E-01 0.45451324E+03</pdfrwt>
<pdfrwt beam="2">  1       21 0.38728198E-01 0.45451324E+03</pdfrwt>
<totfact> 0.68485368E+04</totfact>
</mgrwt>
</event>
<event>
 7    0  0.4779893E-002  0.4493990E+03  0.7546771E-02  0.1027901E+00
         21   -1    0    0  502  501  0.00000000000E+00  0.00000000000E+00  0.10511551460E+04  0.10511551460E+04  0.00000000000E+00 0.  1.
         21   -1    0    0  501  502 -0.00000000000E+00 -0.00000000000E+00 -0.48032733791E+02  0.48032733791E+02  0.00000000000E+00 0.  1.
      99926    2    1    2    0    0 -0.66613381478E-15 -0.33029134983E-14  0.10031224122E+04  0.10991878798E+04  0.44939895549E+03 0.  0.
      99925    2    3    3    0    0 -0.10349355018E+01  0.17597703438E+00  0.37095281885E+03  0.45476022293E+03  0.26305848112E+03 0.  0.
         25    1    3    3    0    0  0.10349355018E+01 -0.17597703438E+00  0.63216959333E+03  0.64442765683E+03  0.12509000000E+03 0.  0.
         25    1    4    4    0    0  0.23443988552E+02  0.32113578451E+02  0.19791721843E+03  0.23748607532E+03  0.12509000000E+03 0.  0.
         25    1    4    4    0    0 -0.24478924054E+02 -0.31937601417E+02  0.17303560042E+03  0.21727414761E+03  0.12509000000E+03 0.  0.
<mgrwt>
<rscale>  2 0.44939896E+03</rscale>
<asrwt>0</asrwt>
<pdfrwt beam="1">  1       21 0.15458162E+00 0.44939896E+03</pdfrwt>
<pdfrwt beam="2">  1       21 0.70636380E-02 0.44939896E+03</pdfrwt>
<totfact> 0.37117909E+04</totfact>
</mgrwt>
</event>
<event>
 6    0  0.4779893E-002  0.4628610E+03  0.7546771E-02  0.1023955E+00
         21   -1    0    0  502  501  0.00000000000E+00  0.00000000000E+00  0.28162192464E+03  0.28162192464E+03  0.00000000000E+00 0. -1.
         21   -1    0    0  501  502 -0.00000000000E+00 -0.00000000000E+00 -0.19018430259E+03  0.19018430259E+03  0.00000000000E+00 0. -1.
      99926    2    1    2    0    0 -0.84376949872E-14  0.00000000000E+00  0.91437622050E+02  0.47180622724E+03  0.46286096977E+03 0.  0.
         25    1    3    3    0    0  0.36177695012E+01  0.97725429867E+02  0.42301811347E+02  0.16431767781E+03  0.12509000000E+03 0.  0.
         25    1    3    3    0    0  0.64514279251E+02 -0.74218127934E+02  0.28639942210E+02  0.16167305629E+03  0.12509000000E+03 0.  0.
         25    1    3    3    0    0 -0.68132048752E+02 -0.23507301933E+02  0.20495868492E+02  0.14581549313E+03  0.12509000000E+03 0.  0.
<mgrwt>
<rscale>  2 0.46286097E+03</rscale>
<asrwt>0</asrwt>
<pdfrwt beam="1">  1       21 0.41414989E-01 0.46286097E+03</pdfrwt>
<pdfrwt beam="2">  1       21 0.27968280E-01 0.46286097E+03</pdfrwt>
<totfact> 0.63261466E+04</totfact>
</mgrwt>
</event>
<event>
 7    0  0.4779893E-002  0.5181939E+03  0.7546771E-02  0.1009136E+00
         21   -1    0    0  502  501  0.00000000000E+00  0.00000000000E+00  0.71594788512E+02  0.71594788512E+02  0.00000000000E+00 0. -1.
         21   -1    0    0  501  502 -0.00000000000E+00 -0.00000000000E+00 -0.93765527221E+03  0.93765527221E+03  0.00000000000E+00 0. -1.
      99926    2    1    2    0    0  0.00000000000E+00  0.00000000000E+00 -0.86606048370E+03  0.10092500607E+04  0.51819390545E+03 0.  0.
      99925    2    3    3    0    0  0.34731569956E+02  0.16097303318E+03 -0.48784167466E+03  0.57818675334E+03  0.26304338585E+03 0.  0.
         25    1    4    4    0    0 -0.42049427830E+01  0.53336702987E+02 -0.26798657014E+03  0.30054416531E+03  0.12509000000E+03 0.  0.
         25    1    4    4    0    0  0.38936512739E+02  0.10763633019E+03 -0.21985510452E+03  0.27764258803E+03  0.12509000000E+03 0.  0.
         25    1    3    3    0    0 -0.34731569956E+02 -0.16097303318E+03 -0.37821880904E+03  0.43106330738E+03  0.12509000000E+03 0.  0.
<mgrwt>
<rscale>  2 0.51819391E+03</rscale>
<asrwt>0</asrwt>
<pdfrwt beam="1">  1       21 0.10528646E-01 0.51819391E+03</pdfrwt>
<pdfrwt beam="2">  1       21 0.13789047E+00 0.51819391E+03</pdfrwt>
<totfact> 0.24367691E+04</totfact>
</mgrwt>
</event>
<event>
 7    0  0.4779893E-002  0.4556002E+03  0.7546771E-02  0.1026065E+00
         21   -1    0    0  502  501  0.00000000000E+00  0.00000000000E+00  0.38634191311E+04  0.38634191311E+04  0.00000000000E+00 0. -1.
         21   -1    0    0  501  502 -0.00000000000E+00 -0.00000000000E+00 -0.13431856626E+02  0.13431856626E+02  0.00000000000E+00 0. -1.
      99926    2    1    2    0    0  0.00000000000E+00 -0.35527136788E-14  0.38499872744E+04  0.38768509877E+04  0.45560022764E+03 0.  0.
      99925    2    3    3    0    0  0.88939718335E+02 -0.26177369345E+02  0.29820922627E+04  0.29951000094E+04  0.26297200436E+03 0.  0.
         25    1    4    4    0    0  0.69413377623E+02  0.15456978011E+02  0.13839136081E+04  0.13913739677E+04  0.12509000000E+03 0.  0.
         25    1    4    4    0    0  0.19526340712E+02 -0.41634347356E+02  0.15981786545E+04  0.16037260417E+04  0.12509000000E+03 0.  0.
         25    1    3    3    0    0 -0.88939718335E+02  0.26177369345E+02  0.86789501179E+03  0.88175097831E+03  0.12509000000E+03 0.  0.
<mgrwt>
<rscale>  2 0.45560023E+03</rscale>
<asrwt>0</asrwt>
<pdfrwt beam="1">  1       21 0.56814910E+00 0.45560023E+03</pdfrwt>
<pdfrwt beam="2">  1       21 0.19752757E-02 0.45560023E+03</pdfrwt>
<totfact> 0.58765508E+02</totfact>
</mgrwt>
</event>
<event>
 7    0  0.4779893E-002  0.4531790E+03  0.7546771E-02  0.1026778E+00
         21   -1    0    0  502  501  0.00000000000E+00  0.00000000000E+00  0.41362476419E+03  0.41362476419E+03  0.00000000000E+00 0. -1.
         21   -1    0    0  501  502 -0.00000000000E+00 -0.00000000000E+00 -0.12412892144E+03  0.12412892144E+03  0.00000000000E+00 0. -1.
      99926    2    1    2    0    0  0.14210854715E-13 -0.35527136788E-14  0.28949584275E+03  0.53775368563E+03  0.45317897506E+03 0.  0.
      99925    2    3    3    0    0 -0.80866759028E+02 -0.24185303107E+02  0.26911998504E+03  0.38548075540E+03  0.26276507537E+03 0.  0.
         25    1    4    4    0    0 -0.65740236367E+02 -0.44006438656E+02  0.13376950621E+03  0.19949970980E+03  0.12509000000E+03 0.  0.
         25    1    3    3    0    0  0.80866759028E+02  0.24185303107E+02  0.20375857715E+02  0.15227293023E+03  0.12509000000E+03 0.  0.
         25    1    4    4    0    0 -0.15126522661E+02  0.19821135548E+02  0.13535047883E+03  0.18598104560E+03  0.12509000000E+03 0.  0.
<mgrwt>
<rscale>  2 0.45317898E+03</rscale>
<asrwt>0</asrwt>
<pdfrwt beam="1">  1       21 0.60827171E-01 0.45317898E+03</pdfrwt>
<pdfrwt beam="2">  1       21 0.18254253E-01 0.45317898E+03</pdfrwt>
<totfact> 0.63594682E+04</totfact>
</mgrwt>
</event>
<event>
 7    0  0.4779893E-002  0.4629206E+03  0.7546771E-02  0.1023938E+00
         21   -1    0    0  502  501  0.00000000000E+00  0.00000000000E+00  0.25631664383E+02  0.25631664383E+02  0.00000000000E+00 0.  1.
         21   -1    0    0  501  502 -0.00000000000E+00 -0.00000000000E+00 -0.20901441007E+04  0.20901441007E+04  0.00000000000E+00 0.  1.
      99926    2    1    2    0    0 -0.35527136788E-14 -0.14210854715E-13 -0.20645124363E+04  0.21157757651E+04  0.46292060703E+03 0.  0.
      99925    2    3    3    0    0 -0.30299374988E+02 -0.11612777363E+03 -0.13377945710E+04  0.13686679577E+04  0.26297139083E+03 0.  0.
         25    1    4    4    0    0 -0.25192144463E+02 -0.10023645756E+03 -0.79593986443E+03  0.81231137346E+03  0.12509000000E+03 0.  0.
         25    1    4    4    0    0 -0.51072305249E+01 -0.15891316068E+02 -0.54185470653E+03  0.55635658423E+03  0.12509000000E+03 0.  0.
         25    1    3    3    0    0  0.30299374988E+02  0.11612777363E+03 -0.72671786537E+03  0.74710780741E+03  0.12509000000E+03 0.  0.
<mgrwt>
<rscale>  2 0.46292061E+03</rscale>
<asrwt>0</asrwt>
<pdfrwt beam="1">  1       21 0.37693626E-02 0.46292061E+03</pdfrwt>
<pdfrwt beam="2">  1       21 0.30737411E+00 0.46292061E+03</pdfrwt>
<totfact> 0.11204985E+04</totfact>
</mgrwt>
</event>
<event>
 7    0  0.4779893E-002  0.4651961E+03  0.7546771E-02  0.1023285E+00
         21   -1    0    0  502  501  0.00000000000E+00  0.00000000000E+00  0.74209192719E+02  0.74209192719E+02  0.00000000000E+00 0.  1.
         21   -1    0    0  501  502 -0.00000000000E+00 -0.00000000000E+00 -0.72904526836E+03  0.72904526836E+03  0.00000000000E+00 0.  1.
      99926    2    1    2    0    0  0.00000000000E+00 -0.71054273576E-14 -0.65483607565E+03  0.80325446108E+03  0.46519613421E+03 0.  0.
      99925    2    3    3    0    0  0.10510357368E+03 -0.62742230543E+02 -0.41607419231E+03  0.50721714295E+03  0.26299838003E+03 0.  0.
         25    1    4    4    0    0  0.61804779175E+02 -0.53356892608E+02 -0.16059728167E+03  0.21933030730E+03  0.12509000000E+03 0.  0.
         25    1    4    4    0    0  0.43298794509E+02 -0.93853379353E+01 -0.25547691063E+03  0.28788683565E+03  0.12509000000E+03 0.  0.
         25    1    3    3    0    0 -0.10510357368E+03  0.62742230543E+02 -0.23876188334E+03  0.29603731814E+03  0.12509000000E+03 0.  0.
<mgrwt>
<rscale>  2 0.46519613E+03</rscale>
<asrwt>0</asrwt>
<pdfrwt beam="1">  1       21 0.10913116E-01 0.46519613E+03</pdfrwt>
<pdfrwt beam="2">  1       21 0.10721254E+00 0.46519613E+03</pdfrwt>
<totfact> 0.43981589E+04</totfact>
</mgrwt>
</event>
<event>
 7    0  0.4779893E-002  0.4551927E+03  0.7546771E-02  0.1026185E+00
         21   -1    0    0  502  501  0.00000000000E+00  0.00000000000E+00  0.68403831190E+03  0.68403831190E+03  0.00000000000E+00 0.  1.
         21   -1    0    0  501  502 -0.00000000000E+00 -0.00000000000E+00 -0.75726896733E+02  0.75726896733E+02  0.00000000000E+00 0.  1.
      99926    2    1    2    0    0  0.17763568394E-14  0.71054273576E-14  0.60831141517E+03  0.75976520864E+03  0.45519270032E+03 0.  0.
      99925    2    3    3    0    0  0.73652788178E+00 -0.31869917100E+02  0.20092718434E+03  0.33241798012E+03  0.26289493341E+03 0.  0.
         25    1    4    4    0    0  0.18023528613E+02  0.45075888971E+00  0.13976528186E+03  0.18843272774E+03  0.12509000000E+03 0.  0.
         25    1    4    4    0    0 -0.17287000731E+02 -0.32320675989E+02  0.61161902479E+02  0.14398525239E+03  0.12509000000E+03 0.  0.
         25    1    3    3    0    0 -0.73652788178E+00  0.31869917100E+02  0.40738423083E+03  0.42734722851E+03  0.12509000000E+03 0.  0.
<mgrwt>
<rscale>  2 0.45519270E+03</rscale>
<asrwt>0</asrwt>
<pdfrwt beam="1">  1       21 0.10059387E+00 0.45519270E+03</pdfrwt>
<pdfrwt beam="2">  1       21 0.11136309E-01 0.45519270E+03</pdfrwt>
<totfact> 0.49696786E+04</totfact>
</mgrwt>
</event>
<event>
 7    0  0.4779893E-002  0.4545355E+03  0.7546771E-02  0.1026378E+00
         21   -1    0    0  502  501  0.00000000000E+00  0.00000000000E+00  0.54755198910E+03  0.54755198910E+03  0.00000000000E+00 0.  1.
         21   -1    0    0  501  502 -0.00000000000E+00 -0.00000000000E+00 -0.94330103870E+02  0.94330103870E+02  0.00000000000E+00 0.  1.
      99926    2    1    2    0    0  0.00000000000E+00  0.88817841970E-15  0.45322188523E+03  0.64188209297E+03  0.45453552559E+03 0.  0.
      99925    2    3    3    0    0  0.60629649748E+02  0.16272354065E+01  0.41951261414E+03  0.49883515878E+03  0.26299634958E+03 0.  0.
         25    1    3    3    0    0 -0.60629649748E+02 -0.16272354065E+01  0.33709271095E+02  0.14304693419E+03  0.12509000000E+03 0.  0.
         25    1    4    4    0    0  0.45310333648E+01  0.32503327702E+02  0.20579550997E+03  0.24305615935E+03  0.12509000000E+03 0.  0.
         25    1    4    4    0    0  0.56098616383E+02 -0.30876092295E+02  0.21371710417E+03  0.25577899943E+03  0.12509000000E+03 0.  0.
<mgrwt>
<rscale>  2 0.45453553E+03</rscale>
<asrwt>0</asrwt>
<pdfrwt beam="1">  1       21 0.80522350E-01 0.45453553E+03</pdfrwt>
<pdfrwt beam="2">  1       21 0.13872074E-01 0.45453553E+03</pdfrwt>
<totfact> 0.56377951E+04</totfact>
</mgrwt>
</event>
<event>
 7    0  0.4779893E-002  0.4556473E+03  0.7546771E-02  0.1026051E+00
         21   -1    0    0  502  501  0.00000000000E+00  0.00000000000E+00  0.51944530993E+03  0.51944530993E+03  0.00000000000E+00 0. -1.
         21   -1    0    0  501  502 -0.00000000000E+00 -0.00000000000E+00 -0.99921224075E+02  0.99921224075E+02  0.00000000000E+00 0. -1.
      99926    2    1    2    0    0  0.17763568394E-14 -0.14210854715E-13  0.41952408585E+03  0.61936653400E+03  0.45564728116E+03 0.  0.
      99925    2    3    3    0    0 -0.11510535514E+02  0.10749983319E+03  0.21577112478E+03  0.35697087129E+03  0.26302531836E+03 0.  0.
         25    1    4    4    0    0  0.18853924772E+02  0.64204852619E+02  0.71603982385E+02  0.15890994926E+03  0.12509000000E+03 0.  0.
         25    1    3    3    0    0  0.11510535514E+02 -0.10749983319E+03  0.20375296107E+03  0.26239566271E+03  0.12509000000E+03 0.  0.
         25    1    4    4    0    0 -0.30364460286E+02  0.43294980571E+02  0.14416714240E+03  0.19806092204E+03  0.12509000000E+03 0.  0.
<mgrwt>
<rscale>  2 0.45564728E+03</rscale>
<asrwt>0</asrwt>
<pdfrwt beam="1">  1       21 0.76389015E-01 0.45564728E+03</pdfrwt>
<pdfrwt beam="2">  1       21 0.14694298E-01 0.45564728E+03</pdfrwt>
<totfact> 0.57208790E+04</totfact>
</mgrwt>
</event>
<event>
 7    0  0.4779893E-002  0.4570496E+03  0.7546771E-02  0.1025640E+00
         21   -1    0    0  502  501  0.00000000000E+00  0.00000000000E+00  0.42121833758E+02  0.42121833758E+02  0.00000000000E+00 0. -1.
         21   -1    0    0  501  502 -0.00000000000E+00 -0.00000000000E+00 -0.12398219468E+04  0.12398219468E+04  0.00000000000E+00 0. -1.
      99926    2    1    2    0    0  0.00000000000E+00  0.00000000000E+00 -0.11977001130E+04  0.12819437805E+04  0.45704955500E+03 0.  0.
      99925    2    3    3    0    0 -0.55784939183E+02  0.86484061423E+02 -0.89669706610E+03  0.94012248998E+03  0.26300801413E+03 0.  0.
         25    1    4    4    0    0 -0.13430991410E+02  0.15487062013E+02 -0.31842294143E+03  0.34272571883E+03  0.12509000000E+03 0.  0.
         25    1    3    3    0    0  0.55784939183E+02 -0.86484061423E+02 -0.30100304690E+03  0.34182129054E+03  0.12509000000E+03 0.  0.
         25    1    4    4    0    0 -0.42353947773E+02  0.70996999410E+02 -0.57827412467E+03  0.59739677115E+03  0.12509000000E+03 0.  0.
<mgrwt>
<rscale>  2 0.45704955E+03</rscale>
<asrwt>0</asrwt>
<pdfrwt beam="1">  1       21 0.61943871E-02 0.45704955E+03</pdfrwt>
<pdfrwt beam="2">  1       21 0.18232676E+00 0.45704955E+03</pdfrwt>
<totfact> 0.29175598E+04</totfact>
</mgrwt>
</event>
<event>
 7    0  0.4779893E-002  0.4071999E+03  0.7546771E-02  0.1041315E+00
         21   -1    0    0  502  501  0.00000000000E+00  0.00000000000E+00  0.20305513099E+03  0.20305513099E+03  0.00000000000E+00 0.  1.
         21   -1    0    0  501  502 -0.00000000000E+00 -0.00000000000E+00 -0.20414618186E+03  0.20414618186E+03  0.00000000000E+00 0.  1.
      99926    2    1    2    0    0  0.00000000000E+00  0.00000000000E+00 -0.10910508673E+01  0.40720131285E+03  0.40719985117E+03 0.  0.
      99925    2    3    3    0    0 -0.45255523715E+02  0.28353826955E+02  0.21490102493E+02  0.26932666501E+03  0.26310269108E+03 0.  0.
         25    1    3    3    0    0  0.45255523715E+02 -0.28353826955E+02 -0.22581153360E+02  0.13787464784E+03  0.12509000000E+03 0.  0.
         25    1    4    4    0    0  0.15955017409E+02  0.13334891836E+02 -0.44023466827E+01  0.12688290144E+03  0.12509000000E+03 0.  0.
         25    1    4    4    0    0 -0.61210541124E+02  0.15018935119E+02  0.25892449176E+02  0.14244376357E+03  0.12509000000E+03 0.  0.
<mgrwt>
<rscale>  2 0.40719985E+03</rscale>
<asrwt>0</asrwt>
<pdfrwt beam="1">  1       21 0.29861049E-01 0.40719985E+03</pdfrwt>
<pdfrwt beam="2">  1       21 0.30021497E-01 0.40719985E+03</pdfrwt>
<totfact> 0.10781753E+05</totfact>
</mgrwt>
</event>
<event>
 7    0  0.4779893E-002  0.4467304E+03  0.7546771E-02  0.1028702E+00
         21   -1    0    0  502  501  0.00000000000E+00  0.00000000000E+00  0.53356266541E+02  0.53356266541E+02  0.00000000000E+00 0. -1.
         21   -1    0    0  501  502 -0.00000000000E+00 -0.00000000000E+00 -0.93507309289E+03  0.93507309289E+03  0.00000000000E+00 0. -1.
      99926    2    1    2    0    0  0.00000000000E+00 -0.71054273576E-14 -0.88171682635E+03  0.98842935943E+03  0.44673038482E+03 0.  0.
      99925    2    3    3    0    0 -0.27056857342E+02 -0.63915899868E+02 -0.38423841939E+03  0.47079088591E+03  0.26303531993E+03 0.  0.
         25    1    4    4    0    0 -0.87526439199E+01 -0.23308500477E+02 -0.25688863763E+03  0.28680860380E+03  0.12509000000E+03 0.  0.
         25    1    4    4    0    0 -0.18304213422E+02 -0.40607399391E+02 -0.12734978176E+03  0.18398228211E+03  0.12509000000E+03 0.  0.
         25    1    3    3    0    0  0.27056857342E+02  0.63915899868E+02 -0.49747840695E+03  0.51763847352E+03  0.12509000000E+03 0.  0.
<mgrwt>
<rscale>  2 0.44673038E+03</rscale>
<asrwt>0</asrwt>
<pdfrwt beam="1">  1       21 0.78465103E-02 0.44673038E+03</pdfrwt>
<pdfrwt beam="2">  1       21 0.13751074E+00 0.44673038E+03</pdfrwt>
<totfact> 0.42285872E+04</totfact>
</mgrwt>
</event>
<event>
 7    0  0.4779893E-002  0.4580516E+03  0.7546771E-02  0.1025348E+00
         21   -1    0    0  502  501  0.00000000000E+00  0.00000000000E+00  0.21162158005E+03  0.21162158005E+03  0.00000000000E+00 0. -1.
         21   -1    0    0  501  502 -0.00000000000E+00 -0.00000000000E+00 -0.24786135524E+03  0.24786135524E+03  0.00000000000E+00 0. -1.
      99926    2    1    2    0    0  0.35527136788E-14  0.00000000000E+00 -0.36239775188E+02  0.45948293529E+03  0.45805157626E+03 0.  0.
      99925    2    3    3    0    0 -0.20973509557E+02 -0.11239469288E+03 -0.42361889887E+02  0.28990273751E+03  0.26301447186E+03 0.  0.
         25    1    4    4    0    0  0.10406910583E+02 -0.23539522678E+02 -0.18532461063E+00  0.12771043560E+03  0.12509000000E+03 0.  0.
         25    1    3    3    0    0  0.20973509557E+02  0.11239469288E+03  0.61221146992E+01  0.16958019778E+03  0.12509000000E+03 0.  0.
         25    1    4    4    0    0 -0.31380420140E+02 -0.88855170201E+02 -0.42176565277E+02  0.16219230191E+03  0.12509000000E+03 0.  0.
<mgrwt>
<rscale>  2 0.45805158E+03</rscale>
<asrwt>0</asrwt>
<pdfrwt beam="1">  1       21 0.31120821E-01 0.45805158E+03</pdfrwt>
<pdfrwt beam="2">  1       21 0.36450199E-01 0.45805158E+03</pdfrwt>
<totfact> 0.66582690E+04</totfact>
</mgrwt>
</event>
<event>
 7    0  0.4779893E-002  0.4545856E+03  0.7546771E-02  0.1026363E+00
         21   -1    0    0  502  501  0.00000000000E+00  0.00000000000E+00  0.41255075720E+02  0.41255075720E+02  0.00000000000E+00 0.  1.
         21   -1    0    0  501  502 -0.00000000000E+00 -0.00000000000E+00 -0.12522582260E+04  0.12522582260E+04  0.00000000000E+00 0.  1.
      99926    2    1    2    0    0 -0.14210854715E-13  0.00000000000E+00 -0.12110031503E+04  0.12935133017E+04  0.45458556041E+03 0.  0.
      99925    2    3    3    0    0 -0.10654085537E+03 -0.33676306824E+02 -0.80186481531E+03  0.85132925322E+03  0.26322854681E+03 0.  0.
         25    1    4    4    0    0 -0.63087892049E+02 -0.83088477941E+01 -0.52416150486E+03  0.54262501817E+03  0.12509000000E+03 0.  0.
         25    1    4    4    0    0 -0.43452963319E+02 -0.25367459030E+02 -0.27770331045E+03  0.30870423504E+03  0.12509000000E+03 0.  0.
         25    1    3    3    0    0  0.10654085537E+03  0.33676306824E+02 -0.40913833495E+03  0.44218404848E+03  0.12509000000E+03 0.  0.
<mgrwt>
<rscale>  2 0.45458556E+03</rscale>
<asrwt>0</asrwt>
<pdfrwt beam="1">  1       21 0.60669234E-02 0.45458556E+03</pdfrwt>
<pdfrwt beam="2">  1       21 0.18415561E+00 0.45458556E+03</pdfrwt>
<totfact> 0.29398330E+04</totfact>
</mgrwt>
</event>
<event>
 7    0  0.4779893E-002  0.4581115E+03  0.7546771E-02  0.1025330E+00
         21   -1    0    0  502  501  0.00000000000E+00  0.00000000000E+00  0.10469149647E+04  0.10469149647E+04  0.00000000000E+00 0.  1.
         21   -1    0    0  501  502 -0.00000000000E+00 -0.00000000000E+00 -0.50115368560E+02  0.50115368560E+02  0.00000000000E+00 0.  1.
      99926    2    1    2    0    0  0.00000000000E+00  0.00000000000E+00  0.99679959610E+03  0.10970303332E+04  0.45811146812E+03 0.  0.
      99925    2    3    3    0    0 -0.94269481735E+02  0.50637308664E+02  0.51876927990E+03  0.59145010860E+03  0.26313645317E+03 0.  0.
         25    1    4    4    0    0 -0.30588522487E+02 -0.13414212288E+02  0.22320080797E+03  0.25803431473E+03  0.12509000000E+03 0.  0.
         25    1    4    4    0    0 -0.63680959248E+02  0.64051520952E+02  0.29556847193E+03  0.33341579388E+03  0.12509000000E+03 0.  0.
         25    1    3    3    0    0  0.94269481735E+02 -0.50637308664E+02  0.47803031620E+03  0.50558022461E+03  0.12509000000E+03 0.  0.
<mgrwt>
<rscale>  2 0.45811147E+03</rscale>
<asrwt>0</asrwt>
<pdfrwt beam="1">  1       21 0.15395807E+00 0.45811147E+03</pdfrwt>
<pdfrwt beam="2">  1       21 0.73699078E-02 0.45811147E+03</pdfrwt>
<totfact> 0.34746296E+04</totfact>
</mgrwt>
</event>
<event>
 7    0  0.4779893E-002  0.4596929E+03  0.7546771E-02  0.1024870E+00
         21   -1    0    0  502  501  0.00000000000E+00  0.00000000000E+00  0.10339460479E+03  0.10339460479E+03  0.00000000000E+00 0.  1.
         21   -1    0    0  501  502 -0.00000000000E+00 -0.00000000000E+00 -0.51094920067E+03  0.51094920067E+03  0.00000000000E+00 0.  1.
      99926    2    1    2    0    0  0.14210854715E-13  0.00000000000E+00 -0.40755459588E+03  0.61434380546E+03  0.45969290041E+03 0.  0.
      99925    2    3    3    0    0 -0.85762491551E+02  0.37524622661E+02 -0.16045733015E+03  0.32199492297E+03  0.26300356149E+03 0.  0.
         25    1    4    4    0    0 -0.74375645120E+02  0.18206276516E+02 -0.54261053890E+02  0.15638086571E+03  0.12509000000E+03 0.  0.
         25    1    3    3    0    0  0.85762491551E+02 -0.37524622661E+02 -0.24709726573E+03  0.29234888250E+03  0.12509000000E+03 0.  0.
         25    1    4    4    0    0 -0.11386846431E+02  0.19318346145E+02 -0.10619627626E+03  0.16561405725E+03  0.12509000000E+03 0.  0.
<mgrwt>
<rscale>  2 0.45969290E+03</rscale>
<asrwt>0</asrwt>
<pdfrwt beam="1">  1       21 0.15205089E-01 0.45969290E+03</pdfrwt>
<pdfrwt beam="2">  1       21 0.75139588E-01 0.45969290E+03</pdfrwt>
<totfact> 0.55710152E+04</totfact>
</mgrwt>
</event>
<event>
 7    0  0.4779893E-002  0.4300187E+03  0.7546771E-02  0.1033854E+00
         21   -1    0    0  502  501  0.00000000000E+00  0.00000000000E+00  0.54777780635E+03  0.54777780635E+03  0.00000000000E+00 0. -1.
         21   -1    0    0  501  502 -0.00000000000E+00 -0.00000000000E+00 -0.84393750109E+02  0.84393750109E+02  0.00000000000E+00 0. -1.
      99926    2    1    2    0    0  0.71054273576E-14  0.00000000000E+00  0.46338405624E+03  0.63217155646E+03  0.43001871264E+03 0.  0.
      99925    2    3    3    0    0  0.56002686022E+02  0.48044411132E+02  0.22952389696E+03  0.35688507208E+03  0.26313716787E+03 0.  0.
         25    1    4    4    0    0 -0.98378407265E+01  0.32664758839E+02  0.91282330221E+02  0.15856778201E+03  0.12509000000E+03 0.  0.
         25    1    4    4    0    0  0.65840526748E+02  0.15379652294E+02  0.13824156674E+03  0.19831729007E+03  0.12509000000E+03 0.  0.
         25    1    3    3    0    0 -0.56002686022E+02 -0.48044411132E+02  0.23386015928E+03  0.27528648438E+03  0.12509000000E+03 0.  0.
<mgrwt>
<rscale>  2 0.43001871E+03</rscale>
<asrwt>0</asrwt>
<pdfrwt beam="1">  1       21 0.80555559E-01 0.43001871E+03</pdfrwt>
<pdfrwt beam="2">  1       21 0.12410846E-01 0.43001871E+03</pdfrwt>
<totfact> 0.69450417E+04</totfact>
</mgrwt>
</event>
<event>
 7    0  0.4779893E-002  0.4576561E+03  0.7546771E-02  0.1025463E+00
         21   -1    0    0  502  501  0.00000000000E+00  0.00000000000E+00  0.77113490384E+02  0.77113490384E+02  0.00000000000E+00 0.  1.
         21   -1    0    0  501  502 -0.00000000000E+00 -0.00000000000E+00 -0.67902885470E+03  0.67902885470E+03  0.00000000000E+00 0.  1.
      99926    2    1    2    0    0 -0.14210854715E-13  0.00000000000E+00 -0.60191536432E+03  0.75614234509E+03  0.45765613754E+03 0.  0.
      99925    2    3    3    0    0  0.92332885034E+02  0.56574580856E+02 -0.31030015335E+03  0.42086188901E+03  0.26289256284E+03 0.  0.
         25    1    3    3    0    0 -0.92332885034E+02 -0.56574580856E+02 -0.29161521097E+03  0.33528045608E+03  0.12509000000E+03 0.  0.
         25    1    4    4    0    0  0.38007680134E+02  0.10662450193E+02 -0.95238870767E+02  0.16209942072E+03  0.12509000000E+03 0.  0.
         25    1    4    4    0    0  0.54325204900E+02  0.45912130664E+02 -0.21506128258E+03  0.25876246829E+03  0.12509000000E+03 0.  0.
<mgrwt>
<rscale>  2 0.45765614E+03</rscale>
<asrwt>0</asrwt>
<pdfrwt beam="1">  1       21 0.11340219E-01 0.45765614E+03</pdfrwt>
<pdfrwt beam="2">  1       21 0.99857184E-01 0.45765614E+03</pdfrwt>
<totfact> 0.48929275E+04</totfact>
</mgrwt>
</event>
<event>
 7    0  0.4779893E-002  0.4532446E+03  0.7546771E-02  0.1026759E+00
         21   -1    0    0  502  501  0.00000000000E+00  0.00000000000E+00  0.44985435916E+02  0.44985435916E+02  0.00000000000E+00 0.  1.
         21   -1    0    0  501  502 -0.00000000000E+00 -0.00000000000E+00 -0.11416509006E+04  0.11416509006E+04  0.00000000000E+00 0.  1.
      99926    2    1    2    0    0  0.14210854715E-13  0.00000000000E+00 -0.10966654647E+04  0.11866363365E+04  0.45324458487E+03 0.  0.
      99925    2    3    3    0    0 -0.10529303633E+03  0.35261406384E+02 -0.66371873524E+03  0.72250233764E+03  0.26297733382E+03 0.  0.
         25    1    4    4    0    0 -0.90500192799E+02  0.39225282712E+02 -0.38158440735E+03  0.41350099847E+03  0.12509000000E+03 0.  0.
         25    1    4    4    0    0 -0.14792843530E+02 -0.39638763275E+01 -0.28213432789E+03  0.30900133917E+03  0.12509000000E+03 0.  0.
         25    1    3    3    0    0  0.10529303633E+03 -0.35261406384E+02 -0.43294672946E+03  0.46413399889E+03  0.12509000000E+03 0.  0.
<mgrwt>
<rscale>  2 0.45324458E+03</rscale>
<asrwt>0</asrwt>
<pdfrwt beam="1">  1       21 0.66155052E-02 0.45324458E+03</pdfrwt>
<pdfrwt beam="2">  1       21 0.16788984E+00 0.45324458E+03</pdfrwt>
<totfact> 0.33031837E+04</totfact>
</mgrwt>
</event>
<event>
 7    0  0.4779893E-002  0.4080961E+03  0.7546771E-02  0.1041012E+00
         21   -1    0    0  502  501  0.00000000000E+00  0.00000000000E+00  0.16991077935E+03  0.16991077935E+03  0.00000000000E+00 0. -1.
         21   -1    0    0  501  502 -0.00000000000E+00 -0.00000000000E+00 -0.24504397941E+03  0.24504397941E+03  0.00000000000E+00 0. -1.
      99926    2    1    2    0    0  0.00000000000E+00  0.00000000000E+00 -0.75133200061E+02  0.41495475876E+03  0.40809613336E+03 0.  0.
      99925    2    3    3    0    0 -0.30316015717E+02 -0.49189909410E+02 -0.36244536639E+02  0.27178163195E+03  0.26308341079E+03 0.  0.
         25    1    3    3    0    0  0.30316015717E+02  0.49189909410E+02 -0.38888663422E+02  0.14317312681E+03  0.12509000000E+03 0.  0.
         25    1    4    4    0    0 -0.13335477335E+02 -0.27096152779E+02 -0.59095170190E+02  0.14160432088E+03  0.12509000000E+03 0.  0.
         25    1    4    4    0    0 -0.16980538382E+02 -0.22093756632E+02  0.22850633551E+02  0.13017731108E+03  0.12509000000E+03 0.  0.
<mgrwt>
<rscale>  2 0.40809613E+03</rscale>
<asrwt>0</asrwt>
<pdfrwt beam="1">  1       21 0.24986880E-01 0.40809613E+03</pdfrwt>
<pdfrwt beam="2">  1       21 0.36035879E-01 0.40809613E+03</pdfrwt>
<totfact> 0.10603388E+05</totfact>
</mgrwt>
</event>
<event>
 7    0  0.4779893E-002  0.4563673E+03  0.7546771E-02  0.1025840E+00
         21   -1    0    0  502  501  0.00000000000E+00  0.00000000000E+00  0.93897427654E+03  0.93897427654E+03  0.00000000000E+00 0.  1.
         21   -1    0    0  501  502 -0.00000000000E+00 -0.00000000000E+00 -0.55451772316E+02  0.55451772316E+02  0.00000000000E+00 0.  1.
      99926    2    1    2    0    0  0.00000000000E+00  0.00000000000E+00  0.88352250423E+03  0.99442604886E+03  0.45636734236E+03 0.  0.
      99925    2    3    3    0    0 -0.99339233097E+02  0.22597505036E+02  0.67004069644E+03  0.72684256503E+03  0.26261502047E+03 0.  0.
         25    1    4    4    0    0 -0.62071900210E+02  0.92263022966E+01  0.24664515906E+03  0.28358312368E+03  0.12509000000E+03 0.  0.
         25    1    4    4    0    0 -0.37267332888E+02  0.13371202739E+02  0.42339553739E+03  0.44325944135E+03  0.12509000000E+03 0.  0.
         25    1    3    3    0    0  0.99339233097E+02 -0.22597505036E+02  0.21348180778E+03  0.26758348383E+03  0.12509000000E+03 0.  0.
<mgrwt>
<rscale>  2 0.45636734E+03</rscale>
<asrwt>0</asrwt>
<pdfrwt beam="1">  1       21 0.13808444E+00 0.45636734E+03</pdfrwt>
<pdfrwt beam="2">  1       21 0.81546730E-02 0.45636734E+03</pdfrwt>
<totfact> 0.38966478E+04</totfact>
</mgrwt>
</event>
<event>
 7    0  0.4779893E-002  0.4569521E+03  0.7546771E-02  0.1025669E+00
         21   -1    0    0  502  501  0.00000000000E+00  0.00000000000E+00  0.43189732228E+03  0.43189732228E+03  0.00000000000E+00 0.  1.
         21   -1    0    0  501  502 -0.00000000000E+00 -0.00000000000E+00 -0.12086505885E+03  0.12086505885E+03  0.00000000000E+00 0.  1.
      99926    2    1    2    0    0 -0.71054273576E-14 -0.14210854715E-13  0.31103226343E+03  0.55276238113E+03  0.45695205558E+03 0.  0.
      99925    2    3    3    0    0  0.34637429273E+02 -0.10284072618E+03  0.24085135405E+03  0.37290456337E+03  0.26319664163E+03 0.  0.
         25    1    4    4    0    0  0.54394561577E+02 -0.71196522112E+02  0.13864527457E+03  0.20711767996E+03  0.12509000000E+03 0.  0.
         25    1    3    3    0    0 -0.34637429273E+02  0.10284072618E+03  0.70180909384E+02  0.17985781776E+03  0.12509000000E+03 0.  0.
         25    1    4    4    0    0 -0.19757132304E+02 -0.31644204071E+02  0.10220607948E+03  0.16578688341E+03  0.12509000000E+03 0.  0.
<mgrwt>
<rscale>  2 0.45695206E+03</rscale>
<asrwt>0</asrwt>
<pdfrwt beam="1">  1       21 0.63514312E-01 0.45695206E+03</pdfrwt>
<pdfrwt beam="2">  1       21 0.17774274E-01 0.45695206E+03</pdfrwt>
<totfact> 0.60740842E+04</totfact>
</mgrwt>
</event>
<event>
 7    0  0.4779893E-002  0.4538486E+03  0.7546771E-02  0.1026581E+00
         21   -1    0    0  502  501  0.00000000000E+00  0.00000000000E+00  0.14368673684E+03  0.14368673684E+03  0.00000000000E+00 0.  1.
         21   -1    0    0  501  502 -0.00000000000E+00 -0.00000000000E+00 -0.35838122582E+03  0.35838122582E+03  0.00000000000E+00 0.  1.
      99926    2    1    2    0    0  0.14210854715E-13  0.00000000000E+00 -0.21469448898E+03  0.50206796266E+03  0.45384856013E+03 0.  0.
      99925    2    3    3    0    0 -0.75128375541E+02  0.82200258032E+02 -0.12252966596E+03  0.31090568099E+03  0.26314951681E+03 0.  0.
         25    1    4    4    0    0 -0.21468654283E+00  0.57833820843E+02 -0.54979229303E+02  0.14837459580E+03  0.12509000000E+03 0.  0.
         25    1    4    4    0    0 -0.74913688998E+02  0.24366437190E+02 -0.67550436661E+02  0.16253108519E+03  0.12509000000E+03 0.  0.
         25    1    3    3    0    0  0.75128375541E+02 -0.82200258032E+02 -0.92164823021E+02  0.19116228167E+03  0.12509000000E+03 0.  0.
<mgrwt>
<rscale>  2 0.45384856E+03</rscale>
<asrwt>0</asrwt>
<pdfrwt beam="1">  1       21 0.21130403E-01 0.45384856E+03</pdfrwt>
<pdfrwt beam="2">  1       21 0.52703120E-01 0.45384856E+03</pdfrwt>
<totfact> 0.65724277E+04</totfact>
</mgrwt>
</event>
<event>
 7    0  0.4779893E-002  0.4583285E+03  0.7546771E-02  0.1025267E+00
         21   -1    0    0  502  501  0.00000000000E+00  0.00000000000E+00  0.10411022237E+03  0.10411022237E+03  0.00000000000E+00 0.  1.
         21   -1    0    0  501  502 -0.00000000000E+00 -0.00000000000E+00 -0.50442937228E+03  0.50442937228E+03  0.00000000000E+00 0.  1.
      99926    2    1    2    0    0  0.00000000000E+00 -0.14210854715E-13 -0.40031914990E+03  0.60853959465E+03  0.45832850280E+03 0.  0.
      99925    2    3    3    0    0  0.38941238116E+02  0.10957340585E+03 -0.25175177437E+03  0.38217147749E+03  0.26297020936E+03 0.  0.
         25    1    4    4    0    0  0.13354366387E+02  0.97000890920E+02 -0.14902111717E+03  0.21781256484E+03  0.12509000000E+03 0.  0.
         25    1    3    3    0    0 -0.38941238116E+02 -0.10957340585E+03 -0.14856737553E+03  0.22636811716E+03  0.12509000000E+03 0.  0.
         25    1    4    4    0    0  0.25586871728E+02  0.12572514932E+02 -0.10273065720E+03  0.16435891265E+03  0.12509000000E+03 0.  0.
<mgrwt>
<rscale>  2 0.45832850E+03</rscale>
<asrwt>0</asrwt>
<pdfrwt beam="1">  1       21 0.15310327E-01 0.45832850E+03</pdfrwt>
<pdfrwt beam="2">  1       21 0.74180790E-01 0.45832850E+03</pdfrwt>
<totfact> 0.56651384E+04</totfact>
</mgrwt>
</event>
<event>
 7    0  0.4779893E-002  0.4423343E+03  0.7546771E-02  0.1030033E+00
         21   -1    0    0  502  501  0.00000000000E+00  0.00000000000E+00  0.10947935665E+04  0.10947935665E+04  0.00000000000E+00 0. -1.
         21   -1    0    0  501  502 -0.00000000000E+00 -0.00000000000E+00 -0.44679568995E+02  0.44679568995E+02  0.00000000000E+00 0. -1.
      99926    2    1    2    0    0  0.35527136788E-14  0.00000000000E+00  0.10501139975E+04  0.11394731355E+04  0.44233428395E+03 0.  0.
      99925    2    3    3    0    0 -0.24851843656E+02 -0.90365525408E+02  0.76448874230E+03  0.81387701017E+03  0.26300039593E+03 0.  0.
         25    1    4    4    0    0 -0.48077724641E+02 -0.41574845137E+02  0.44340854185E+03  0.46507910987E+03  0.12509000000E+03 0.  0.
         25    1    3    3    0    0  0.24851843656E+02  0.90365525408E+02  0.28562525518E+03  0.32559612530E+03  0.12509000000E+03 0.  0.
         25    1    4    4    0    0  0.23225880986E+02 -0.48790680271E+02  0.32108020045E+03  0.34879790030E+03  0.12509000000E+03 0.  0.
<mgrwt>
<rscale>  2 0.44233428E+03</rscale>
<asrwt>0</asrwt>
<pdfrwt beam="1">  1       21 0.16099904E+00 0.44233428E+03</pdfrwt>
<pdfrwt beam="2">  1       21 0.65705256E-02 0.44233428E+03</pdfrwt>
<totfact> 0.37724744E+04</totfact>
</mgrwt>
</event>
<event>
 7    0  0.4779893E-002  0.4623273E+03  0.7546771E-02  0.1024108E+00
         21   -1    0    0  502  501  0.00000000000E+00  0.00000000000E+00  0.64531913091E+02  0.64531913091E+02  0.00000000000E+00 0. -1.
         21   -1    0    0  501  502 -0.00000000000E+00 -0.00000000000E+00 -0.82806517456E+03  0.82806517456E+03  0.00000000000E+00 0. -1.
      99926    2    1    2    0    0  0.00000000000E+00  0.00000000000E+00 -0.76353326146E+03  0.89259708765E+03  0.46232728614E+03 0.  0.
      99925    2    3    3    0    0 -0.16747641397E+02  0.49212442002E+02 -0.68528514385E+03  0.73615980325E+03  0.26384309655E+03 0.  0.
         25    1    4    4    0    0  0.29216937721E+02  0.33784091646E+02 -0.38500663748E+03  0.40727461657E+03  0.12509000000E+03 0.  0.
         25    1    4    4    0    0 -0.45964579118E+02  0.15428350355E+02 -0.30027850637E+03  0.32888518668E+03  0.12509000000E+03 0.  0.
         25    1    3    3    0    0  0.16747641397E+02 -0.49212442002E+02 -0.78248117613E+02  0.15643728440E+03  0.12509000000E+03 0.  0.
<mgrwt>
<rscale>  2 0.46232729E+03</rscale>
<asrwt>0</asrwt>
<pdfrwt beam="1">  1       21 0.94899884E-02 0.46232729E+03</pdfrwt>
<pdfrwt beam="2">  1       21 0.12177428E+00 0.46232729E+03</pdfrwt>
<totfact> 0.41143399E+04</totfact>
</mgrwt>
</event>
<event>
 7    0  0.4779893E-002  0.4530646E+03  0.7546771E-02  0.1026812E+00
         21   -1    0    0  502  501  0.00000000000E+00  0.00000000000E+00  0.28653878322E+03  0.28653878322E+03  0.00000000000E+00 0.  1.
         21   -1    0    0  501  502 -0.00000000000E+00 -0.00000000000E+00 -0.17909230592E+03  0.17909230592E+03  0.00000000000E+00 0.  1.
      99926    2    1    2    0    0  0.00000000000E+00  0.00000000000E+00  0.10744647731E+03  0.46563108914E+03  0.45306463743E+03 0.  0.
      99925    2    3    3    0    0  0.98288460287E+02 -0.13392293707E+02  0.16062713385E+02  0.28167871660E+03  0.26314428298E+03 0.  0.
         25    1    4    4    0    0  0.36210999675E+02 -0.22875201286E+02  0.43212443567E+02  0.13910188608E+03  0.12509000000E+03 0.  0.
         25    1    3    3    0    0 -0.98288460287E+02  0.13392293707E+02  0.91383763922E+02  0.18395237254E+03  0.12509000000E+03 0.  0.
         25    1    4    4    0    0  0.62077460612E+02  0.94829075792E+01 -0.27149730183E+02  0.14257683052E+03  0.12509000000E+03 0.  0.
<mgrwt>
<rscale>  2 0.45306464E+03</rscale>
<asrwt>0</asrwt>
<pdfrwt beam="1">  1       21 0.42138056E-01 0.45306464E+03</pdfrwt>
<pdfrwt beam="2">  1       21 0.26337104E-01 0.45306464E+03</pdfrwt>
<totfact> 0.68812576E+04</totfact>
</mgrwt>
</event>
<event>
 7    0  0.4779893E-002  0.4613397E+03  0.7546771E-02  0.1024393E+00
         21   -1    0    0  502  501  0.00000000000E+00  0.00000000000E+00  0.69504618243E+02  0.69504618243E+02  0.00000000000E+00 0. -1.
         21   -1    0    0  501  502 -0.00000000000E+00 -0.00000000000E+00 -0.76554020065E+03  0.76554020065E+03  0.00000000000E+00 0. -1.
      99926    2    1    2    0    0  0.00000000000E+00  0.00000000000E+00 -0.69603558241E+03  0.83504481890E+03  0.46133969869E+03 0.  0.
      99925    2    3    3    0    0  0.81179573872E+02 -0.18515093001E+02 -0.58919857536E+03  0.65066861094E+03  0.26321426288E+03 0.  0.
         25    1    3    3    0    0 -0.81179573872E+02  0.18515093001E+02 -0.10683700705E+03  0.18437620795E+03  0.12509000000E+03 0.  0.
         25    1    4    4    0    0  0.38361825108E+01  0.12436548769E+02 -0.26523400639E+03  0.29354040656E+03  0.12509000000E+03 0.  0.
         25    1    4    4    0    0  0.77343391361E+02 -0.30951641770E+02 -0.32396456897E+03  0.35712820438E+03  0.12509000000E+03 0.  0.
<mgrwt>
<rscale>  2 0.46133970E+03</rscale>
<asrwt>0</asrwt>
<pdfrwt beam="1">  1       21 0.10221268E-01 0.46133970E+03</pdfrwt>
<pdfrwt beam="2">  1       21 0.11257943E+00 0.46133970E+03</pdfrwt>
<totfact> 0.43891724E+04</totfact>
</mgrwt>
</event>
<event>
 7    0  0.4779893E-002  0.4435145E+03  0.7546771E-02  0.1029674E+00
         21   -1    0    0  502  501  0.00000000000E+00  0.00000000000E+00  0.33390149232E+03  0.33390149232E+03  0.00000000000E+00 0.  1.
         21   -1    0    0  501  502 -0.00000000000E+00 -0.00000000000E+00 -0.14727778955E+03  0.14727778955E+03  0.00000000000E+00 0.  1.
      99926    2    1    2    0    0  0.00000000000E+00  0.00000000000E+00  0.18662370276E+03  0.48117928187E+03  0.44351448101E+03 0.  0.
      99925    2    3    3    0    0  0.80242785740E+01  0.84524328965E+02  0.57065066596E+02  0.28207704798E+03  0.26287314039E+03 0.  0.
         25    1    4    4    0    0 -0.23048617272E+02  0.31447756647E+02  0.56488476011E+02  0.14268376284E+03  0.12509000000E+03 0.  0.
         25    1    4    4    0    0  0.31072895846E+02  0.53076572318E+02  0.57659058568E+00  0.13939328514E+03  0.12509000000E+03 0.  0.
         25    1    3    3    0    0 -0.80242785740E+01 -0.84524328965E+02  0.12955863617E+03  0.19910223389E+03  0.12509000000E+03 0.  0.
<mgrwt>
<rscale>  2 0.44351448E+03</rscale>
<asrwt>0</asrwt>
<pdfrwt beam="1">  1       21 0.49103160E-01 0.44351448E+03</pdfrwt>
<pdfrwt beam="2">  1       21 0.21658499E-01 0.44351448E+03</pdfrwt>
<totfact> 0.73051251E+04</totfact>
</mgrwt>
</event>
<event>
 7    0  0.4779893E-002  0.4584227E+03  0.7546771E-02  0.1025240E+00
         21   -1    0    0  502  501  0.00000000000E+00  0.00000000000E+00  0.55062764592E+03  0.55062764592E+03  0.00000000000E+00 0. -1.
         21   -1    0    0  501  502 -0.00000000000E+00 -0.00000000000E+00 -0.95414451119E+02  0.95414451119E+02  0.00000000000E+00 0. -1.
      99926    2    1    2    0    0  0.00000000000E+00  0.00000000000E+00  0.45521319480E+03  0.64604209704E+03  0.45842266352E+03 0.  0.
      99925    2    3    3    0    0  0.74640483131E+02 -0.83475984012E+02  0.24090442983E+03  0.37380103387E+03  0.26296925103E+03 0.  0.
         25    1    3    3    0    0 -0.74640483131E+02  0.83475984012E+02  0.21430876498E+03  0.27224106317E+03  0.12509000000E+03 0.  0.
         25    1    4    4    0    0  0.40596630251E+02 -0.43363240681E+02  0.17435995419E+03  0.22265973762E+03  0.12509000000E+03 0.  0.
         25    1    4    4    0    0  0.34043852880E+02 -0.40112743331E+02  0.66544475636E+02  0.15114129626E+03  0.12509000000E+03 0.  0.
<mgrwt>
<rscale>  2 0.45842266E+03</rscale>
<asrwt>0</asrwt>
<pdfrwt beam="1">  1       21 0.80974652E-01 0.45842266E+03</pdfrwt>
<pdfrwt beam="2">  1       21 0.14031537E-01 0.45842266E+03</pdfrwt>
<totfact> 0.54444805E+04</totfact>
</mgrwt>
</event>
<event>
 7    0  0.4779893E-002  0.4539555E+03  0.7546771E-02  0.1026549E+00
         21   -1    0    0  502  501  0.00000000000E+00  0.00000000000E+00  0.51890415686E+03  0.51890415686E+03  0.00000000000E+00 0. -1.
         21   -1    0    0  501  502 -0.00000000000E+00 -0.00000000000E+00 -0.99284042287E+02  0.99284042287E+02  0.00000000000E+00 0. -1.
      99926    2    1    2    0    0  0.00000000000E+00  0.00000000000E+00  0.41962011457E+03  0.61818819915E+03  0.45395551435E+03 0.  0.
      99925    2    3    3    0    0  0.36625816950E+02 -0.10022808929E+03  0.31151648203E+03  0.42141161563E+03  0.26297929741E+03 0.  0.
         25    1    3    3    0    0 -0.36625816950E+02  0.10022808929E+03  0.10810363255E+03  0.19677658351E+03  0.12509000000E+03 0.  0.
         25    1    4    4    0    0  0.16441775536E+02 -0.90862286752E+02  0.19111595788E+03  0.24637188272E+03  0.12509000000E+03 0.  0.
         25    1    4    4    0    0  0.20184041414E+02 -0.93658025373E+01  0.12040052414E+03  0.17503973292E+03  0.12509000000E+03 0.  0.
<mgrwt>
<rscale>  2 0.45395551E+03</rscale>
<asrwt>0</asrwt>
<pdfrwt beam="1">  1       21 0.76309434E-01 0.45395551E+03</pdfrwt>
<pdfrwt beam="2">  1       21 0.14600595E-01 0.45395551E+03</pdfrwt>
<totfact> 0.58049804E+04</totfact>
</mgrwt>
</event>
<event>
 7    0  0.4779893E-002  0.4649844E+03  0.7546771E-02  0.1023345E+00
         21   -1    0    0  502  501  0.00000000000E+00  0.00000000000E+00  0.33106291864E+02  0.33106291864E+02  0.00000000000E+00 0.  1.
         21   -1    0    0  501  502 -0.00000000000E+00 -0.00000000000E+00 -0.16326996506E+04  0.16326996506E+04  0.00000000000E+00 0.  1.
      99926    2    1    2    0    0  0.00000000000E+00 -0.88817841970E-15 -0.15995933588E+04  0.16658059425E+04  0.46498443484E+03 0.  0.
      99925    2    3    3    0    0 -0.88482328255E+02  0.22678059296E+01 -0.69560252259E+03  0.74891925083E+03  0.26302644254E+03 0.  0.
         25    1    3    3    0    0  0.88482328255E+02 -0.22678059296E+01 -0.90399083620E+03  0.91688669168E+03  0.12509000000E+03 0.  0.
         25    1    4    4    0    0 -0.53514204130E+02 -0.73543761586E+01 -0.25057275769E+03  0.28522284602E+03  0.12509000000E+03 0.  0.
         25    1    4    4    0    0 -0.34968124125E+02  0.96221820882E+01 -0.44502976490E+03  0.46369640482E+03  0.12509000000E+03 0.  0.
<mgrwt>
<rscale>  2 0.46498443E+03</rscale>
<asrwt>0</asrwt>
<pdfrwt beam="1">  1       21 0.48685717E-02 0.46498443E+03</pdfrwt>
<pdfrwt beam="2">  1       21 0.24010292E+00 0.46498443E+03</pdfrwt>
<totfact> 0.18506072E+04</totfact>
</mgrwt>
</event>
<event>
 7    0  0.4779893E-002  0.4560355E+03  0.7546771E-02  0.1025937E+00
         21   -1    0    0  502  501  0.00000000000E+00  0.00000000000E+00  0.75086207067E+03  0.75086207067E+03  0.00000000000E+00 0.  1.
         21   -1    0    0  501  502 -0.00000000000E+00 -0.00000000000E+00 -0.69243197949E+02  0.69243197949E+02  0.00000000000E+00 0.  1.
      99926    2    1    2    0    0  0.00000000000E+00  0.14210854715E-13  0.68161887272E+03  0.82010526862E+03  0.45603548542E+03 0.  0.
      99925    2    3    3    0    0  0.23299858129E+02 -0.10734435310E+03  0.48753436246E+03  0.56440622921E+03  0.26229552695E+03 0.  0.
         25    1    4    4    0    0  0.56495241573E+01 -0.14378869041E+02  0.18893197609E+03  0.22711554039E+03  0.12509000000E+03 0.  0.
         25    1    3    3    0    0 -0.23299858129E+02  0.10734435310E+03  0.19408451026E+03  0.25569903941E+03  0.12509000000E+03 0.  0.
         25    1    4    4    0    0  0.17650333972E+02 -0.92965484062E+02  0.29860238637E+03  0.33729068882E+03  0.12509000000E+03 0.  0.
<mgrwt>
<rscale>  2 0.45603549E+03</rscale>
<asrwt>0</asrwt>
<pdfrwt beam="1">  1       21 0.11042089E+00 0.45603549E+03</pdfrwt>
<pdfrwt beam="2">  1       21 0.10182824E-01 0.45603549E+03</pdfrwt>
<totfact> 0.46429282E+04</totfact>
</mgrwt>
</event>
<event>
 7    0  0.4779893E-002  0.4525902E+03  0.7546771E-02  0.1026952E+00
         21   -1    0    0  502  501  0.00000000000E+00  0.00000000000E+00  0.52330056185E+03  0.52330056185E+03  0.00000000000E+00 0.  1.
         21   -1    0    0  501  502 -0.00000000000E+00 -0.00000000000E+00 -0.97858617629E+02  0.97858617629E+02  0.00000000000E+00 0.  1.
      99926    2    1    2    0    0  0.00000000000E+00  0.00000000000E+00  0.42544194422E+03  0.62115917947E+03  0.45259018808E+03 0.  0.
      99925    2    3    3    0    0  0.78382559611E+02 -0.78120227427E+02  0.27936307024E+03  0.39927375610E+03  0.26292434598E+03 0.  0.
         25    1    3    3    0    0 -0.78382559611E+02  0.78120227427E+02  0.14607887398E+03  0.22188542338E+03  0.12509000000E+03 0.  0.
         25    1    4    4    0    0  0.41212664441E+02 -0.64605455780E+02  0.19210902842E+03  0.24171416079E+03  0.12509000000E+03 0.  0.
         25    1    4    4    0    0  0.37169895170E+02 -0.13514771647E+02  0.87254041822E+02  0.15755959531E+03  0.12509000000E+03 0.  0.
<mgrwt>
<rscale>  2 0.45259019E+03</rscale>
<asrwt>0</asrwt>
<pdfrwt beam="1">  1       21 0.76955964E-01 0.45259019E+03</pdfrwt>
<pdfrwt beam="2">  1       21 0.14390973E-01 0.45259019E+03</pdfrwt>
<totfact> 0.58499628E+04</totfact>
</mgrwt>
</event>
<event>
 7    0  0.4779893E-002  0.4523175E+03  0.7546771E-02  0.1027033E+00
         21   -1    0    0  502  501  0.00000000000E+00  0.00000000000E+00  0.32859673030E+03  0.32859673030E+03  0.00000000000E+00 0. -1.
         21   -1    0    0  501  502 -0.00000000000E+00 -0.00000000000E+00 -0.15565517772E+03  0.15565517772E+03  0.00000000000E+00 0. -1.
      99926    2    1    2    0    0 -0.66613381478E-15  0.00000000000E+00  0.17294155258E+03  0.48425190803E+03  0.45231750996E+03 0.  0.
      99925    2    3    3    0    0  0.19516592776E+01  0.91682614919E+02  0.43093073719E+02  0.28197080062E+03  0.26313686276E+03 0.  0.
         25    1    3    3    0    0 -0.19516592776E+01 -0.91682614919E+02  0.12984847886E+03  0.20228110741E+03  0.12509000000E+03 0.  0.
         25    1    4    4    0    0  0.28097660861E+02  0.27430948615E+02 -0.46100647610E+01  0.13118954335E+03  0.12509000000E+03 0.  0.
         25    1    4    4    0    0 -0.26146001583E+02  0.64251666304E+02  0.47703138480E+02  0.15078125726E+03  0.12509000000E+03 0.  0.
<mgrwt>
<rscale>  2 0.45231751E+03</rscale>
<asrwt>0</asrwt>
<pdfrwt beam="1">  1       21 0.48323049E-01 0.45231751E+03</pdfrwt>
<pdfrwt beam="2">  1       21 0.22890467E-01 0.45231751E+03</pdfrwt>
<totfact> 0.67824722E+04</totfact>
</mgrwt>
</event>
<event>
 7    0  0.4779893E-002  0.4553387E+03  0.7546771E-02  0.1026142E+00
         21   -1    0    0  502  501  0.00000000000E+00  0.00000000000E+00  0.86392012084E+02  0.86392012084E+02  0.00000000000E+00 0. -1.
         21   -1    0    0  501  502 -0.00000000000E+00 -0.00000000000E+00 -0.59997839699E+03  0.59997839699E+03  0.00000000000E+00 0. -1.
      99926    2    1    2    0    0  0.17763568394E-14  0.35527136788E-14 -0.51358638491E+03  0.68637040907E+03  0.45533873511E+03 0.  0.
      99925    2    3    3    0    0 -0.76030575241E+01 -0.15256836792E+02 -0.15404338129E+03  0.30530708480E+03  0.26304462580E+03 0.  0.
         25    1    3    3    0    0  0.76030575241E+01  0.15256836792E+02 -0.35954300362E+03  0.38106332427E+03  0.12509000000E+03 0.  0.
         25    1    4    4    0    0 -0.17242473806E+02  0.30494202493E+02 -0.70788626596E+02  0.14793828796E+03  0.12509000000E+03 0.  0.
         25    1    4    4    0    0  0.96394162817E+01 -0.45751039286E+02 -0.83254754693E+02  0.15736879685E+03  0.12509000000E+03 0.  0.
<mgrwt>
<rscale>  2 0.45533874E+03</rscale>
<asrwt>0</asrwt>
<pdfrwt beam="1">  1       21 0.12704708E-01 0.45533874E+03</pdfrwt>
<pdfrwt beam="2">  1       21 0.88232114E-01 0.45533874E+03</pdfrwt>
<totfact> 0.53506579E+04</totfact>
</mgrwt>
</event>
<event>
 7    0  0.4779893E-002  0.4539966E+03  0.7546771E-02  0.1026537E+00
         21   -1    0    0  502  501  0.00000000000E+00  0.00000000000E+00  0.23488938836E+03  0.23488938836E+03  0.00000000000E+00 0. -1.
         21   -1    0    0  501  502 -0.00000000000E+00 -0.00000000000E+00 -0.21937232190E+03  0.21937232190E+03  0.00000000000E+00 0. -1.
      99926    2    1    2    0    0 -0.14210854715E-13  0.00000000000E+00  0.15517066458E+02  0.45426171025E+03  0.45399661018E+03 0.  0.
      99925    2    3    3    0    0  0.77066722504E+02 -0.76096104821E+02 -0.19073383818E+02  0.28522353635E+03  0.26317061924E+03 0.  0.
         25    1    4    4    0    0  0.27667055946E+02 -0.69429101625E+02 -0.34329147578E+02  0.14970592711E+03  0.12509000000E+03 0.  0.
         25    1    4    4    0    0  0.49399666558E+02 -0.66670031958E+01  0.15255763760E+02  0.13551760925E+03  0.12509000000E+03 0.  0.
         25    1    3    3    0    0 -0.77066722504E+02  0.76096104821E+02  0.34590450276E+02  0.16903817390E+03  0.12509000000E+03 0.  0.
<mgrwt>
<rscale>  2 0.45399661E+03</rscale>
<asrwt>0</asrwt>
<pdfrwt beam="1">  1       21 0.34542557E-01 0.45399661E+03</pdfrwt>
<pdfrwt beam="2">  1       21 0.32260636E-01 0.45399661E+03</pdfrwt>
<totfact> 0.69151898E+04</totfact>
</mgrwt>
</event>
<event>
 7    0  0.4779893E-002  0.4484272E+03  0.7546771E-02  0.1028192E+00
         21   -1    0    0  502  501  0.00000000000E+00  0.00000000000E+00  0.53143083484E+03  0.53143083484E+03  0.00000000000E+00 0.  1.
         21   -1    0    0  501  502 -0.00000000000E+00 -0.00000000000E+00 -0.94596960933E+02  0.94596960933E+02  0.00000000000E+00 0.  1.
      99926    2    1    2    0    0 -0.14210854715E-13 -0.71054273576E-14  0.43683387391E+03  0.62602779578E+03  0.44842721560E+03 0.  0.
      99925    2    3    3    0    0 -0.98007794660E+02 -0.42022409484E+02  0.28739238740E+03  0.40387542306E+03  0.26296304361E+03 0.  0.
         25    1    4    4    0    0 -0.12625263222E+02  0.11536354432E+01  0.11521165438E+03  0.17053434127E+03  0.12509000000E+03 0.  0.
         25    1    4    4    0    0 -0.85382531438E+02 -0.43176044927E+02  0.17218073302E+03  0.23334108179E+03  0.12509000000E+03 0.  0.
         25    1    3    3    0    0  0.98007794660E+02  0.42022409484E+02  0.14944148651E+03  0.22215237272E+03  0.12509000000E+03 0.  0.
<mgrwt>
<rscale>  2 0.44842722E+03</rscale>
<asrwt>0</asrwt>
<pdfrwt beam="1">  1       21 0.78151592E-01 0.44842722E+03</pdfrwt>
<pdfrwt beam="2">  1       21 0.13911318E-01 0.44842722E+03</pdfrwt>
<totfact> 0.60165880E+04</totfact>
</mgrwt>
</event>
<event>
 7    0  0.4779893E-002  0.4121758E+03  0.7546771E-02  0.1039643E+00
         21   -1    0    0  502  501  0.00000000000E+00  0.00000000000E+00  0.10563112125E+03  0.10563112125E+03  0.00000000000E+00 0. -1.
         21   -1    0    0  501  502 -0.00000000000E+00 -0.00000000000E+00 -0.40208053435E+03  0.40208053435E+03  0.00000000000E+00 0. -1.
      99926    2    1    2    0    0  0.00000000000E+00  0.71054273576E-14 -0.29644941310E+03  0.50771165560E+03  0.41217577646E+03 0.  0.
      99925    2    3    3    0    0  0.16816074197E+02  0.48765561560E+02 -0.14541262779E+03  0.30492980492E+03  0.26301424536E+03 0.  0.
         25    1    3    3    0    0 -0.16816074197E+02 -0.48765561560E+02 -0.15103678532E+03  0.20278185068E+03  0.12509000000E+03 0.  0.
         25    1    4    4    0    0  0.62759615288E+01  0.99326996945E+00 -0.10830182107E+03  0.16558129974E+03  0.12509000000E+03 0.  0.
         25    1    4    4    0    0  0.10540112668E+02  0.47772291591E+02 -0.37110806721E+02  0.13934850517E+03  0.12509000000E+03 0.  0.
<mgrwt>
<rscale>  2 0.41217578E+03</rscale>
<asrwt>0</asrwt>
<pdfrwt beam="1">  1       21 0.15533989E-01 0.41217578E+03</pdfrwt>
<pdfrwt beam="2">  1       21 0.59129489E-01 0.41217578E+03</pdfrwt>
<totfact> 0.92294134E+04</totfact>
</mgrwt>
</event>
<event>
 7    0  0.4779893E-002  0.4554534E+03  0.7546771E-02  0.1026108E+00
         21   -1    0    0  502  501  0.00000000000E+00  0.00000000000E+00  0.56999470324E+03  0.56999470324E+03  0.00000000000E+00 0. -1.
         21   -1    0    0  501  502 -0.00000000000E+00 -0.00000000000E+00 -0.90982355697E+02  0.90982355697E+02  0.00000000000E+00 0. -1.
      99926    2    1    2    0    0  0.71054273576E-14  0.00000000000E+00  0.47901234754E+03  0.66097705894E+03  0.45545344805E+03 0.  0.
      99925    2    3    3    0    0  0.63514473603E+02  0.78233693565E+02  0.22506641727E+03  0.36049304477E+03  0.26295578332E+03 0.  0.
         25    1    3    3    0    0 -0.63514473603E+02 -0.78233693565E+02  0.25394593027E+03  0.30048401416E+03  0.12509000000E+03 0.  0.
         25    1    4    4    0    0  0.42959322198E+02  0.62339604377E+02  0.78133656122E+02  0.16578331025E+03  0.12509000000E+03 0.  0.
         25    1    4    4    0    0  0.20555151405E+02  0.15894089187E+02  0.14693276115E+03  0.19470973453E+03  0.12509000000E+03 0.  0.
<mgrwt>
<rscale>  2 0.45545345E+03</rscale>
<asrwt>0</asrwt>
<pdfrwt beam="1">  1       21 0.83822749E-01 0.45545345E+03</pdfrwt>
<pdfrwt beam="2">  1       21 0.13379758E-01 0.45545345E+03</pdfrwt>
<totfact> 0.54876485E+04</totfact>
</mgrwt>
</event>
<event>
 7    0  0.4779893E-002  0.4466690E+03  0.7546771E-02  0.1028720E+00
         21   -1    0    0  502  501  0.00000000000E+00  0.00000000000E+00  0.99190115257E+02  0.99190115257E+02  0.00000000000E+00 0. -1.
         21   -1    0    0  501  502 -0.00000000000E+00 -0.00000000000E+00 -0.50285560406E+03  0.50285560406E+03  0.00000000000E+00 0. -1.
      99926    2    1    2    0    0  0.31225022568E-16  0.00000000000E+00 -0.40366548881E+03  0.60204571932E+03  0.44666902881E+03 0.  0.
      99925    2    3    3    0    0  0.22661938974E-01  0.50383542383E+02 -0.13144670097E+03  0.29825454367E+03  0.26294302760E+03 0.  0.
         25    1    4    4    0    0 -0.10755754617E+02  0.21493258357E+02 -0.10864396613E+03  0.16741763912E+03  0.12509000000E+03 0.  0.
         25    1    3    3    0    0 -0.22661938974E-01 -0.50383542383E+02 -0.27221878783E+03  0.30379117565E+03  0.12509000000E+03 0.  0.
         25    1    4    4    0    0  0.10778416556E+02  0.28890284026E+02 -0.22802734842E+02  0.13083690454E+03  0.12509000000E+03 0.  0.
<mgrwt>
<rscale>  2 0.44666903E+03</rscale>
<asrwt>0</asrwt>
<pdfrwt beam="1">  1       21 0.14586782E-01 0.44666903E+03</pdfrwt>
<pdfrwt beam="2">  1       21 0.73949354E-01 0.44666903E+03</pdfrwt>
<totfact> 0.62570224E+04</totfact>
</mgrwt>
</event>
<event>
 7    0  0.4779893E-002  0.4536727E+03  0.7546771E-02  0.1026632E+00
         21   -1    0    0  502  501  0.00000000000E+00  0.00000000000E+00  0.23271630668E+03  0.23271630668E+03  0.00000000000E+00 0. -1.
         21   -1    0    0  501  502 -0.00000000000E+00 -0.00000000000E+00 -0.22110500804E+03  0.22110500804E+03  0.00000000000E+00 0. -1.
      99926    2    1    2    0    0  0.14210854715E-13  0.17763568394E-14  0.11611298645E+02  0.45382131472E+03  0.45367274928E+03 0.  0.
      99925    2    3    3    0    0 -0.11065854994E+03 -0.15267096661E+02  0.14116009966E+02  0.28609480938E+03  0.26300680467E+03 0.  0.
         25    1    3    3    0    0  0.11065854994E+03  0.15267096661E+02 -0.25047113205E+01  0.16772650534E+03  0.12509000000E+03 0.  0.
         25    1    4    4    0    0 -0.43995172682E+02 -0.42604088655E+02  0.24292169799E+02  0.14137998869E+03  0.12509000000E+03 0.  0.
         25    1    4    4    0    0 -0.66663377255E+02  0.27336991993E+02 -0.10176159833E+02  0.14471482069E+03  0.12509000000E+03 0.  0.
<mgrwt>
<rscale>  2 0.45367275E+03</rscale>
<asrwt>0</asrwt>
<pdfrwt beam="1">  1       21 0.34222986E-01 0.45367275E+03</pdfrwt>
<pdfrwt beam="2">  1       21 0.32515442E-01 0.45367275E+03</pdfrwt>
<totfact> 0.69363897E+04</totfact>
</mgrwt>
</event>
<event>
 7    0  0.4779893E-002  0.4476503E+03  0.7546771E-02  0.1028425E+00
         21   -1    0    0  502  501  0.00000000000E+00  0.00000000000E+00  0.20460826579E+03  0.20460826579E+03  0.00000000000E+00 0.  1.
         21   -1    0    0  501  502 -0.00000000000E+00 -0.00000000000E+00 -0.24484688062E+03  0.24484688062E+03  0.00000000000E+00 0.  1.
      99926    2    1    2    0    0  0.88817841970E-15  0.00000000000E+00 -0.40238614826E+02  0.44945514642E+03  0.44765029042E+03 0.  0.
      99925    2    3    3    0    0  0.30232065411E+01 -0.72041155549E+02  0.52660867547E+02  0.27776679563E+03  0.26302501385E+03 0.  0.
         25    1    3    3    0    0 -0.30232065411E+01  0.72041155549E+02 -0.92899482373E+02  0.17168835079E+03  0.12509000000E+03 0.  0.
         25    1    4    4    0    0 -0.13104564961E+02 -0.27101749428E+02 -0.11731577800E+02  0.12919509458E+03  0.12509000000E+03 0.  0.
         25    1    4    4    0    0  0.16127771502E+02 -0.44939406121E+02  0.64392445346E+02  0.14857170105E+03  0.12509000000E+03 0.  0.
<mgrwt>
<rscale>  2 0.44765029E+03</rscale>
<asrwt>0</asrwt>
<pdfrwt beam="1">  1       21 0.30089451E-01 0.44765029E+03</pdfrwt>
<pdfrwt beam="2">  1       21 0.36006894E-01 0.44765029E+03</pdfrwt>
<totfact> 0.73150331E+04</totfact>
</mgrwt>
</event>
<event>
 7    0  0.4779893E-002  0.4520366E+03  0.7546771E-02  0.1027116E+00
         21   -1    0    0  502  501  0.00000000000E+00  0.00000000000E+00  0.54218412904E+02  0.54218412904E+02  0.00000000000E+00 0. -1.
         21   -1    0    0  501  502 -0.00000000000E+00 -0.00000000000E+00 -0.94219415593E+03  0.94219415593E+03  0.00000000000E+00 0. -1.
      99926    2    1    2    0    0 -0.88817841970E-15  0.00000000000E+00 -0.88797574303E+03  0.99641256883E+03  0.45203659932E+03 0.  0.
      99925    2    3    3    0    0  0.63974113042E+01  0.56076198524E+02 -0.76941916802E+03  0.81506032460E+03  0.26292966684E+03 0.  0.
         25    1    3    3    0    0 -0.63974113042E+01 -0.56076198524E+02 -0.11855657500E+03  0.18135224423E+03  0.12509000000E+03 0.  0.
         25    1    4    4    0    0 -0.34793592440E+02  0.15039110353E+02 -0.35614005030E+03  0.37936791172E+03  0.12509000000E+03 0.  0.
         25    1    4    4    0    0  0.41191003744E+02  0.41037088171E+02 -0.41327911772E+03  0.43569241288E+03  0.12509000000E+03 0.  0.
<mgrwt>
<rscale>  2 0.45203660E+03</rscale>
<asrwt>0</asrwt>
<pdfrwt beam="1">  1       21 0.79732965E-02 0.45203660E+03</pdfrwt>
<pdfrwt beam="2">  1       21 0.13855796E+00 0.45203660E+03</pdfrwt>
<totfact> 0.40229680E+04</totfact>
</mgrwt>
</event>
<event>
 7    0  0.4779893E-002  0.4867341E+03  0.7546771E-02  0.1017301E+00
         21   -1    0    0  502  501  0.00000000000E+00  0.00000000000E+00  0.60793667390E+02  0.60793667390E+02  0.00000000000E+00 0. -1.
         21   -1    0    0  501  502 -0.00000000000E+00 -0.00000000000E+00 -0.97423821505E+03  0.97423821505E+03  0.00000000000E+00 0. -1.
      99926    2    1    2    0    0  0.71054273576E-14  0.00000000000E+00 -0.91344454766E+03  0.10350318824E+04  0.48673407115E+03 0.  0.
      99925    2    3    3    0    0  0.42898498554E+02  0.91606767397E+02 -0.76829723306E+03  0.81835855218E+03  0.26305512842E+03 0.  0.
         25    1    4    4    0    0  0.63659862123E+01  0.84711512214E+02 -0.42461064076E+03  0.45073081815E+03  0.12509000000E+03 0.  0.
         25    1    4    4    0    0  0.36532512341E+02  0.68952551834E+01 -0.34368659230E+03  0.36762773403E+03  0.12509000000E+03 0.  0.
         25    1    3    3    0    0 -0.42898498554E+02 -0.91606767397E+02 -0.14514731460E+03  0.21667333026E+03  0.12509000000E+03 0.  0.
<mgrwt>
<rscale>  2 0.48673407E+03</rscale>
<asrwt>0</asrwt>
<pdfrwt beam="1">  1       21 0.89402459E-02 0.48673407E+03</pdfrwt>
<pdfrwt beam="2">  1       21 0.14327031E+00 0.48673407E+03</pdfrwt>
<totfact> 0.29748738E+04</totfact>
</mgrwt>
</event>
<event>
 7    0  0.4779893E-002  0.4503244E+03  0.7546771E-02  0.1027625E+00
         21   -1    0    0  502  501  0.00000000000E+00  0.00000000000E+00  0.14151817266E+03  0.14151817266E+03  0.00000000000E+00 0. -1.
         21   -1    0    0  501  502 -0.00000000000E+00 -0.00000000000E+00 -0.35824392494E+03  0.35824392494E+03  0.00000000000E+00 0. -1.
      99926    2    1    2    0    0  0.14210854715E-13  0.00000000000E+00 -0.21672575228E+03  0.49976209761E+03  0.45032444138E+03 0.  0.
      99925    2    3    3    0    0 -0.71048029167E+02 -0.25466760609E+02 -0.50107396111E+02  0.27816434704E+03  0.26299862067E+03 0.  0.
         25    1    4    4    0    0 -0.45928878853E+01 -0.81525432066E+01 -0.51129823060E+02  0.13545968214E+03  0.12509000000E+03 0.  0.
         25    1    3    3    0    0  0.71048029167E+02  0.25466760609E+02 -0.16661835616E+03  0.22159775056E+03  0.12509000000E+03 0.  0.
         25    1    4    4    0    0 -0.66455141281E+02 -0.17314217403E+02  0.10224269485E+01  0.14270466490E+03  0.12509000000E+03 0.  0.
<mgrwt>
<rscale>  2 0.45032444E+03</rscale>
<asrwt>0</asrwt>
<pdfrwt beam="1">  1       21 0.20811496E-01 0.45032444E+03</pdfrwt>
<pdfrwt beam="2">  1       21 0.52682930E-01 0.45032444E+03</pdfrwt>
<totfact> 0.67767748E+04</totfact>
</mgrwt>
</event>
<event>
 7    0  0.4779893E-002  0.4519159E+03  0.7546771E-02  0.1027152E+00
         21   -1    0    0  502  501  0.00000000000E+00  0.00000000000E+00  0.10457602723E+03  0.10457602723E+03  0.00000000000E+00 0. -1.
         21   -1    0    0  501  502 -0.00000000000E+00 -0.00000000000E+00 -0.48822857624E+03  0.48822857624E+03  0.00000000000E+00 0. -1.
      99926    2    1    2    0    0  0.00000000000E+00 -0.14210854715E-13 -0.38365254901E+03  0.59280460348E+03  0.45191594300E+03 0.  0.
      99925    2    3    3    0    0  0.62210569097E+02  0.69203323327E+02 -0.16437506475E+03  0.32375186131E+03  0.26293887297E+03 0.  0.
         25    1    3    3    0    0 -0.62210569097E+02 -0.69203323327E+02 -0.21927748426E+03  0.26905274217E+03  0.12509000000E+03 0.  0.
         25    1    4    4    0    0  0.46539916749E+02  0.13537110811E+02 -0.45210745108E+02  0.14156530929E+03  0.12509000000E+03 0.  0.
         25    1    4    4    0    0  0.15670652348E+02  0.55666212516E+02 -0.11916431964E+03  0.18218655202E+03  0.12509000000E+03 0.  0.
<mgrwt>
<rscale>  2 0.45191594E+03</rscale>
<asrwt>0</asrwt>
<pdfrwt beam="1">  1       21 0.15378828E-01 0.45191594E+03</pdfrwt>
<pdfrwt beam="2">  1       21 0.71798319E-01 0.45191594E+03</pdfrwt>
<totfact> 0.60586569E+04</totfact>
</mgrwt>
</event>
<event>
 7    0  0.4779893E-002  0.4533554E+03  0.7546771E-02  0.1026726E+00
         21   -1    0    0  502  501  0.00000000000E+00  0.00000000000E+00  0.71769407926E+02  0.71769407926E+02  0.00000000000E+00 0.  1.
         21   -1    0    0  501  502 -0.00000000000E+00 -0.00000000000E+00 -0.71594269913E+03  0.71594269913E+03  0.00000000000E+00 0.  1.
      99926    2    1    2    0    0  0.00000000000E+00  0.00000000000E+00 -0.64417329120E+03  0.78771210706E+03  0.45335541742E+03 0.  0.
      99925    2    3    3    0    0  0.78118534973E+02 -0.33052810630E+02 -0.28000966254E+03  0.39343092524E+03  0.26303514598E+03 0.  0.
         25    1    4    4    0    0  0.58050943736E+02 -0.29606191798E+02 -0.98426079389E+02  0.17199313901E+03  0.12509000000E+03 0.  0.
         25    1    3    3    0    0 -0.78118534973E+02  0.33052810630E+02 -0.36416362866E+03  0.39428118182E+03  0.12509000000E+03 0.  0.
         25    1    4    4    0    0  0.20067591237E+02 -0.34466188327E+01 -0.18158358316E+03  0.22143778623E+03  0.12509000000E+03 0.  0.
<mgrwt>
<rscale>  2 0.45335542E+03</rscale>
<asrwt>0</asrwt>
<pdfrwt beam="1">  1       21 0.10554324E-01 0.45335542E+03</pdfrwt>
<pdfrwt beam="2">  1       21 0.10528569E+00 0.45335542E+03</pdfrwt>
<totfact> 0.48994278E+04</totfact>
</mgrwt>
</event>
<event>
 7    0  0.4779893E-002  0.4579072E+03  0.7546771E-02  0.1025390E+00
         21   -1    0    0  502  501  0.00000000000E+00  0.00000000000E+00  0.20540885091E+03  0.20540885091E+03  0.00000000000E+00 0.  1.
         21   -1    0    0  501  502 -0.00000000000E+00 -0.00000000000E+00 -0.25519709302E+03  0.25519709302E+03  0.00000000000E+00 0.  1.
      99926    2    1    2    0    0  0.00000000000E+00  0.00000000000E+00 -0.49788242114E+02  0.46060594393E+03  0.45790715929E+03 0.  0.
      99925    2    3    3    0    0  0.57749518526E+02  0.16703979781E+02  0.68401030716E+02  0.27831430358E+03  0.26299452607E+03 0.  0.
         25    1    3    3    0    0 -0.57749518526E+02 -0.16703979781E+02 -0.11818927283E+03  0.18229164035E+03  0.12509000000E+03 0.  0.
         25    1    4    4    0    0  0.37376441855E+02 -0.20319919898E+02  0.62458234855E+02  0.14614525908E+03  0.12509000000E+03 0.  0.
         25    1    4    4    0    0  0.20373076671E+02  0.37023899679E+02  0.59427958617E+01  0.13216904450E+03  0.12509000000E+03 0.  0.
<mgrwt>
<rscale>  2 0.45790716E+03</rscale>
<asrwt>0</asrwt>
<pdfrwt beam="1">  1       21 0.30207184E-01 0.45790716E+03</pdfrwt>
<pdfrwt beam="2">  1       21 0.37528984E-01 0.45790716E+03</pdfrwt>
<totfact> 0.66579252E+04</totfact>
</mgrwt>
</event>
<event>
 7    0  0.4779893E-002  0.4539637E+03  0.7546771E-02  0.1026547E+00
         21   -1    0    0  502  501  0.00000000000E+00  0.00000000000E+00  0.14772545276E+03  0.14772545276E+03  0.00000000000E+00 0. -1.
         21   -1    0    0  501  502 -0.00000000000E+00 -0.00000000000E+00 -0.34876019035E+03  0.34876019035E+03  0.00000000000E+00 0. -1.
      99926    2    1    2    0    0  0.00000000000E+00 -0.35527136788E-14 -0.20103473759E+03  0.49648564311E+03  0.45396368588E+03 0.  0.
      99925    2    3    3    0    0  0.11114283753E+03  0.16583521483E+02 -0.12343065601E+03  0.31128940909E+03  0.26275126231E+03 0.  0.
         25    1    3    3    0    0 -0.11114283753E+03 -0.16583521483E+02 -0.77604081582E+02  0.18519623403E+03  0.12509000000E+03 0.  0.
         25    1    4    4    0    0  0.76219960830E+02 -0.17599784764E+02 -0.90264608429E+02  0.17295792115E+03  0.12509000000E+03 0.  0.
         25    1    4    4    0    0  0.34922876705E+02  0.34183306248E+02 -0.33166047580E+02  0.13833148794E+03  0.12509000000E+03 0.  0.
<mgrwt>
<rscale>  2 0.45396369E+03</rscale>
<asrwt>0</asrwt>
<pdfrwt beam="1">  1       21 0.21724332E-01 0.45396369E+03</pdfrwt>
<pdfrwt beam="2">  1       21 0.51288263E-01 0.45396369E+03</pdfrwt>
<totfact> 0.66060046E+04</totfact>
</mgrwt>
</event>
<event>
 7    0  0.4779893E-002  0.4609761E+03  0.7546771E-02  0.1024499E+00
         21   -1    0    0  502  501  0.00000000000E+00  0.00000000000E+00  0.11736018562E+04  0.11736018562E+04  0.00000000000E+00 0.  1.
         21   -1    0    0  501  502 -0.00000000000E+00 -0.00000000000E+00 -0.45266407458E+02  0.45266407458E+02  0.00000000000E+00 0.  1.
      99926    2    1    2    0    0  0.00000000000E+00  0.00000000000E+00  0.11283354487E+04  0.12188682636E+04  0.46097609403E+03 0.  0.
      99925    2    3    3    0    0 -0.10509484075E+03 -0.17469091603E+02  0.56985567472E+03  0.63671943319E+03  0.26329840844E+03 0.  0.
         25    1    3    3    0    0  0.10509484075E+03  0.17469091603E+02  0.55847977401E+03  0.58214883045E+03  0.12509000000E+03 0.  0.
         25    1    4    4    0    0 -0.53337265063E+02  0.99039476028E+01  0.36517305115E+03  0.38979714905E+03  0.12509000000E+03 0.  0.
         25    1    4    4    0    0 -0.51757575688E+02 -0.27373039206E+02  0.20468262357E+03  0.24692228414E+03  0.12509000000E+03 0.  0.
<mgrwt>
<rscale>  2 0.46097609E+03</rscale>
<asrwt>0</asrwt>
<pdfrwt beam="1">  1       21 0.17258849E+00 0.46097609E+03</pdfrwt>
<pdfrwt beam="2">  1       21 0.66568254E-02 0.46097609E+03</pdfrwt>
<totfact> 0.30136253E+04</totfact>
</mgrwt>
</event>
<event>
 7    0  0.4779893E-002  0.4574740E+03  0.7546771E-02  0.1025516E+00
         21   -1    0    0  502  501  0.00000000000E+00  0.00000000000E+00  0.65530954072E+03  0.65530954072E+03  0.00000000000E+00 0.  1.
         21   -1    0    0  501  502 -0.00000000000E+00 -0.00000000000E+00 -0.79841057466E+02  0.79841057466E+02  0.00000000000E+00 0.  1.
      99926    2    1    2    0    0  0.00000000000E+00  0.00000000000E+00  0.57546848325E+03  0.73515059819E+03  0.45747396297E+03 0.  0.
      99925    2    3    3    0    0  0.34372344136E+02 -0.10435721481E+03  0.41826160477E+03  0.50616719908E+03  0.26304101786E+03 0.  0.
         25    1    4    4    0    0  0.38598209478E+02 -0.90421661010E+02  0.22987046907E+03  0.27956008157E+03  0.12509000000E+03 0.  0.
         25    1    3    3    0    0 -0.34372344136E+02  0.10435721481E+03  0.15720687848E+03  0.22898339911E+03  0.12509000000E+03 0.  0.
         25    1    4    4    0    0 -0.42258653419E+01 -0.13935553797E+02  0.18839113570E+03  0.22660711751E+03  0.12509000000E+03 0.  0.
<mgrwt>
<rscale>  2 0.45747396E+03</rscale>
<asrwt>0</asrwt>
<pdfrwt beam="1">  1       21 0.96369047E-01 0.45747396E+03</pdfrwt>
<pdfrwt beam="2">  1       21 0.11741332E-01 0.45747396E+03</pdfrwt>
<totfact> 0.50054957E+04</totfact>
</mgrwt>
</event>
<event>
 7    0  0.4779893E-002  0.4518743E+03  0.7546771E-02  0.1027165E+00
         21   -1    0    0  502  501  0.00000000000E+00  0.00000000000E+00  0.52099927624E+03  0.52099927624E+03  0.00000000000E+00 0.  1.
         21   -1    0    0  501  502 -0.00000000000E+00 -0.00000000000E+00 -0.97980158861E+02  0.97980158861E+02  0.00000000000E+00 0.  1.
      99926    2    1    2    0    0  0.14210854715E-13 -0.14210854715E-13  0.42301911738E+03  0.61897943510E+03  0.45187428275E+03 0.  0.
      99925    2    3    3    0    0 -0.74619871209E+02  0.79942219408E+02  0.24732881178E+03  0.37716654213E+03  0.26291476898E+03 0.  0.
         25    1    4    4    0    0 -0.75387885658E+02  0.54374939490E+02  0.15325340280E+03  0.21857282749E+03  0.12509000000E+03 0.  0.
         25    1    4    4    0    0  0.76801444935E+00  0.25567279919E+02  0.94075408976E+02  0.15859371464E+03  0.12509000000E+03 0.  0.
         25    1    3    3    0    0  0.74619871209E+02 -0.79942219408E+02  0.17569030560E+03  0.24181289297E+03  0.12509000000E+03 0.  0.
<mgrwt>
<rscale>  2 0.45187428E+03</rscale>
<asrwt>0</asrwt>
<pdfrwt beam="1">  1       21 0.76617540E-01 0.45187428E+03</pdfrwt>
<pdfrwt beam="2">  1       21 0.14408847E-01 0.45187428E+03</pdfrwt>
<totfact> 0.58967021E+04</totfact>
</mgrwt>
</event>
<event>
 7    0  0.4779893E-002  0.4606177E+03  0.7546771E-02  0.1024602E+00
         21   -1    0    0  502  501  0.00000000000E+00  0.00000000000E+00  0.71711964603E+03  0.71711964603E+03  0.00000000000E+00 0.  1.
         21   -1    0    0  501  502 -0.00000000000E+00 -0.00000000000E+00 -0.73965560101E+02  0.73965560101E+02  0.00000000000E+00 0.  1.
      99926    2    1    2    0    0  0.00000000000E+00  0.00000000000E+00  0.64315408593E+03  0.79108520613E+03  0.46061765610E+03 0.  0.
      99925    2    3    3    0    0 -0.77711585880E+02  0.66051526421E+02  0.50570276886E+03  0.57908929252E+03  0.26307265832E+03 0.  0.
         25    1    4    4    0    0 -0.70032463585E+02  0.61610724629E+02  0.30062034160E+03  0.33870418543E+03  0.12509000000E+03 0.  0.
         25    1    3    3    0    0  0.77711585880E+02 -0.66051526421E+02  0.13745131707E+03  0.21199591361E+03  0.12509000000E+03 0.  0.
         25    1    4    4    0    0 -0.76791222947E+01  0.44408017915E+01  0.20508242726E+03  0.24038510709E+03  0.12509000000E+03 0.  0.
<mgrwt>
<rscale>  2 0.46061766E+03</rscale>
<asrwt>0</asrwt>
<pdfrwt beam="1">  1       21 0.10545877E+00 0.46061766E+03</pdfrwt>
<pdfrwt beam="2">  1       21 0.10877289E-01 0.46061766E+03</pdfrwt>
<totfact> 0.46131283E+04</totfact>
</mgrwt>
</event>
<event>
 7    0  0.4779893E-002  0.4527229E+03  0.7546771E-02  0.1026913E+00
         21   -1    0    0  502  501  0.00000000000E+00  0.00000000000E+00  0.23749780732E+03  0.23749780732E+03  0.00000000000E+00 0.  1.
         21   -1    0    0  501  502 -0.00000000000E+00 -0.00000000000E+00 -0.21574730887E+03  0.21574730887E+03  0.00000000000E+00 0.  1.
      99926    2    1    2    0    0  0.00000000000E+00  0.00000000000E+00  0.21750498456E+02  0.45324511619E+03  0.45272292980E+03 0.  0.
      99925    2    3    3    0    0 -0.44689974820E+02  0.68478741515E+02 -0.61479847419E+02  0.28218568072E+03  0.26298755650E+03 0.  0.
         25    1    4    4    0    0 -0.37524106719E+02  0.41033519986E+02  0.64479438073E+01  0.13704339614E+03  0.12509000000E+03 0.  0.
         25    1    3    3    0    0  0.44689974820E+02 -0.68478741515E+02  0.83230345874E+02  0.17105943547E+03  0.12509000000E+03 0.  0.
         25    1    4    4    0    0 -0.71658681016E+01  0.27445221529E+02 -0.67927791226E+02  0.14514228457E+03  0.12509000000E+03 0.  0.
<mgrwt>
<rscale>  2 0.45272293E+03</rscale>
<asrwt>0</asrwt>
<pdfrwt beam="1">  1       21 0.34926148E-01 0.45272293E+03</pdfrwt>
<pdfrwt beam="2">  1       21 0.31727546E-01 0.45272293E+03</pdfrwt>
<totfact> 0.69936599E+04</totfact>
</mgrwt>
</event>
<event>
 7    0  0.4779893E-002  0.4503938E+03  0.7546771E-02  0.1027605E+00
         21   -1    0    0  502  501  0.00000000000E+00  0.00000000000E+00  0.26296899105E+03  0.26296899105E+03  0.00000000000E+00 0. -1.
         21   -1    0    0  501  502 -0.00000000000E+00 -0.00000000000E+00 -0.19285029838E+03  0.19285029838E+03  0.00000000000E+00 0. -1.
      99926    2    1    2    0    0  0.00000000000E+00  0.00000000000E+00  0.70118692667E+02  0.45581928942E+03  0.45039382051E+03 0.  0.
      99925    2    3    3    0    0 -0.63884803167E+02 -0.46893006680E+02 -0.31145763145E+02  0.27642525312E+03  0.26298410570E+03 0.  0.
         25    1    3    3    0    0  0.63884803167E+02  0.46893006680E+02  0.10126445581E+03  0.17939403631E+03  0.12509000000E+03 0.  0.
         25    1    4    4    0    0 -0.41351885820E+02 -0.55171311000E+02 -0.41199527356E+02  0.14865652079E+03  0.12509000000E+03 0.  0.
         25    1    4    4    0    0 -0.22532917348E+02  0.82783043197E+01  0.10053764210E+02  0.12776873233E+03  0.12509000000E+03 0.  0.
<mgrwt>
<rscale>  2 0.45039382E+03</rscale>
<asrwt>0</asrwt>
<pdfrwt beam="1">  1       21 0.38671910E-01 0.45039382E+03</pdfrwt>
<pdfrwt beam="2">  1       21 0.28360338E-01 0.45039382E+03</pdfrwt>
<totfact> 0.71060889E+04</totfact>
</mgrwt>
</event>
<event>
 7    0  0.4779893E-002  0.4567141E+03  0.7546771E-02  0.1025739E+00
         21   -1    0    0  502  501  0.00000000000E+00  0.00000000000E+00  0.21568472650E+03  0.21568472650E+03  0.00000000000E+00 0.  1.
         21   -1    0    0  501  502 -0.00000000000E+00 -0.00000000000E+00 -0.24177395214E+03  0.24177395214E+03  0.00000000000E+00 0.  1.
      99926    2    1    2    0    0  0.35527136788E-14  0.00000000000E+00 -0.26089225639E+02  0.45745867865E+03  0.45671412829E+03 0.  0.
      99925    2    3    3    0    0  0.31441835542E+02  0.99118725803E+02 -0.65010110992E+02  0.29020003390E+03  0.26301451351E+03 0.  0.
         25    1    3    3    0    0 -0.31441835542E+02 -0.99118725803E+02  0.38920885353E+02  0.16725864475E+03  0.12509000000E+03 0.  0.
         25    1    4    4    0    0  0.35158995360E+02  0.12319678688E+02 -0.30804102181E+02  0.13410566822E+03  0.12509000000E+03 0.  0.
         25    1    4    4    0    0 -0.37171598180E+01  0.86799047115E+02 -0.34206008811E+02  0.15609436568E+03  0.12509000000E+03 0.  0.
<mgrwt>
<rscale>  2 0.45671413E+03</rscale>
<asrwt>0</asrwt>
<pdfrwt beam="1">  1       21 0.31718342E-01 0.45671413E+03</pdfrwt>
<pdfrwt beam="2">  1       21 0.35554993E-01 0.45671413E+03</pdfrwt>
<totfact> 0.67439003E+04</totfact>
</mgrwt>
</event>
<event>
 7    0  0.4779893E-002  0.4568778E+03  0.7546771E-02  0.1025691E+00
         21   -1    0    0  502  501  0.00000000000E+00  0.00000000000E+00  0.20503978741E+03  0.20503978741E+03  0.00000000000E+00 0.  1.
         21   -1    0    0  501  502 -0.00000000000E+00 -0.00000000000E+00 -0.25450828794E+03  0.25450828794E+03  0.00000000000E+00 0.  1.
      99926    2    1    2    0    0  0.14210854715E-13  0.00000000000E+00 -0.49468500536E+02  0.45954807535E+03  0.45687777469E+03 0.  0.
      99925    2    3    3    0    0 -0.92070334880E+02  0.59280098366E+02  0.34718832553E+01  0.28507381087E+03  0.26318044579E+03 0.  0.
         25    1    3    3    0    0  0.92070334880E+02 -0.59280098366E+02 -0.52940383792E+02  0.17447426447E+03  0.12509000000E+03 0.  0.
         25    1    4    4    0    0 -0.86120872440E+02  0.26921936453E+02 -0.12520744765E+02  0.15474453942E+03  0.12509000000E+03 0.  0.
         25    1    4    4    0    0 -0.59494624404E+01  0.32358161913E+02  0.15992628020E+02  0.13032927145E+03  0.12509000000E+03 0.  0.
<mgrwt>
<rscale>  2 0.45687777E+03</rscale>
<asrwt>0</asrwt>
<pdfrwt beam="1">  1       21 0.30152910E-01 0.45687777E+03</pdfrwt>
<pdfrwt beam="2">  1       21 0.37427689E-01 0.45687777E+03</pdfrwt>
<totfact> 0.67201379E+04</totfact>
</mgrwt>
</event>
<event>
 7    0  0.4779893E-002  0.4486356E+03  0.7546771E-02  0.1028130E+00
         21   -1    0    0  502  501  0.00000000000E+00  0.00000000000E+00  0.34550876664E+02  0.34550876664E+02  0.00000000000E+00 0.  1.
         21   -1    0    0  501  502 -0.00000000000E+00 -0.00000000000E+00 -0.14563586062E+04  0.14563586062E+04  0.00000000000E+00 0.  1.
      99926    2    1    2    0    0 -0.35527136788E-14  0.00000000000E+00 -0.14218077295E+04  0.14909094829E+04  0.44863556070E+03 0.  0.
      99925    2    3    3    0    0  0.20735697800E+02  0.46428781346E+02 -0.58563190337E+03  0.64390114686E+03  0.26278957319E+03 0.  0.
         25    1    4    4    0    0  0.25259021763E+02  0.57509166518E+02 -0.34785816523E+03  0.37496417647E+03  0.12509000000E+03 0.  0.
         25    1    3    3    0    0 -0.20735697800E+02 -0.46428781346E+02 -0.83617582617E+03  0.84700833601E+03  0.12509000000E+03 0.  0.
         25    1    4    4    0    0 -0.45233239637E+01 -0.11080385172E+02 -0.23777373813E+03  0.26893697039E+03  0.12509000000E+03 0.  0.
<mgrwt>
<rscale>  2 0.44863556E+03</rscale>
<asrwt>0</asrwt>
<pdfrwt beam="1">  1       21 0.50810114E-02 0.44863556E+03</pdfrwt>
<pdfrwt beam="2">  1       21 0.21417038E+00 0.44863556E+03</pdfrwt>
<totfact> 0.25227089E+04</totfact>
</mgrwt>
</event>
<event>
 7    0  0.4779893E-002  0.4336119E+03  0.7546771E-02  0.1032725E+00
         21   -1    0    0  502  501  0.00000000000E+00  0.00000000000E+00  0.11959405197E+04  0.11959405197E+04  0.00000000000E+00 0. -1.
         21   -1    0    0  501  502 -0.00000000000E+00 -0.00000000000E+00 -0.39303637475E+02  0.39303637475E+02  0.00000000000E+00 0. -1.
      99926    2    1    2    0    0  0.00000000000E+00  0.00000000000E+00  0.11566368822E+04  0.12352441571E+04  0.43361186620E+03 0.  0.
      99925    2    3    3    0    0 -0.63924849900E+02  0.43177059938E+02  0.88419003010E+03  0.92568731219E+03  0.26297213862E+03 0.  0.
         25    1    4    4    0    0 -0.72849206924E+02  0.19249750640E+02  0.49506452720E+03  0.51615303355E+03  0.12509000000E+03 0.  0.
         25    1    3    3    0    0  0.63924849900E+02 -0.43177059938E+02  0.27244685209E+03  0.30955684495E+03  0.12509000000E+03 0.  0.
         25    1    4    4    0    0  0.89243570234E+01  0.23927309298E+02  0.38912550290E+03  0.40953427864E+03  0.12509000000E+03 0.  0.
<mgrwt>
<rscale>  2 0.43361187E+03</rscale>
<asrwt>0</asrwt>
<pdfrwt beam="1">  1       21 0.17587358E+00 0.43361187E+03</pdfrwt>
<pdfrwt beam="2">  1       21 0.57799475E-02 0.43361187E+03</pdfrwt>
<totfact> 0.36811505E+04</totfact>
</mgrwt>
</event>
<event>
 6    0  0.4779893E-002  0.4375408E+03  0.7546771E-02  0.1031504E+00
         21   -1    0    0  502  501  0.00000000000E+00  0.00000000000E+00  0.72621007997E+03  0.72621007997E+03  0.00000000000E+00 0.  1.
         21   -1    0    0  501  502 -0.00000000000E+00 -0.00000000000E+00 -0.65904472603E+02  0.65904472603E+02  0.00000000000E+00 0.  1.
      99926    2    1    2    0    0  0.00000000000E+00  0.71054273576E-14  0.66030560737E+03  0.79211455258E+03  0.43754082013E+03 0.  0.
         25    1    3    3    0    0  0.82563181223E+02  0.40540290319E+02  0.30717188334E+03  0.34418348020E+03  0.12509000000E+03 0.  0.
         25    1    3    3    0    0 -0.60311512221E+02  0.29739658959E+01  0.15019076309E+03  0.20457540516E+03  0.12509000000E+03 0.  0.
         25    1    3    3    0    0 -0.22251669002E+02 -0.43514256215E+02  0.20294296094E+03  0.24335566721E+03  0.12509000000E+03 0.  0.
<mgrwt>
<rscale>  2 0.43754082E+03</rscale>
<asrwt>0</asrwt>
<pdfrwt beam="1">  1       21 0.10679560E+00 0.43754082E+03</pdfrwt>
<pdfrwt beam="2">  1       21 0.96918346E-02 0.43754082E+03</pdfrwt>
<totfact> 0.55352602E+04</totfact>
</mgrwt>
</event>
<event>
 7    0  0.4779893E-002  0.4482615E+03  0.7546771E-02  0.1028242E+00
         21   -1    0    0  502  501  0.00000000000E+00  0.00000000000E+00  0.33157404784E+03  0.33157404784E+03  0.00000000000E+00 0. -1.
         21   -1    0    0  501  502 -0.00000000000E+00 -0.00000000000E+00 -0.15150341767E+03  0.15150341767E+03  0.00000000000E+00 0. -1.
      99926    2    1    2    0    0  0.00000000000E+00 -0.17763568394E-14  0.18007063017E+03  0.48307746551E+03  0.44826153731E+03 0.  0.
      99925    2    3    3    0    0  0.59535727926E+02 -0.14825107763E+02  0.19911994499E+02  0.27079797192E+03  0.26300335996E+03 0.  0.
         25    1    4    4    0    0  0.22128302657E+01 -0.26163404144E+02 -0.14139523957E+02  0.12859570200E+03  0.12509000000E+03 0.  0.
         25    1    3    3    0    0 -0.59535727926E+02  0.14825107763E+02  0.16015863567E+03  0.21227949359E+03  0.12509000000E+03 0.  0.
         25    1    4    4    0    0  0.57322897660E+02  0.11338296381E+02  0.34051518456E+02  0.14220226992E+03  0.12509000000E+03 0.  0.
<mgrwt>
<rscale>  2 0.44826154E+03</rscale>
<asrwt>0</asrwt>
<pdfrwt beam="1">  1       21 0.48760890E-01 0.44826154E+03</pdfrwt>
<pdfrwt beam="2">  1       21 0.22279914E-01 0.44826154E+03</pdfrwt>
<totfact> 0.70155161E+04</totfact>
</mgrwt>
</event>
<event>
 7    0  0.4779893E-002  0.4623548E+03  0.7546771E-02  0.1024100E+00
         21   -1    0    0  502  501  0.00000000000E+00  0.00000000000E+00  0.35685474581E+03  0.35685474581E+03  0.00000000000E+00 0. -1.
         21   -1    0    0  501  502 -0.00000000000E+00 -0.00000000000E+00 -0.14976115681E+03  0.14976115681E+03  0.00000000000E+00 0. -1.
      99926    2    1    2    0    0  0.00000000000E+00  0.71054273576E-14  0.20709358900E+03  0.50661590261E+03  0.46235475360E+03 0.  0.
      99925    2    3    3    0    0  0.59431294306E+02 -0.52194425095E+02  0.31122563823E+02  0.27668189783E+03  0.26330195946E+03 0.  0.
         25    1    4    4    0    0  0.26502896555E+02  0.15482475747E+02  0.10197665906E+02  0.12920375796E+03  0.12509000000E+03 0.  0.
         25    1    4    4    0    0  0.32928397751E+02 -0.67676900842E+02  0.20924897917E+02  0.14747813987E+03  0.12509000000E+03 0.  0.
         25    1    3    3    0    0 -0.59431294306E+02  0.52194425095E+02  0.17597102518E+03  0.22993400478E+03  0.12509000000E+03 0.  0.
<mgrwt>
<rscale>  2 0.46235475E+03</rscale>
<asrwt>0</asrwt>
<pdfrwt beam="1">  1       21 0.52478639E-01 0.46235475E+03</pdfrwt>
<pdfrwt beam="2">  1       21 0.22023700E-01 0.46235475E+03</pdfrwt>
<totfact> 0.61159125E+04</totfact>
</mgrwt>
</event>
<event>
 7    0  0.4779893E-002  0.4607455E+03  0.7546771E-02  0.1024565E+00
         21   -1    0    0  502  501  0.00000000000E+00  0.00000000000E+00  0.73789986537E+02  0.73789986537E+02  0.00000000000E+00 0.  1.
         21   -1    0    0  501  502 -0.00000000000E+00 -0.00000000000E+00 -0.71922488062E+03  0.71922488062E+03  0.00000000000E+00 0.  1.
      99926    2    1    2    0    0  0.00000000000E+00  0.00000000000E+00 -0.64543489409E+03  0.79301486716E+03  0.46074545796E+03 0.  0.
      99925    2    3    3    0    0 -0.80537269921E+02  0.64582503230E+02 -0.50401695200E+03  0.57783193565E+03  0.26305799053E+03 0.  0.
         25    1    4    4    0    0 -0.40392784926E+02  0.43969847337E+01 -0.30253538565E+03  0.32988797829E+03  0.12509000000E+03 0.  0.
         25    1    4    4    0    0 -0.40144484996E+02  0.60185518496E+02 -0.20148156635E+03  0.24794395736E+03  0.12509000000E+03 0.  0.
         25    1    3    3    0    0  0.80537269921E+02 -0.64582503230E+02 -0.14141794208E+03  0.21518293151E+03  0.12509000000E+03 0.  0.
<mgrwt>
<rscale>  2 0.46074546E+03</rscale>
<asrwt>0</asrwt>
<pdfrwt beam="1">  1       21 0.10851468E-01 0.46074546E+03</pdfrwt>
<pdfrwt beam="2">  1       21 0.10576837E+00 0.46074546E+03</pdfrwt>
<totfact> 0.45995210E+04</totfact>
</mgrwt>
</event>
<event>
 7    0  0.4779893E-002  0.4637285E+03  0.7546771E-02  0.1023705E+00
         21   -1    0    0  502  501  0.00000000000E+00  0.00000000000E+00  0.28152459097E+03  0.28152459097E+03  0.00000000000E+00 0.  1.
         21   -1    0    0  501  502 -0.00000000000E+00 -0.00000000000E+00 -0.19096389030E+03  0.19096389030E+03  0.00000000000E+00 0.  1.
      99926    2    1    2    0    0 -0.14210854715E-13  0.00000000000E+00  0.90560700673E+02  0.47248848127E+03  0.46372850293E+03 0.  0.
      99925    2    3    3    0    0 -0.10563911501E+03 -0.21017662400E+02 -0.87659021323E-02  0.28420225998E+03  0.26300106416E+03 0.  0.
         25    1    4    4    0    0 -0.82137342064E+02 -0.14171777280E+02 -0.29949107037E+02  0.15327047773E+03  0.12509000000E+03 0.  0.
         25    1    4    4    0    0 -0.23501772949E+02 -0.68458851197E+01  0.29940341135E+02  0.13093178225E+03  0.12509000000E+03 0.  0.
         25    1    3    3    0    0  0.10563911501E+03  0.21017662400E+02  0.90569466575E+02  0.18828622129E+03  0.12509000000E+03 0.  0.
<mgrwt>
<rscale>  2 0.46372850E+03</rscale>
<asrwt>0</asrwt>
<pdfrwt beam="1">  1       21 0.41400675E-01 0.46372850E+03</pdfrwt>
<pdfrwt beam="2">  1       21 0.28082925E-01 0.46372850E+03</pdfrwt>
<totfact> 0.62787059E+04</totfact>
</mgrwt>
</event>
<event>
 7    0  0.4779893E-002  0.4583381E+03  0.7546771E-02  0.1025264E+00
         21   -1    0    0  502  501  0.00000000000E+00  0.00000000000E+00  0.13956514033E+03  0.13956514033E+03  0.00000000000E+00 0.  1.
         21   -1    0    0  501  502 -0.00000000000E+00 -0.00000000000E+00 -0.37630061725E+03  0.37630061725E+03  0.00000000000E+00 0.  1.
      99926    2    1    2    0    0 -0.35527136788E-14  0.71054273576E-14 -0.23673547692E+03  0.51586575758E+03  0.45833807807E+03 0.  0.
      99925    2    3    3    0    0  0.22651247918E+02  0.52401041126E+02 -0.34391523430E+02  0.27122411812E+03  0.26290834377E+03 0.  0.
         25    1    4    4    0    0  0.38974514750E+02  0.33822608656E+02  0.11267610825E+02  0.13578456764E+03  0.12509000000E+03 0.  0.
         25    1    3    3    0    0 -0.22651247918E+02 -0.52401041126E+02 -0.20234395349E+03  0.24464163946E+03  0.12509000000E+03 0.  0.
         25    1    4    4    0    0 -0.16323266832E+02  0.18578432470E+02 -0.45659134255E+02  0.13543955048E+03  0.12509000000E+03 0.  0.
<mgrwt>
<rscale>  2 0.45833808E+03</rscale>
<asrwt>0</asrwt>
<pdfrwt beam="1">  1       21 0.20524285E-01 0.45833808E+03</pdfrwt>
<pdfrwt beam="2">  1       21 0.55338326E-01 0.45833808E+03</pdfrwt>
<totfact> 0.62497839E+04</totfact>
</mgrwt>
</event>
<event>
 7    0  0.4779893E-002  0.4816137E+03  0.7546771E-02  0.1018693E+00
         21   -1    0    0  502  501  0.00000000000E+00  0.00000000000E+00  0.11940090113E+03  0.11940090113E+03  0.00000000000E+00 0. -1.
         21   -1    0    0  501  502 -0.00000000000E+00 -0.00000000000E+00 -0.48565753217E+03  0.48565753217E+03  0.00000000000E+00 0. -1.
      99926    2    1    2    0    0  0.00000000000E+00  0.00000000000E+00 -0.36625663104E+03  0.60505843329E+03  0.48161373311E+03 0.  0.
      99925    2    3    3    0    0 -0.24897722035E+02 -0.53412597182E+02 -0.38033147672E+03  0.46606774482E+03  0.26285796255E+03 0.  0.
         25    1    4    4    0    0 -0.36062126779E+02 -0.60581726017E+02 -0.20209723664E+03  0.24791414577E+03  0.12509000000E+03 0.  0.
         25    1    3    3    0    0  0.24897722035E+02  0.53412597182E+02  0.14074845683E+02  0.13899068847E+03  0.12509000000E+03 0.  0.
         25    1    4    4    0    0  0.11164404745E+02  0.71691288347E+01 -0.17823424008E+03  0.21815359905E+03  0.12509000000E+03 0.  0.
<mgrwt>
<rscale>  2 0.48161373E+03</rscale>
<asrwt>0</asrwt>
<pdfrwt beam="1">  1       21 0.17558956E-01 0.48161373E+03</pdfrwt>
<pdfrwt beam="2">  1       21 0.71420227E-01 0.48161373E+03</pdfrwt>
<totfact> 0.47551655E+04</totfact>
</mgrwt>
</event>
<event>
 7    0  0.4779893E-002  0.4572489E+03  0.7546771E-02  0.1025582E+00
         21   -1    0    0  502  501  0.00000000000E+00  0.00000000000E+00  0.60669074229E+02  0.60669074229E+02  0.00000000000E+00 0. -1.
         21   -1    0    0  501  502 -0.00000000000E+00 -0.00000000000E+00 -0.86154496096E+03  0.86154496096E+03  0.00000000000E+00 0. -1.
      99926    2    1    2    0    0  0.14210854715E-13 -0.35527136788E-14 -0.80087588673E+03  0.92221403518E+03  0.45724888272E+03 0.  0.
      99925    2    3    3    0    0  0.82178601343E+02 -0.19048258149E+02 -0.66123288355E+03  0.71663233587E+03  0.26309089659E+03 0.  0.
         25    1    4    4    0    0  0.56443390569E+02 -0.39202043625E+02 -0.40912092860E+03  0.43330139497E+03  0.12509000000E+03 0.  0.
         25    1    4    4    0    0  0.25735210774E+02  0.20153785476E+02 -0.25211195496E+03  0.28333094091E+03  0.12509000000E+03 0.  0.
         25    1    3    3    0    0 -0.82178601343E+02  0.19048258149E+02 -0.13964300317E+03  0.20558169931E+03  0.12509000000E+03 0.  0.
<mgrwt>
<rscale>  2 0.45724888E+03</rscale>
<asrwt>0</asrwt>
<pdfrwt beam="1">  1       21 0.89219222E-02 0.45724888E+03</pdfrwt>
<pdfrwt beam="2">  1       21 0.12669780E+00 0.45724888E+03</pdfrwt>
<totfact> 0.41551105E+04</totfact>
</mgrwt>
</event>
<event>
 7    0  0.4779893E-002  0.4507702E+03  0.7546771E-02  0.1027493E+00
         21   -1    0    0  502  501  0.00000000000E+00  0.00000000000E+00  0.80082523944E+03  0.80082523944E+03  0.00000000000E+00 0.  1.
         21   -1    0    0  501  502 -0.00000000000E+00 -0.00000000000E+00 -0.63432607584E+02  0.63432607584E+02  0.00000000000E+00 0.  1.
      99926    2    1    2    0    0  0.00000000000E+00  0.71054273576E-14  0.73739263186E+03  0.86425784703E+03  0.45077015499E+03 0.  0.
      99925    2    3    3    0    0 -0.95115701320E+02  0.41398413448E+02  0.53040013113E+03  0.60109586510E+03  0.26311806221E+03 0.  0.
         25    1    3    3    0    0  0.95115701320E+02 -0.41398413448E+02  0.20699250073E+03  0.26316198192E+03  0.12509000000E+03 0.  0.
         25    1    4    4    0    0 -0.71175875005E+02  0.44564115822E+02  0.34139950162E+03  0.37316630798E+03  0.12509000000E+03 0.  0.
         25    1    4    4    0    0 -0.23939826315E+02 -0.31657023748E+01  0.18900062951E+03  0.22792955713E+03  0.12509000000E+03 0.  0.
<mgrwt>
<rscale>  2 0.45077015E+03</rscale>
<asrwt>0</asrwt>
<pdfrwt beam="1">  1       21 0.11776841E+00 0.45077015E+03</pdfrwt>
<pdfrwt beam="2">  1       21 0.93283251E-02 0.45077015E+03</pdfrwt>
<totfact> 0.46325899E+04</totfact>
</mgrwt>
</event>
<event>
 7    0  0.4779893E-002  0.4504303E+03  0.7546771E-02  0.1027594E+00
         21   -1    0    0  502  501  0.00000000000E+00  0.00000000000E+00  0.18130262246E+03  0.18130262246E+03  0.00000000000E+00 0. -1.
         21   -1    0    0  501  502 -0.00000000000E+00 -0.00000000000E+00 -0.27976350645E+03  0.27976350645E+03  0.00000000000E+00 0. -1.
      99926    2    1    2    0    0 -0.17763568394E-14 -0.35527136788E-14 -0.98460883987E+02  0.46106612891E+03  0.45043027158E+03 0.  0.
      99925    2    3    3    0    0 -0.14134133973E+02  0.31529036870E+02 -0.16783871182E+03  0.31391095570E+03  0.26301406999E+03 0.  0.
         25    1    4    4    0    0 -0.14571332418E+02 -0.18229544406E+02 -0.56571091576E+02  0.13925672881E+03  0.12509000000E+03 0.  0.
         25    1    4    4    0    0  0.43719844488E+00  0.49758581275E+02 -0.11126762024E+03  0.17465422688E+03  0.12509000000E+03 0.  0.
         25    1    3    3    0    0  0.14134133973E+02 -0.31529036870E+02  0.69377827833E+02  0.14715517321E+03  0.12509000000E+03 0.  0.
<mgrwt>
<rscale>  2 0.45043027E+03</rscale>
<asrwt>0</asrwt>
<pdfrwt beam="1">  1       21 0.26662150E-01 0.45043027E+03</pdfrwt>
<pdfrwt beam="2">  1       21 0.41141692E-01 0.45043027E+03</pdfrwt>
<totfact> 0.70632169E+04</totfact>
</mgrwt>
</event>
<event>
 7    0  0.4779893E-002  0.4531149E+03  0.7546771E-02  0.1026797E+00
         21   -1    0    0  502  501  0.00000000000E+00  0.00000000000E+00  0.34435257672E+02  0.34435257672E+02  0.00000000000E+00 0.  1.
         21   -1    0    0  501  502 -0.00000000000E+00 -0.00000000000E+00 -0.14905735723E+04  0.14905735723E+04  0.00000000000E+00 0.  1.
      99926    2    1    2    0    0 -0.14210854715E-13  0.00000000000E+00 -0.14561383147E+04  0.15250088300E+04  0.45311493042E+03 0.  0.
      99925    2    3    3    0    0  0.82024182309E+02 -0.12259254151E+02 -0.11679275416E+04  0.12000608132E+04  0.26308355561E+03 0.  0.
         25    1    4    4    0    0  0.28035559992E+02 -0.37978471411E+02 -0.66883012400E+03  0.68206275355E+03  0.12509000000E+03 0.  0.
         25    1    3    3    0    0 -0.82024182309E+02  0.12259254151E+02 -0.28821077305E+03  0.32494801676E+03  0.12509000000E+03 0.  0.
         25    1    4    4    0    0  0.53988622317E+02  0.25719217260E+02 -0.49909741761E+03  0.51799805969E+03  0.12509000000E+03 0.  0.
<mgrwt>
<rscale>  2 0.45311493E+03</rscale>
<asrwt>0</asrwt>
<pdfrwt beam="1">  1       21 0.50640094E-02 0.45311493E+03</pdfrwt>
<pdfrwt beam="2">  1       21 0.21920196E+00 0.45311493E+03</pdfrwt>
<totfact> 0.23515209E+04</totfact>
</mgrwt>
</event>
<event>
 6    0  0.4779893E-002  0.4192056E+03  0.7546771E-02  0.1037325E+00
         21   -1    0    0  502  501  0.00000000000E+00  0.00000000000E+00  0.37523393398E+03  0.37523393398E+03  0.00000000000E+00 0. -1.
         21   -1    0    0  501  502 -0.00000000000E+00 -0.00000000000E+00 -0.11708252740E+03  0.11708252740E+03  0.00000000000E+00 0. -1.
      99926    2    1    2    0    0  0.00000000000E+00  0.71054273576E-14  0.25815140658E+03  0.49231646138E+03  0.41920561713E+03 0.  0.
         25    1    3    3    0    0 -0.61945641141E+01 -0.55485099865E+02  0.14907008759E+03  0.20245090280E+03  0.12509000000E+03 0.  0.
         25    1    3    3    0    0 -0.19139288743E+02  0.23042954790E+02  0.89568105593E+02  0.15673941361E+03  0.12509000000E+03 0.  0.
         25    1    3    3    0    0  0.25333852857E+02  0.32442145075E+02  0.19513213395E+02  0.13312614497E+03  0.12509000000E+03 0.  0.
<mgrwt>
<rscale>  2 0.41920562E+03</rscale>
<asrwt>0</asrwt>
<pdfrwt beam="1">  1       21 0.55181460E-01 0.41920562E+03</pdfrwt>
<pdfrwt beam="2">  1       21 0.17218019E-01 0.41920562E+03</pdfrwt>
<totfact> 0.88360876E+04</totfact>
</mgrwt>
</event>
<event>
 7    0  0.4779893E-002  0.4517537E+03  0.7546771E-02  0.1027200E+00
         21   -1    0    0  502  501  0.00000000000E+00  0.00000000000E+00  0.24526852602E+03  0.24526852602E+03  0.00000000000E+00 0.  1.
         21   -1    0    0  501  502 -0.00000000000E+00 -0.00000000000E+00 -0.20801836400E+03  0.20801836400E+03  0.00000000000E+00 0.  1.
      99926    2    1    2    0    0  0.00000000000E+00  0.00000000000E+00  0.37250162014E+02  0.45328689002E+03  0.45175372726E+03 0.  0.
      99925    2    3    3    0    0 -0.54879434084E+02  0.94831644839E+02  0.33888363248E+02  0.28696310056E+03  0.26304867757E+03 0.  0.
         25    1    4    4    0    0 -0.97417883804E+01  0.78942849691E+02 -0.22065332791E+01  0.14825401461E+03  0.12509000000E+03 0.  0.
         25    1    4    4    0    0 -0.45137645704E+02  0.15888795148E+02  0.36094896527E+02  0.13870908595E+03  0.12509000000E+03 0.  0.
         25    1    3    3    0    0  0.54879434084E+02 -0.94831644839E+02  0.33617987659E+01  0.16632378946E+03  0.12509000000E+03 0.  0.
<mgrwt>
<rscale>  2 0.45175373E+03</rscale>
<asrwt>0</asrwt>
<pdfrwt beam="1">  1       21 0.36068901E-01 0.45175373E+03</pdfrwt>
<pdfrwt beam="2">  1       21 0.30590936E-01 0.45175373E+03</pdfrwt>
<totfact> 0.70479377E+04</totfact>
</mgrwt>
</event>
<event>
 7    0  0.4779893E-002  0.4543767E+03  0.7546771E-02  0.1026425E+00
         21   -1    0    0  502  501  0.00000000000E+00  0.00000000000E+00  0.48354306287E+03  0.48354306287E+03  0.00000000000E+00 0.  1.
         21   -1    0    0  501  502 -0.00000000000E+00 -0.00000000000E+00 -0.10674238797E+03  0.10674238797E+03  0.00000000000E+00 0.  1.
      99926    2    1    2    0    0  0.00000000000E+00  0.00000000000E+00  0.37680067489E+03  0.59028545084E+03  0.45437667730E+03 0.  0.
      99925    2    3    3    0    0  0.53110471081E+02 -0.63011063669E+02  0.33686991457E+03  0.43525935626E+03  0.26301758797E+03 0.  0.
         25    1    3    3    0    0 -0.53110471081E+02  0.63011063669E+02  0.39930760321E+02  0.15502609459E+03  0.12509000000E+03 0.  0.
         25    1    4    4    0    0  0.48256494643E+02 -0.44063351532E+02  0.12544322907E+03  0.18882208569E+03  0.12509000000E+03 0.  0.
         25    1    4    4    0    0  0.48539764385E+01 -0.18947712137E+02  0.21142668550E+03  0.24643727057E+03  0.12509000000E+03 0.  0.
<mgrwt>
<rscale>  2 0.45437668E+03</rscale>
<asrwt>0</asrwt>
<pdfrwt beam="1">  1       21 0.71109273E-01 0.45437668E+03</pdfrwt>
<pdfrwt beam="2">  1       21 0.15697410E-01 0.45437668E+03</pdfrwt>
<totfact> 0.59573180E+04</totfact>
</mgrwt>
</event>
<event>
 7    0  0.4779893E-002  0.4616248E+03  0.7546771E-02  0.1024311E+00
         21   -1    0    0  502  501  0.00000000000E+00  0.00000000000E+00  0.13660981011E+04  0.13660981011E+04  0.00000000000E+00 0. -1.
         21   -1    0    0  501  502 -0.00000000000E+00 -0.00000000000E+00 -0.38997473579E+02  0.38997473579E+02  0.00000000000E+00 0. -1.
      99926    2    1    2    0    0  0.00000000000E+00  0.71054273576E-14  0.13271006275E+04  0.14050955747E+04  0.46162484597E+03 0.  0.
      99925    2    3    3    0    0 -0.79999695384E+02  0.54729395404E+02  0.61727458319E+03  0.67784336307E+03  0.26277072862E+03 0.  0.
         25    1    3    3    0    0  0.79999695384E+02 -0.54729395404E+02  0.70982604434E+03  0.72725221162E+03  0.12509000000E+03 0.  0.
         25    1    4    4    0    0 -0.15257984184E+02  0.13405165459E+02  0.21430233815E+03  0.24896888316E+03  0.12509000000E+03 0.  0.
         25    1    4    4    0    0 -0.64741711200E+02  0.41324229944E+02  0.40297224504E+03  0.42887447991E+03  0.12509000000E+03 0.  0.
<mgrwt>
<rscale>  2 0.46162485E+03</rscale>
<asrwt>0</asrwt>
<pdfrwt beam="1">  1       21 0.20089675E+00 0.46162485E+03</pdfrwt>
<pdfrwt beam="2">  1       21 0.57349235E-02 0.46162485E+03</pdfrwt>
<totfact> 0.24890275E+04</totfact>
</mgrwt>
</event>
<event>
 7    0  0.4779893E-002  0.4584161E+03  0.7546771E-02  0.1025242E+00
         21   -1    0    0  502  501  0.00000000000E+00  0.00000000000E+00  0.26807783639E+04  0.26807783639E+04  0.00000000000E+00 0.  1.
         21   -1    0    0  501  502 -0.00000000000E+00 -0.00000000000E+00 -0.19597418880E+02  0.19597418880E+02  0.00000000000E+00 0.  1.
      99926    2    1    2    0    0 -0.71054273576E-14  0.00000000000E+00  0.26611809450E+04  0.27003757828E+04  0.45841612765E+03 0.  0.
      99925    2    3    3    0    0  0.42946329597E+02  0.74677410192E+02  0.21303346471E+04  0.21482286983E+04  0.26294434508E+03 0.  0.
         25    1    3    3    0    0 -0.42946329597E+02 -0.74677410192E+02  0.53084629789E+03  0.55214708448E+03  0.12509000000E+03 0.  0.
         25    1    4    4    0    0  0.40918832486E+02  0.67416598011E+01  0.87946093810E+03  0.88927996187E+03  0.12509000000E+03 0.  0.
         25    1    4    4    0    0  0.20274971105E+01  0.67935750391E+02  0.12508737090E+04  0.12589487364E+04  0.12509000000E+03 0.  0.
<mgrwt>
<rscale>  2 0.45841613E+03</rscale>
<asrwt>0</asrwt>
<pdfrwt beam="1">  1       21 0.39423186E+00 0.45841613E+03</pdfrwt>
<pdfrwt beam="2">  1       21 0.28819752E-02 0.45841613E+03</pdfrwt>
<totfact> 0.51532004E+03</totfact>
</mgrwt>
</event>
<event>
 7    0  0.4779893E-002  0.4518937E+03  0.7546771E-02  0.1027159E+00
         21   -1    0    0  502  501  0.00000000000E+00  0.00000000000E+00  0.25072249091E+03  0.25072249091E+03  0.00000000000E+00 0. -1.
         21   -1    0    0  501  502 -0.00000000000E+00 -0.00000000000E+00 -0.20361949408E+03  0.20361949408E+03  0.00000000000E+00 0. -1.
      99926    2    1    2    0    0  0.00000000000E+00  0.00000000000E+00  0.47102996828E+02  0.45434198498E+03  0.45189373420E+03 0.  0.
      99925    2    3    3    0    0 -0.46804973415E+02  0.24372360451E+02  0.12713311800E+03  0.29674425059E+03  0.26288705384E+03 0.  0.
         25    1    3    3    0    0  0.46804973415E+02 -0.24372360451E+02 -0.80030121172E+02  0.15759773439E+03  0.12509000000E+03 0.  0.
         25    1    4    4    0    0  0.79190001269E+01  0.98102350562E+01  0.89635964504E+02  0.15440552292E+03  0.12509000000E+03 0.  0.
         25    1    4    4    0    0 -0.54723973542E+02  0.14562125395E+02  0.37497153497E+02  0.14233872768E+03  0.12509000000E+03 0.  0.
<mgrwt>
<rscale>  2 0.45189373E+03</rscale>
<asrwt>0</asrwt>
<pdfrwt beam="1">  1       21 0.36870955E-01 0.45189373E+03</pdfrwt>
<pdfrwt beam="2">  1       21 0.29944043E-01 0.45189373E+03</pdfrwt>
<totfact> 0.70320693E+04</totfact>
</mgrwt>
</event>
<event>
 7    0  0.4779893E-002  0.4553212E+03  0.7546771E-02  0.1026147E+00
         21   -1    0    0  502  501  0.00000000000E+00  0.00000000000E+00  0.14096412963E+03  0.14096412963E+03  0.00000000000E+00 0.  1.
         21   -1    0    0  501  502 -0.00000000000E+00 -0.00000000000E+00 -0.36767762747E+03  0.36767762747E+03  0.00000000000E+00 0.  1.
      99926    2    1    2    0    0  0.00000000000E+00  0.00000000000E+00 -0.22671349784E+03  0.50864175709E+03  0.45532123491E+03 0.  0.
      99925    2    3    3    0    0  0.58396209474E+02 -0.80385849274E+02 -0.20376005899E+03  0.34725287737E+03  0.26304827913E+03 0.  0.
         25    1    4    4    0    0  0.51539458361E+02 -0.60505094452E+02 -0.14542307919E+03  0.20763564791E+03  0.12509000000E+03 0.  0.
         25    1    3    3    0    0 -0.58396209474E+02  0.80385849274E+02 -0.22953438844E+02  0.16138887973E+03  0.12509000000E+03 0.  0.
         25    1    4    4    0    0  0.68567511122E+01 -0.19880754822E+02 -0.58336979804E+02  0.13961722946E+03  0.12509000000E+03 0.  0.
<mgrwt>
<rscale>  2 0.45532123E+03</rscale>
<asrwt>0</asrwt>
<pdfrwt beam="1">  1       21 0.20730020E-01 0.45532123E+03</pdfrwt>
<pdfrwt beam="2">  1       21 0.54070237E-01 0.45532123E+03</pdfrwt>
<totfact> 0.64503108E+04</totfact>
</mgrwt>
</event>
<event>
 7    0  0.4779893E-002  0.4536908E+03  0.7546771E-02  0.1026627E+00
         21   -1    0    0  502  501  0.00000000000E+00  0.00000000000E+00  0.34943526335E+03  0.34943526335E+03  0.00000000000E+00 0.  1.
         21   -1    0    0  501  502 -0.00000000000E+00 -0.00000000000E+00 -0.14726283627E+03  0.14726283627E+03  0.00000000000E+00 0.  1.
      99926    2    1    2    0    0  0.00000000000E+00  0.00000000000E+00  0.20217242708E+03  0.49669809961E+03  0.45369076681E+03 0.  0.
      99925    2    3    3    0    0 -0.10050503458E+03  0.49006932028E+02  0.13302391371E+03  0.31522643140E+03  0.26300076059E+03 0.  0.
         25    1    3    3    0    0  0.10050503458E+03 -0.49006932028E+02  0.69148513374E+02  0.18147166821E+03  0.12509000000E+03 0.  0.
         25    1    4    4    0    0 -0.26924802103E+02  0.26612657642E+01  0.30414396031E+02  0.13154683915E+03  0.12509000000E+03 0.  0.
         25    1    4    4    0    0 -0.73580232474E+02  0.46345666264E+02  0.10260951768E+03  0.18367959225E+03  0.12509000000E+03 0.  0.
<mgrwt>
<rscale>  2 0.45369077E+03</rscale>
<asrwt>0</asrwt>
<pdfrwt beam="1">  1       21 0.51387539E-01 0.45369077E+03</pdfrwt>
<pdfrwt beam="2">  1       21 0.21656299E-01 0.45369077E+03</pdfrwt>
<totfact> 0.66188490E+04</totfact>
</mgrwt>
</event>
<event>
 7    0  0.4779893E-002  0.4057064E+03  0.7546771E-02  0.1041821E+00
         21   -1    0    0  502  501  0.00000000000E+00  0.00000000000E+00  0.69269477798E+02  0.69269477798E+02  0.00000000000E+00 0. -1.
         21   -1    0    0  501  502 -0.00000000000E+00 -0.00000000000E+00 -0.59404839240E+03  0.59404839240E+03  0.00000000000E+00 0. -1.
      99926    2    1    2    0    0  0.00000000000E+00  0.71054273576E-14 -0.52477891461E+03  0.66331787020E+03  0.40570640581E+03 0.  0.
      99925    2    3    3    0    0 -0.13193038523E+02  0.50071097946E+02 -0.31406336487E+03  0.41285884738E+03  0.26293622723E+03 0.  0.
         25    1    3    3    0    0  0.13193038523E+02 -0.50071097946E+02 -0.21071554974E+03  0.25045902283E+03  0.12509000000E+03 0.  0.
         25    1    4    4    0    0 -0.40516329072E+02  0.31849042273E+01 -0.16000418521E+03  0.20712451309E+03  0.12509000000E+03 0.  0.
         25    1    4    4    0    0  0.27323290549E+02  0.46886193719E+02 -0.15405917966E+03  0.20573433429E+03  0.12509000000E+03 0.  0.
<mgrwt>
<rscale>  2 0.40570641E+03</rscale>
<asrwt>0</asrwt>
<pdfrwt beam="1">  1       21 0.10186688E-01 0.40570641E+03</pdfrwt>
<pdfrwt beam="2">  1       21 0.87360061E-01 0.40570641E+03</pdfrwt>
<totfact> 0.82662749E+04</totfact>
</mgrwt>
</event>
<event>
 7    0  0.4779893E-002  0.4596744E+03  0.7546771E-02  0.1024876E+00
         21   -1    0    0  502  501  0.00000000000E+00  0.00000000000E+00  0.51111874841E+03  0.51111874841E+03  0.00000000000E+00 0.  1.
         21   -1    0    0  501  502 -0.00000000000E+00 -0.00000000000E+00 -0.10335198141E+03  0.10335198141E+03  0.00000000000E+00 0.  1.
      99926    2    1    2    0    0  0.35527136788E-14 -0.71054273576E-14  0.40776676700E+03  0.61447072982E+03  0.45967438642E+03 0.  0.
      99925    2    3    3    0    0 -0.28052070816E+02  0.56757624425E+02  0.38776955676E+03  0.47285242901E+03  0.26308904170E+03 0.  0.
         25    1    4    4    0    0  0.19287499867E+01  0.28209328438E+02  0.25695652041E+03  0.28718225531E+03  0.12509000000E+03 0.  0.
         25    1    3    3    0    0  0.28052070816E+02 -0.56757624425E+02  0.19997210240E+02  0.14161830081E+03  0.12509000000E+03 0.  0.
         25    1    4    4    0    0 -0.29980820803E+02  0.28548295987E+02  0.13081303636E+03  0.18567017370E+03  0.12509000000E+03 0.  0.
<mgrwt>
<rscale>  2 0.45967439E+03</rscale>
<asrwt>0</asrwt>
<pdfrwt beam="1">  1       21 0.75164521E-01 0.45967439E+03</pdfrwt>
<pdfrwt beam="2">  1       21 0.15198821E-01 0.45967439E+03</pdfrwt>
<totfact> 0.55710848E+04</totfact>
</mgrwt>
</event>
<event>
 7    0  0.4779893E-002  0.4560810E+03  0.7546771E-02  0.1025924E+00
         21   -1    0    0  502  501  0.00000000000E+00  0.00000000000E+00  0.91513653556E+02  0.91513653556E+02  0.00000000000E+00 0.  1.
         21   -1    0    0  501  502 -0.00000000000E+00 -0.00000000000E+00 -0.56824818012E+03  0.56824818012E+03  0.00000000000E+00 0.  1.
      99926    2    1    2    0    0  0.00000000000E+00  0.00000000000E+00 -0.47673452656E+03  0.65976183367E+03  0.45608098881E+03 0.  0.
      99925    2    3    3    0    0  0.60932531673E+02 -0.87997581186E+02 -0.35674821071E+03  0.45604494237E+03  0.26315652359E+03 0.  0.
         25    1    4    4    0    0  0.10218001092E+02 -0.21746090332E+02 -0.11647183805E+03  0.17259923855E+03  0.12509000000E+03 0.  0.
         25    1    4    4    0    0  0.50714530581E+02 -0.66251490854E+02 -0.24027637266E+03  0.28344570382E+03  0.12509000000E+03 0.  0.
         25    1    3    3    0    0 -0.60932531673E+02  0.87997581186E+02 -0.11998631585E+03  0.20371689130E+03  0.12509000000E+03 0.  0.
<mgrwt>
<rscale>  2 0.45608099E+03</rscale>
<asrwt>0</asrwt>
<pdfrwt beam="1">  1       21 0.13457890E-01 0.45608099E+03</pdfrwt>
<pdfrwt beam="2">  1       21 0.83565907E-01 0.45608099E+03</pdfrwt>
<totfact> 0.54674636E+04</totfact>
</mgrwt>
</event>
<event>
 7    0  0.4779893E-002  0.4572348E+03  0.7546771E-02  0.1025586E+00
         21   -1    0    0  502  501  0.00000000000E+00  0.00000000000E+00  0.26562024164E+02  0.26562024164E+02  0.00000000000E+00 0.  1.
         21   -1    0    0  501  502 -0.00000000000E+00 -0.00000000000E+00 -0.19676935439E+04  0.19676935439E+04  0.00000000000E+00 0.  1.
      99926    2    1    2    0    0  0.00000000000E+00  0.00000000000E+00 -0.19411315197E+04  0.19942555680E+04  0.45723483445E+03 0.  0.
      99925    2    3    3    0    0  0.39130650564E+02  0.80592203448E+02 -0.15340555008E+04  0.15590720385E+04  0.26334963597E+03 0.  0.
         25    1    4    4    0    0  0.15045420498E+02  0.78166463895E+02 -0.92782793616E+03  0.93960020646E+03  0.12509000000E+03 0.  0.
         25    1    4    4    0    0  0.24085230067E+02  0.24257395526E+01 -0.60622756464E+03  0.61947183209E+03  0.12509000000E+03 0.  0.
         25    1    3    3    0    0 -0.39130650564E+02 -0.80592203448E+02 -0.40707601889E+03  0.43518352948E+03  0.12509000000E+03 0.  0.
<mgrwt>
<rscale>  2 0.45723483E+03</rscale>
<asrwt>0</asrwt>
<pdfrwt beam="1">  1       21 0.39061790E-02 0.45723483E+03</pdfrwt>
<pdfrwt beam="2">  1       21 0.28936677E+00 0.45723483E+03</pdfrwt>
<totfact> 0.13566824E+04</totfact>
</mgrwt>
</event>
<event>
 7    0  0.4779893E-002  0.4473995E+03  0.7546771E-02  0.1028500E+00
         21   -1    0    0  502  501  0.00000000000E+00  0.00000000000E+00  0.17184312218E+03  0.17184312218E+03  0.00000000000E+00 0. -1.
         21   -1    0    0  501  502 -0.00000000000E+00 -0.00000000000E+00 -0.29120496074E+03  0.29120496074E+03  0.00000000000E+00 0. -1.
      99926    2    1    2    0    0  0.00000000000E+00  0.00000000000E+00 -0.11936183856E+03  0.46304808291E+03  0.44739946198E+03 0.  0.
      99925    2    3    3    0    0  0.44584340891E+02 -0.25653097121E+02 -0.17147010125E+03  0.31810456293E+03  0.26294994294E+03 0.  0.
         25    1    4    4    0    0  0.51067351394E+02 -0.50060918486E+01 -0.12116448970E+03  0.18155240840E+03  0.12509000000E+03 0.  0.
         25    1    4    4    0    0 -0.64830105034E+01 -0.20647005273E+02 -0.50305611552E+02  0.13655215453E+03  0.12509000000E+03 0.  0.
         25    1    3    3    0    0 -0.44584340891E+02  0.25653097121E+02  0.52108262688E+02  0.14494351998E+03  0.12509000000E+03 0.  0.
<mgrwt>
<rscale>  2 0.44739946E+03</rscale>
<asrwt>0</asrwt>
<pdfrwt beam="1">  1       21 0.25271048E-01 0.44739946E+03</pdfrwt>
<pdfrwt beam="2">  1       21 0.42824259E-01 0.44739946E+03</pdfrwt>
<totfact> 0.72212987E+04</totfact>
</mgrwt>
</event>
<event>
 7    0  0.4779893E-002  0.4764049E+03  0.7546771E-02  0.1020128E+00
         21   -1    0    0  502  501  0.00000000000E+00  0.00000000000E+00  0.98369965118E+03  0.98369965118E+03  0.00000000000E+00 0. -1.
         21   -1    0    0  501  502 -0.00000000000E+00 -0.00000000000E+00 -0.57680630960E+02  0.57680630960E+02  0.00000000000E+00 0. -1.
      99926    2    1    2    0    0  0.00000000000E+00 -0.23314683517E-14  0.92601902022E+03  0.10413802821E+04  0.47640493933E+03 0.  0.
      99925    2    3    3    0    0  0.81389641866E+02  0.25182254445E+00  0.80103520544E+03  0.84671955350E+03  0.26201577187E+03 0.  0.
         25    1    3    3    0    0 -0.81389641866E+02 -0.25182254445E+00  0.12498381478E+03  0.19466072864E+03  0.12509000000E+03 0.  0.
         25    1    4    4    0    0  0.55056035316E+02  0.23309888569E+02  0.49976662753E+03  0.51864121319E+03  0.12509000000E+03 0.  0.
         25    1    4    4    0    0  0.26333606550E+02 -0.23058066024E+02  0.30126857792E+03  0.32807834031E+03  0.12509000000E+03 0.  0.
<mgrwt>
<rscale>  2 0.47640494E+03</rscale>
<asrwt>0</asrwt>
<pdfrwt beam="1">  1       21 0.14466170E+00 0.47640494E+03</pdfrwt>
<pdfrwt beam="2">  1       21 0.84824463E-02 0.47640494E+03</pdfrwt>
<totfact> 0.31918874E+04</totfact>
</mgrwt>
</event>
<event>
 7    0  0.4779893E-002  0.4561236E+03  0.7546771E-02  0.1025912E+00
         21   -1    0    0  502  501  0.00000000000E+00  0.00000000000E+00  0.13727628750E+03  0.13727628750E+03  0.00000000000E+00 0.  1.
         21   -1    0    0  501  502 -0.00000000000E+00 -0.00000000000E+00 -0.37888688875E+03  0.37888688875E+03  0.00000000000E+00 0.  1.
      99926    2    1    2    0    0  0.00000000000E+00  0.00000000000E+00 -0.24161060125E+03  0.51616317625E+03  0.45612360373E+03 0.  0.
      99925    2    3    3    0    0  0.98501525540E+02 -0.36726454108E+02 -0.20229207277E+03  0.34810117059E+03  0.26306075209E+03 0.  0.
         25    1    4    4    0    0  0.37146943639E+02  0.11478567467E+02 -0.63313100076E+02  0.14549127010E+03  0.12509000000E+03 0.  0.
         25    1    3    3    0    0 -0.98501525540E+02  0.36726454108E+02 -0.39318528480E+02  0.16806200566E+03  0.12509000000E+03 0.  0.
         25    1    4    4    0    0  0.61354581901E+02 -0.48205021575E+02 -0.13897897270E+03  0.20260990049E+03  0.12509000000E+03 0.  0.
<mgrwt>
<rscale>  2 0.45612360E+03</rscale>
<asrwt>0</asrwt>
<pdfrwt beam="1">  1       21 0.20187689E-01 0.45612360E+03</pdfrwt>
<pdfrwt beam="2">  1       21 0.55718660E-01 0.45612360E+03</pdfrwt>
<totfact> 0.63580669E+04</totfact>
</mgrwt>
</event>
<event>
 7    0  0.4779893E-002  0.4555344E+03  0.7546771E-02  0.1026084E+00
         21   -1    0    0  502  501  0.00000000000E+00  0.00000000000E+00  0.55118889924E+03  0.55118889924E+03  0.00000000000E+00 0. -1.
         21   -1    0    0  501  502 -0.00000000000E+00 -0.00000000000E+00 -0.94119981049E+02  0.94119981049E+02  0.00000000000E+00 0. -1.
      99926    2    1    2    0    0  0.00000000000E+00  0.00000000000E+00  0.45706891819E+03  0.64530888029E+03  0.45553436204E+03 0.  0.
      99925    2    3    3    0    0 -0.55638220577E+02  0.79063207142E+02  0.20269434586E+03  0.34580840707E+03  0.26296740148E+03 0.  0.
         25    1    3    3    0    0  0.55638220577E+02 -0.79063207142E+02  0.25437457232E+03  0.29950047322E+03  0.12509000000E+03 0.  0.
         25    1    4    4    0    0  0.72402651519E+01  0.59062528179E+02  0.93321811069E+02  0.16702476522E+03  0.12509000000E+03 0.  0.
         25    1    4    4    0    0 -0.62878485729E+02  0.20000678964E+02  0.10937253479E+03  0.17878364185E+03  0.12509000000E+03 0.  0.
<mgrwt>
<rscale>  2 0.45553436E+03</rscale>
<asrwt>0</asrwt>
<pdfrwt beam="1">  1       21 0.81057190E-01 0.45553436E+03</pdfrwt>
<pdfrwt beam="2">  1       21 0.13841174E-01 0.45553436E+03</pdfrwt>
<totfact> 0.55737183E+04</totfact>
</mgrwt>
</event>
<event>
 6    0  0.4779893E-002  0.4584256E+03  0.7546771E-02  0.1025239E+00
         21   -1    0    0  502  501  0.00000000000E+00  0.00000000000E+00  0.31770718087E+03  0.31770718087E+03  0.00000000000E+00 0. -1.
         21   -1    0    0  501  502 -0.00000000000E+00 -0.00000000000E+00 -0.16536768653E+03  0.16536768653E+03  0.00000000000E+00 0. -1.
      99926    2    1    2    0    0  0.00000000000E+00 -0.14210854715E-13  0.15233949434E+03  0.48307486740E+03  0.45842557300E+03 0.  0.
         25    1    3    3    0    0 -0.35487612216E+02 -0.51326084087E+01  0.26855264324E+02  0.13286996505E+03  0.12509000000E+03 0.  0.
         25    1    3    3    0    0  0.89240177808E+02 -0.72191825344E+02  0.54653859432E+02  0.17835364149E+03  0.12509000000E+03 0.  0.
         25    1    3    3    0    0 -0.53752565592E+02  0.77324433753E+02  0.70830370587E+02  0.17185126086E+03  0.12509000000E+03 0.  0.
<mgrwt>
<rscale>  2 0.45842557E+03</rscale>
<asrwt>0</asrwt>
<pdfrwt beam="1">  1       21 0.46721644E-01 0.45842557E+03</pdfrwt>
<pdfrwt beam="2">  1       21 0.24318777E-01 0.45842557E+03</pdfrwt>
<totfact> 0.64699707E+04</totfact>
</mgrwt>
</event>
<event>
 6    0  0.4779893E-002  0.4474282E+03  0.7546771E-02  0.1028492E+00
         21   -1    0    0  502  501  0.00000000000E+00  0.00000000000E+00  0.20077496151E+03  0.20077496151E+03  0.00000000000E+00 0.  1.
         21   -1    0    0  501  502 -0.00000000000E+00 -0.00000000000E+00 -0.24927410221E+03  0.24927410221E+03  0.00000000000E+00 0.  1.
      99926    2    1    2    0    0  0.00000000000E+00  0.00000000000E+00 -0.48499140699E+02  0.45004906372E+03  0.44742819883E+03 0.  0.
         25    1    3    3    0    0  0.57369009433E+02  0.20141332306E+02  0.36293023178E+02  0.14374132371E+03  0.12509000000E+03 0.  0.
         25    1    3    3    0    0 -0.25644640407E+02 -0.36839377975E+02 -0.11148981631E+03  0.17347125005E+03  0.12509000000E+03 0.  0.
         25    1    3    3    0    0 -0.31724369026E+02  0.16698045669E+02  0.26697652438E+02  0.13283648996E+03  0.12509000000E+03 0.  0.
<mgrwt>
<rscale>  2 0.44742820E+03</rscale>
<asrwt>0</asrwt>
<pdfrwt beam="1">  1       21 0.29525730E-01 0.44742820E+03</pdfrwt>
<pdfrwt beam="2">  1       21 0.36657956E-01 0.44742820E+03</pdfrwt>
<totfact> 0.73235235E+04</totfact>
</mgrwt>
</event>
<event>
 7    0  0.4779893E-002  0.4461142E+03  0.7546771E-02  0.1028887E+00
         21   -1    0    0  502  501  0.00000000000E+00  0.00000000000E+00  0.29148585957E+03  0.29148585957E+03  0.00000000000E+00 0.  1.
         21   -1    0    0  501  502 -0.00000000000E+00 -0.00000000000E+00 -0.17069259832E+03  0.17069259832E+03  0.00000000000E+00 0.  1.
      99926    2    1    2    0    0  0.17763568394E-14  0.00000000000E+00  0.12079326125E+03  0.46217845789E+03  0.44611423982E+03 0.  0.
      99925    2    3    3    0    0  0.75834678124E+01  0.93298877220E+02  0.12337410018E+03  0.30592111149E+03  0.26382639819E+03 0.  0.
         25    1    4    4    0    0  0.34894252037E+02  0.41422869894E+02  0.91411573258E+02  0.16412509498E+03  0.12509000000E+03 0.  0.
         25    1    4    4    0    0 -0.27310784224E+02  0.51876007327E+02  0.31962526926E+02  0.14179601651E+03  0.12509000000E+03 0.  0.
         25    1    3    3    0    0 -0.75834678124E+01 -0.93298877220E+02 -0.25808389327E+01  0.15625734640E+03  0.12509000000E+03 0.  0.
<mgrwt>
<rscale>  2 0.44611424E+03</rscale>
<asrwt>0</asrwt>
<pdfrwt beam="1">  1       21 0.42865568E-01 0.44611424E+03</pdfrwt>
<pdfrwt beam="2">  1       21 0.25101853E-01 0.44611424E+03</pdfrwt>
<totfact> 0.73035911E+04</totfact>
</mgrwt>
</event>
<event>
 7    0  0.4779893E-002  0.4206017E+03  0.7546771E-02  0.1036871E+00
         21   -1    0    0  502  501  0.00000000000E+00  0.00000000000E+00  0.80499571583E+03  0.80499571583E+03  0.00000000000E+00 0.  1.
         21   -1    0    0  501  502 -0.00000000000E+00 -0.00000000000E+00 -0.54939976709E+02  0.54939976709E+02  0.00000000000E+00 0.  1.
      99926    2    1    2    0    0  0.00000000000E+00  0.00000000000E+00  0.75005573912E+03  0.85993569254E+03  0.42060169224E+03 0.  0.
      99925    2    3    3    0    0  0.57402366078E+02 -0.38273465210E+02  0.42056866699E+03  0.50081297177E+03  0.26301281199E+03 0.  0.
         25    1    3    3    0    0 -0.57402366078E+02  0.38273465210E+02  0.32948707213E+03  0.35912272077E+03  0.12509000000E+03 0.  0.
         25    1    4    4    0    0  0.22408656532E+02 -0.58204749906E+02  0.19850992558E+03  0.24278311196E+03  0.12509000000E+03 0.  0.
         25    1    4    4    0    0  0.34993709546E+02  0.19931284696E+02  0.22205874140E+03  0.25802985981E+03  0.12509000000E+03 0.  0.
<mgrwt>
<rscale>  2 0.42060169E+03</rscale>
<asrwt>0</asrwt>
<pdfrwt beam="1">  1       21 0.11838172E+00 0.42060169E+03</pdfrwt>
<pdfrwt beam="2">  1       21 0.80794088E-02 0.42060169E+03</pdfrwt>
<totfact> 0.59491714E+04</totfact>
</mgrwt>
</event>
<event>
 7    0  0.4779893E-002  0.4530451E+03  0.7546771E-02  0.1026818E+00
         21   -1    0    0  502  501  0.00000000000E+00  0.00000000000E+00  0.57620258813E+02  0.57620258813E+02  0.00000000000E+00 0.  1.
         21   -1    0    0  501  502 -0.00000000000E+00 -0.00000000000E+00 -0.89052817416E+03  0.89052817416E+03  0.00000000000E+00 0.  1.
      99926    2    1    2    0    0  0.00000000000E+00  0.00000000000E+00 -0.83290791534E+03  0.94814843297E+03  0.45304509213E+03 0.  0.
      99925    2    3    3    0    0  0.45496346578E+02 -0.39123459545E+02 -0.32867687662E+03  0.42517901594E+03  0.26296034631E+03 0.  0.
         25    1    4    4    0    0  0.62146737090E+01 -0.56248923130E+02 -0.17556035310E+03  0.22287105959E+03  0.12509000000E+03 0.  0.
         25    1    3    3    0    0 -0.45496346578E+02  0.39123459545E+02 -0.50423103872E+03  0.52296941703E+03  0.12509000000E+03 0.  0.
         25    1    4    4    0    0  0.39281672869E+02  0.17125463585E+02 -0.15311652352E+03  0.20230795635E+03  0.12509000000E+03 0.  0.
<mgrwt>
<rscale>  2 0.45304509E+03</rscale>
<asrwt>0</asrwt>
<pdfrwt beam="1">  1       21 0.84735674E-02 0.45304509E+03</pdfrwt>
<pdfrwt beam="2">  1       21 0.13096003E+00 0.45304509E+03</pdfrwt>
<totfact> 0.41852016E+04</totfact>
</mgrwt>
</event>
<event>
 7    0  0.4779893E-002  0.4527376E+03  0.7546771E-02  0.1026909E+00
         21   -1    0    0  502  501  0.00000000000E+00  0.00000000000E+00  0.26218899934E+03  0.26218899934E+03  0.00000000000E+00 0.  1.
         21   -1    0    0  501  502 -0.00000000000E+00 -0.00000000000E+00 -0.19544236528E+03  0.19544236528E+03  0.00000000000E+00 0.  1.
      99926    2    1    2    0    0  0.00000000000E+00  0.00000000000E+00  0.66746634060E+02  0.45763136462E+03  0.45273762018E+03 0.  0.
      99925    2    3    3    0    0 -0.40417135625E+02  0.89316924505E+02  0.94663252173E+02  0.29626871863E+03  0.26306456331E+03 0.  0.
         25    1    3    3    0    0  0.40417135625E+02 -0.89316924505E+02 -0.27916618113E+02  0.16136264599E+03  0.12509000000E+03 0.  0.
         25    1    4    4    0    0 -0.41680896782E+01  0.58524596057E+02  0.84720781231E+02  0.16207288542E+03  0.12509000000E+03 0.  0.
         25    1    4    4    0    0 -0.36249045947E+02  0.30792328448E+02  0.99424709423E+01  0.13419583321E+03  0.12509000000E+03 0.  0.
<mgrwt>
<rscale>  2 0.45273762E+03</rscale>
<asrwt>0</asrwt>
<pdfrwt beam="1">  1       21 0.38557206E-01 0.45273762E+03</pdfrwt>
<pdfrwt beam="2">  1       21 0.28741524E-01 0.45273762E+03</pdfrwt>
<totfact> 0.69600807E+04</totfact>
</mgrwt>
</event>
<event>
 7    0  0.4779893E-002  0.4563058E+03  0.7546771E-02  0.1025858E+00
         21   -1    0    0  502  501  0.00000000000E+00  0.00000000000E+00  0.29889368370E+03  0.29889368370E+03  0.00000000000E+00 0. -1.
         21   -1    0    0  501  502 -0.00000000000E+00 -0.00000000000E+00 -0.17415473279E+03  0.17415473279E+03  0.00000000000E+00 0. -1.
      99926    2    1    2    0    0 -0.35527136788E-14  0.00000000000E+00  0.12473895091E+03  0.47304841649E+03  0.45630581683E+03 0.  0.
      99925    2    3    3    0    0 -0.11110679606E+02  0.10019952554E+03  0.13441745765E+03  0.31209943790E+03  0.26301067297E+03 0.  0.
         25    1    3    3    0    0  0.11110679606E+02 -0.10019952554E+03 -0.96785067411E+01  0.16094897860E+03  0.12509000000E+03 0.  0.
         25    1    4    4    0    0 -0.39087337401E+02  0.28735272467E+02  0.75551571616E+02  0.15397754350E+03  0.12509000000E+03 0.  0.
         25    1    4    4    0    0  0.27976657795E+02  0.71464253070E+02  0.58865886037E+02  0.15812189440E+03  0.12509000000E+03 0.  0.
<mgrwt>
<rscale>  2 0.45630582E+03</rscale>
<asrwt>0</asrwt>
<pdfrwt beam="1">  1       21 0.43954954E-01 0.45630582E+03</pdfrwt>
<pdfrwt beam="2">  1       21 0.25610990E-01 0.45630582E+03</pdfrwt>
<totfact> 0.66517895E+04</totfact>
</mgrwt>
</event>
<event>
 7    0  0.4779893E-002  0.4500366E+03  0.7546771E-02  0.1027711E+00
         21   -1    0    0  502  501  0.00000000000E+00  0.00000000000E+00  0.18490230527E+03  0.18490230527E+03  0.00000000000E+00 0. -1.
         21   -1    0    0  501  502 -0.00000000000E+00 -0.00000000000E+00 -0.27383779097E+03  0.27383779097E+03  0.00000000000E+00 0. -1.
      99926    2    1    2    0    0  0.00000000000E+00 -0.71054273576E-14 -0.88935485694E+02  0.45874009624E+03  0.45003661549E+03 0.  0.
      99925    2    3    3    0    0  0.92675213745E+02 -0.51452419895E+02 -0.33120973861E+02  0.28553843751E+03  0.26305732005E+03 0.  0.
         25    1    4    4    0    0  0.58589577676E+02 -0.39305930814E+02 -0.54438884630E+02  0.15358644168E+03  0.12509000000E+03 0.  0.
         25    1    3    3    0    0 -0.92675213745E+02  0.51452419895E+02 -0.55814511833E+02  0.17320165873E+03  0.12509000000E+03 0.  0.
         25    1    4    4    0    0  0.34085636069E+02 -0.12146489081E+02  0.21317910769E+02  0.13195199583E+03  0.12509000000E+03 0.  0.
<mgrwt>
<rscale>  2 0.45003662E+03</rscale>
<asrwt>0</asrwt>
<pdfrwt beam="1">  1       21 0.27191516E-01 0.45003662E+03</pdfrwt>
<pdfrwt beam="2">  1       21 0.40270263E-01 0.45003662E+03</pdfrwt>
<totfact> 0.71039211E+04</totfact>
</mgrwt>
</event>
<event>
 7    0  0.4779893E-002  0.4425138E+03  0.7546771E-02  0.1029978E+00
         21   -1    0    0  502  501  0.00000000000E+00  0.00000000000E+00  0.30293472158E+03  0.30293472158E+03  0.00000000000E+00 0.  1.
         21   -1    0    0  501  502 -0.00000000000E+00 -0.00000000000E+00 -0.16160119180E+03  0.16160119180E+03  0.00000000000E+00 0.  1.
      99926    2    1    2    0    0 -0.14210854715E-13 -0.71054273576E-14  0.14133352978E+03  0.46453591339E+03  0.44251378304E+03 0.  0.
      99925    2    3    3    0    0 -0.66128145018E+02 -0.58323813772E+02  0.14174373978E+03  0.31149253657E+03  0.26298614745E+03 0.  0.
         25    1    3    3    0    0  0.66128145018E+02  0.58323813772E+02 -0.41020999794E+00  0.15304337682E+03  0.12509000000E+03 0.  0.
         25    1    4    4    0    0  0.24294189340E+01 -0.42371612607E+02  0.50535239643E+02  0.14143045704E+03  0.12509000000E+03 0.  0.
         25    1    4    4    0    0 -0.68557563952E+02 -0.15952201164E+02  0.91208500136E+02  0.17006207953E+03  0.12509000000E+03 0.  0.
<mgrwt>
<rscale>  2 0.44251378E+03</rscale>
<asrwt>0</asrwt>
<pdfrwt beam="1">  1       21 0.44549224E-01 0.44251378E+03</pdfrwt>
<pdfrwt beam="2">  1       21 0.23764881E-01 0.44251378E+03</pdfrwt>
<totfact> 0.75004026E+04</totfact>
</mgrwt>
</event>
<event>
 7    0  0.4779893E-002  0.4499900E+03  0.7546771E-02  0.1027725E+00
         21   -1    0    0  502  501  0.00000000000E+00  0.00000000000E+00  0.91674833346E+02  0.91674833346E+02  0.00000000000E+00 0. -1.
         21   -1    0    0  501  502 -0.00000000000E+00 -0.00000000000E+00 -0.55219894100E+03  0.55219894100E+03  0.00000000000E+00 0. -1.
      99926    2    1    2    0    0  0.00000000000E+00  0.00000000000E+00 -0.46052410765E+03  0.64387377435E+03  0.44998998162E+03 0.  0.
      99925    2    3    3    0    0 -0.59215308995E+02  0.79504974456E+02 -0.35371756004E+03  0.45182523752E+03  0.26306356494E+03 0.  0.
         25    1    4    4    0    0 -0.78459024590E+01  0.54540784723E+02 -0.22617715796E+03  0.26427234109E+03  0.12509000000E+03 0.  0.
         25    1    3    3    0    0  0.59215308995E+02 -0.79504974456E+02 -0.10680654762E+03  0.19204853682E+03  0.12509000000E+03 0.  0.
         25    1    4    4    0    0 -0.51369406536E+02  0.24964189733E+02 -0.12754040208E+03  0.18755289643E+03  0.12509000000E+03 0.  0.
<mgrwt>
<rscale>  2 0.44998998E+03</rscale>
<asrwt>0</asrwt>
<pdfrwt beam="1">  1       21 0.13481593E-01 0.44998998E+03</pdfrwt>
<pdfrwt beam="2">  1       21 0.81205725E-01 0.44998998E+03</pdfrwt>
<totfact> 0.58327531E+04</totfact>
</mgrwt>
</event>
<event>
 7    0  0.4779893E-002  0.4578696E+03  0.7546771E-02  0.1025401E+00
         21   -1    0    0  502  501  0.00000000000E+00  0.00000000000E+00  0.50356180183E+03  0.50356180183E+03  0.00000000000E+00 0.  1.
         21   -1    0    0  501  502 -0.00000000000E+00 -0.00000000000E+00 -0.10408085070E+03  0.10408085070E+03  0.00000000000E+00 0.  1.
      99926    2    1    2    0    0  0.00000000000E+00 -0.14210854715E-13  0.39948095113E+03  0.60764265253E+03  0.45786959153E+03 0.  0.
      99925    2    3    3    0    0  0.54708760952E+02  0.97984445416E+02  0.28869117463E+03  0.40635707742E+03  0.26303893246E+03 0.  0.
         25    1    4    4    0    0  0.59974635187E+02  0.77492999741E+02  0.16824227381E+03  0.23141973268E+03  0.12509000000E+03 0.  0.
         25    1    3    3    0    0 -0.54708760952E+02 -0.97984445416E+02  0.11078977651E+03  0.20128557511E+03  0.12509000000E+03 0.  0.
         25    1    4    4    0    0 -0.52658742350E+01  0.20491445674E+02  0.12044890081E+03  0.17493734474E+03  0.12509000000E+03 0.  0.
<mgrwt>
<rscale>  2 0.45786959E+03</rscale>
<asrwt>0</asrwt>
<pdfrwt beam="1">  1       21 0.74053205E-01 0.45786959E+03</pdfrwt>
<pdfrwt beam="2">  1       21 0.15306008E-01 0.45786959E+03</pdfrwt>
<totfact> 0.56909225E+04</totfact>
</mgrwt>
</event>
<event>
 7    0  0.4779893E-002  0.4630590E+03  0.7546771E-02  0.1023898E+00
         21   -1    0    0  502  501  0.00000000000E+00  0.00000000000E+00  0.12467062988E+03  0.12467062988E+03  0.00000000000E+00 0. -1.
         21   -1    0    0  501  502 -0.00000000000E+00 -0.00000000000E+00 -0.42998020902E+03  0.42998020902E+03  0.00000000000E+00 0. -1.
      99926    2    1    2    0    0  0.35527136788E-14  0.00000000000E+00 -0.30530957914E+03  0.55465083890E+03  0.46305897463E+03 0.  0.
      99925    2    3    3    0    0 -0.31403284692E+02 -0.65826985836E+02 -0.75579440569E+02  0.28309457766E+03  0.26288957703E+03 0.  0.
         25    1    4    4    0    0 -0.16326054232E+02 -0.65257930109E+02 -0.13603859288E+02  0.14268044917E+03  0.12509000000E+03 0.  0.
         25    1    4    4    0    0 -0.15077230460E+02 -0.56905572757E+00 -0.61975581281E+02  0.14041412848E+03  0.12509000000E+03 0.  0.
         25    1    3    3    0    0  0.31403284692E+02  0.65826985836E+02 -0.22973013857E+03  0.27155626125E+03  0.12509000000E+03 0.  0.
<mgrwt>
<rscale>  2 0.46305897E+03</rscale>
<asrwt>0</asrwt>
<pdfrwt beam="1">  1       21 0.18333916E-01 0.46305897E+03</pdfrwt>
<pdfrwt beam="2">  1       21 0.63232385E-01 0.46305897E+03</pdfrwt>
<totfact> 0.57786907E+04</totfact>
</mgrwt>
</event>
<event>
 7    0  0.4779893E-002  0.4646789E+03  0.7546771E-02  0.1023433E+00
         21   -1    0    0  502  501  0.00000000000E+00  0.00000000000E+00  0.64723790405E+03  0.64723790405E+03  0.00000000000E+00 0. -1.
         21   -1    0    0  501  502 -0.00000000000E+00 -0.00000000000E+00 -0.83403048766E+02  0.83403048766E+02  0.00000000000E+00 0. -1.
      99926    2    1    2    0    0 -0.35527136788E-14  0.00000000000E+00  0.56383485528E+03  0.73064095281E+03  0.46467887610E+03 0.  0.
      99925    2    3    3    0    0 -0.18682894052E+02 -0.11739813379E+03  0.30605478486E+03  0.42043224056E+03  0.26260686438E+03 0.  0.
         25    1    4    4    0    0 -0.41152067197E+02 -0.56535504642E+02  0.11921933160E+03  0.18641489492E+03  0.12509000000E+03 0.  0.
         25    1    3    3    0    0  0.18682894052E+02  0.11739813379E+03  0.25778007042E+03  0.31020871225E+03  0.12509000000E+03 0.  0.
         25    1    4    4    0    0  0.22469173144E+02 -0.60862629152E+02  0.18683545326E+03  0.23401734565E+03  0.12509000000E+03 0.  0.
<mgrwt>
<rscale>  2 0.46467888E+03</rscale>
<asrwt>0</asrwt>
<pdfrwt beam="1">  1       21 0.95182042E-01 0.46467888E+03</pdfrwt>
<pdfrwt beam="2">  1       21 0.12265155E-01 0.46467888E+03</pdfrwt>
<totfact> 0.47547247E+04</totfact>
</mgrwt>
</event>
<event>
 7    0  0.4779893E-002  0.4580974E+03  0.7546771E-02  0.1025334E+00
         21   -1    0    0  502  501  0.00000000000E+00  0.00000000000E+00  0.99029601824E+02  0.99029601824E+02  0.00000000000E+00 0. -1.
         21   -1    0    0  501  502 -0.00000000000E+00 -0.00000000000E+00 -0.52977405241E+03  0.52977405241E+03  0.00000000000E+00 0. -1.
      99926    2    1    2    0    0  0.00000000000E+00  0.00000000000E+00 -0.43074445058E+03  0.62880365423E+03  0.45809742836E+03 0.  0.
      99925    2    3    3    0    0 -0.16982396889E+02  0.33314778175E+02 -0.11947937130E+03  0.29126590237E+03  0.26298712795E+03 0.  0.
         25    1    4    4    0    0 -0.42236021150E+02  0.21301515378E+02 -0.36693157963E+02  0.13867779917E+03  0.12509000000E+03 0.  0.
         25    1    3    3    0    0  0.16982396889E+02 -0.33314778175E+02 -0.31126507929E+03  0.33753775186E+03  0.12509000000E+03 0.  0.
         25    1    4    4    0    0  0.25253624261E+02  0.12013262798E+02 -0.82786213334E+02  0.15258810320E+03  0.12509000000E+03 0.  0.
<mgrwt>
<rscale>  2 0.45809743E+03</rscale>
<asrwt>0</asrwt>
<pdfrwt beam="1">  1       21 0.14563177E-01 0.45809743E+03</pdfrwt>
<pdfrwt beam="2">  1       21 0.77907949E-01 0.45809743E+03</pdfrwt>
<totfact> 0.55568137E+04</totfact>
</mgrwt>
</event>
<event>
 7    0  0.4779893E-002  0.4535020E+03  0.7546771E-02  0.1026683E+00
         21   -1    0    0  502  501  0.00000000000E+00  0.00000000000E+00  0.34534920620E+03  0.34534920620E+03  0.00000000000E+00 0. -1.
         21   -1    0    0  501  502 -0.00000000000E+00 -0.00000000000E+00 -0.14888123869E+03  0.14888123869E+03  0.00000000000E+00 0. -1.
      99926    2    1    2    0    0  0.00000000000E+00  0.00000000000E+00  0.19646796751E+03  0.49423044489E+03  0.45350200705E+03 0.  0.
      99925    2    3    3    0    0  0.43704400122E+01  0.91949382476E+02  0.19315785088E+03  0.33888484741E+03  0.26279116189E+03 0.  0.
         25    1    3    3    0    0 -0.43704400122E+01 -0.91949382476E+02  0.33101166291E+01  0.15534559748E+03  0.12509000000E+03 0.  0.
         25    1    4    4    0    0 -0.17907333657E+02  0.89498492784E+01  0.88112908478E+02  0.15431190862E+03  0.12509000000E+03 0.  0.
         25    1    4    4    0    0  0.22277773669E+02  0.82999533198E+02  0.10504494240E+03  0.18457293879E+03  0.12509000000E+03 0.  0.
<mgrwt>
<rscale>  2 0.45350201E+03</rscale>
<asrwt>0</asrwt>
<pdfrwt beam="1">  1       21 0.50786648E-01 0.45350201E+03</pdfrwt>
<pdfrwt beam="2">  1       21 0.21894300E-01 0.45350201E+03</pdfrwt>
<totfact> 0.66464796E+04</totfact>
</mgrwt>
</event>
<event>
 7    0  0.4779893E-002  0.4183488E+03  0.7546771E-02  0.1037605E+00
         21   -1    0    0  502  501  0.00000000000E+00  0.00000000000E+00  0.22102980752E+03  0.22102980752E+03  0.00000000000E+00 0. -1.
         21   -1    0    0  501  502 -0.00000000000E+00 -0.00000000000E+00 -0.19795489164E+03  0.19795489164E+03  0.00000000000E+00 0. -1.
      99926    2    1    2    0    0 -0.71054273576E-14  0.88817841970E-15  0.23074915882E+02  0.41898469916E+03  0.41834880948E+03 0.  0.
      99925    2    3    3    0    0  0.59714323074E+02 -0.52070481891E+01  0.58211932203E+02  0.27589370802E+03  0.26293686570E+03 0.  0.
         25    1    4    4    0    0 -0.40540990267E+01 -0.21768603154E+02  0.40908779112E+02  0.13345914772E+03  0.12509000000E+03 0.  0.
         25    1    4    4    0    0  0.63768422101E+02  0.16561554965E+02  0.17303153091E+02  0.14243456030E+03  0.12509000000E+03 0.  0.
         25    1    3    3    0    0 -0.59714323074E+02  0.52070481891E+01 -0.35137016321E+02  0.14309099115E+03  0.12509000000E+03 0.  0.
<mgrwt>
<rscale>  2 0.41834881E+03</rscale>
<asrwt>0</asrwt>
<pdfrwt beam="1">  1       21 0.32504383E-01 0.41834881E+03</pdfrwt>
<pdfrwt beam="2">  1       21 0.29111014E-01 0.41834881E+03</pdfrwt>
<totfact> 0.96566811E+04</totfact>
</mgrwt>
</event>
<event>
 7    0  0.4779893E-002  0.4475687E+03  0.7546771E-02  0.1028450E+00
         21   -1    0    0  502  501  0.00000000000E+00  0.00000000000E+00  0.18603514418E+03  0.18603514418E+03  0.00000000000E+00 0. -1.
         21   -1    0    0  501  502 -0.00000000000E+00 -0.00000000000E+00 -0.26919344265E+03  0.26919344265E+03  0.00000000000E+00 0. -1.
      99926    2    1    2    0    0  0.00000000000E+00  0.00000000000E+00 -0.83158298471E+02  0.45522858683E+03  0.44756872507E+03 0.  0.
      99925    2    3    3    0    0  0.75870783151E+02 -0.54813325339E+02 -0.19384064324E+01  0.27914606261E+03  0.26297887840E+03 0.  0.
         25    1    4    4    0    0  0.21347821949E+02 -0.36501444498E+02  0.34988221219E+02  0.13660076382E+03  0.12509000000E+03 0.  0.
         25    1    3    3    0    0 -0.75870783151E+02  0.54813325339E+02 -0.81219892039E+02  0.17608252421E+03  0.12509000000E+03 0.  0.
         25    1    4    4    0    0  0.54522961202E+02 -0.18311880841E+02 -0.36926627651E+02  0.14254529879E+03  0.12509000000E+03 0.  0.
<mgrwt>
<rscale>  2 0.44756873E+03</rscale>
<asrwt>0</asrwt>
<pdfrwt beam="1">  1       21 0.27358109E-01 0.44756873E+03</pdfrwt>
<pdfrwt beam="2">  1       21 0.39587271E-01 0.44756873E+03</pdfrwt>
<totfact> 0.72744996E+04</totfact>
</mgrwt>
</event>
<event>
 7    0  0.4779893E-002  0.4547902E+03  0.7546771E-02  0.1026303E+00
         21   -1    0    0  502  501  0.00000000000E+00  0.00000000000E+00  0.16953530894E+04  0.16953530894E+04  0.00000000000E+00 0. -1.
         21   -1    0    0  501  502 -0.00000000000E+00 -0.00000000000E+00 -0.30500159112E+02  0.30500159112E+02  0.00000000000E+00 0. -1.
      99926    2    1    2    0    0  0.00000000000E+00  0.00000000000E+00  0.16648529303E+04  0.17258532485E+04  0.45479023286E+03 0.  0.
      99925    2    3    3    0    0 -0.87992291719E+02 -0.16438976308E+02  0.13093543620E+04  0.13385037635E+04  0.26300303498E+03 0.  0.
         25    1    4    4    0    0 -0.57349899387E+02 -0.20043526614E+02  0.85501441258E+03  0.86624933347E+03  0.12509000000E+03 0.  0.
         25    1    4    4    0    0 -0.30642392332E+02  0.36045503066E+01  0.45433994941E+03  0.47225443007E+03  0.12509000000E+03 0.  0.
         25    1    3    3    0    0  0.87992291719E+02  0.16438976308E+02  0.35549856828E+03  0.38734948496E+03  0.12509000000E+03 0.  0.
<mgrwt>
<rscale>  2 0.45479023E+03</rscale>
<asrwt>0</asrwt>
<pdfrwt beam="1">  1       21 0.24931657E+00 0.45479023E+03</pdfrwt>
<pdfrwt beam="2">  1       21 0.44853187E-02 0.45479023E+03</pdfrwt>
<totfact> 0.18759194E+04</totfact>
</mgrwt>
</event>
<event>
 7    0  0.4779893E-002  0.4578379E+03  0.7546771E-02  0.1025410E+00
         21   -1    0    0  502  501  0.00000000000E+00  0.00000000000E+00  0.40293091284E+02  0.40293091284E+02  0.00000000000E+00 0. -1.
         21   -1    0    0  501  502 -0.00000000000E+00 -0.00000000000E+00 -0.13005676427E+04  0.13005676427E+04  0.00000000000E+00 0. -1.
      99926    2    1    2    0    0  0.00000000000E+00  0.00000000000E+00 -0.12602745514E+04  0.13408607339E+04  0.45783792218E+03 0.  0.
      99925    2    3    3    0    0 -0.59005124885E+02  0.42580458513E+02 -0.52727631249E+03  0.59371374271E+03  0.26302280957E+03 0.  0.
         25    1    4    4    0    0 -0.24025800737E+02  0.53501568540E+02 -0.32412534487E+03  0.35234131779E+03  0.12509000000E+03 0.  0.
         25    1    4    4    0    0 -0.34979324148E+02 -0.10921110027E+02 -0.20315096763E+03  0.24137242492E+03  0.12509000000E+03 0.  0.
         25    1    3    3    0    0  0.59005124885E+02 -0.42580458513E+02 -0.73299823889E+03  0.74714699124E+03  0.12509000000E+03 0.  0.
<mgrwt>
<rscale>  2 0.45783792E+03</rscale>
<asrwt>0</asrwt>
<pdfrwt beam="1">  1       21 0.59254544E-02 0.45783792E+03</pdfrwt>
<pdfrwt beam="2">  1       21 0.19125995E+00 0.45783792E+03</pdfrwt>
<totfact> 0.27342473E+04</totfact>
</mgrwt>
</event>
<event>
 7    0  0.4779893E-002  0.4601805E+03  0.7546771E-02  0.1024729E+00
         21   -1    0    0  502  501  0.00000000000E+00  0.00000000000E+00  0.20273441254E+03  0.20273441254E+03  0.00000000000E+00 0.  1.
         21   -1    0    0  501  502 -0.00000000000E+00 -0.00000000000E+00 -0.26113727338E+03  0.26113727338E+03  0.00000000000E+00 0.  1.
      99926    2    1    2    0    0  0.17763568394E-14  0.00000000000E+00 -0.58402860840E+02  0.46387168593E+03  0.46018045031E+03 0.  0.
      99925    2    3    3    0    0  0.10050424761E+02 -0.61526492118E+02 -0.13779079515E+03  0.30313440809E+03  0.26271209692E+03 0.  0.
         25    1    3    3    0    0 -0.10050424761E+02  0.61526492118E+02  0.79387934315E+02  0.16073727783E+03  0.12509000000E+03 0.  0.
         25    1    4    4    0    0  0.22424928908E+02 -0.12241360240E+02 -0.10210746146E+03  0.16348140605E+03  0.12509000000E+03 0.  0.
         25    1    4    4    0    0 -0.12374504146E+02 -0.49285131877E+02 -0.35683333695E+02  0.13965300205E+03  0.12509000000E+03 0.  0.
<mgrwt>
<rscale>  2 0.46018045E+03</rscale>
<asrwt>0</asrwt>
<pdfrwt beam="1">  1       21 0.29813884E-01 0.46018045E+03</pdfrwt>
<pdfrwt beam="2">  1       21 0.38402540E-01 0.46018045E+03</pdfrwt>
<totfact> 0.65165199E+04</totfact>
</mgrwt>
</event>
<event>
 7    0  0.4779893E-002  0.4521587E+03  0.7546771E-02  0.1027080E+00
         21   -1    0    0  502  501  0.00000000000E+00  0.00000000000E+00  0.57881649929E+02  0.57881649929E+02  0.00000000000E+00 0. -1.
         21   -1    0    0  501  502 -0.00000000000E+00 -0.00000000000E+00 -0.88304116676E+03  0.88304116676E+03  0.00000000000E+00 0. -1.
      99926    2    1    2    0    0  0.00000000000E+00  0.00000000000E+00 -0.82515951684E+03  0.94092281669E+03  0.45215873181E+03 0.  0.
      99925    2    3    3    0    0  0.23856528204E+02 -0.94786773395E+02 -0.62811666700E+03  0.68788712925E+03  0.26287732667E+03 0.  0.
         25    1    4    4    0    0  0.26663872155E+02 -0.74172476544E+02 -0.26773906510E+03  0.30585001788E+03  0.12509000000E+03 0.  0.
         25    1    3    3    0    0 -0.23856528204E+02  0.94786773395E+02 -0.19704284983E+03  0.25303568744E+03  0.12509000000E+03 0.  0.
         25    1    4    4    0    0 -0.28073439518E+01 -0.20614296851E+02 -0.36037760190E+03  0.38203711138E+03  0.12509000000E+03 0.  0.
<mgrwt>
<rscale>  2 0.45215873E+03</rscale>
<asrwt>0</asrwt>
<pdfrwt beam="1">  1       21 0.85120071E-02 0.45215873E+03</pdfrwt>
<pdfrwt beam="2">  1       21 0.12985900E+00 0.45215873E+03</pdfrwt>
<totfact> 0.42445898E+04</totfact>
</mgrwt>
</event>
<event>
 7    0  0.4779893E-002  0.4481469E+03  0.7546771E-02  0.1028276E+00
         21   -1    0    0  502  501  0.00000000000E+00  0.00000000000E+00  0.50604136022E+03  0.50604136022E+03  0.00000000000E+00 0.  1.
         21   -1    0    0  501  502 -0.00000000000E+00 -0.00000000000E+00 -0.99218996639E+02  0.99218996639E+02  0.00000000000E+00 0.  1.
      99926    2    1    2    0    0  0.35527136788E-14 -0.14210854715E-13  0.40682236358E+03  0.60526035686E+03  0.44814692242E+03 0.  0.
      99925    2    3    3    0    0  0.12252112014E+02  0.10568688889E+03  0.24914519055E+03  0.37759957471E+03  0.26303665166E+03 0.  0.
         25    1    3    3    0    0 -0.12252112014E+02 -0.10568688889E+03  0.15767717303E+03  0.22766078214E+03  0.12509000000E+03 0.  0.
         25    1    4    4    0    0  0.42795802799E+02  0.71683499613E+02  0.13863359062E+03  0.20454042486E+03  0.12509000000E+03 0.  0.
         25    1    4    4    0    0 -0.30543690785E+02  0.34003389274E+02  0.11051159993E+03  0.17305914985E+03  0.12509000000E+03 0.  0.
<mgrwt>
<rscale>  2 0.44814692E+03</rscale>
<asrwt>0</asrwt>
<pdfrwt beam="1">  1       21 0.74417846E-01 0.44814692E+03</pdfrwt>
<pdfrwt beam="2">  1       21 0.14591029E-01 0.44814692E+03</pdfrwt>
<totfact> 0.61624709E+04</totfact>
</mgrwt>
</event>
<event>
 7    0  0.4779893E-002  0.4557121E+03  0.7546771E-02  0.1026032E+00
         21   -1    0    0  502  501  0.00000000000E+00  0.00000000000E+00  0.68629582978E+03  0.68629582978E+03  0.00000000000E+00 0. -1.
         21   -1    0    0  501  502 -0.00000000000E+00 -0.00000000000E+00 -0.75650139532E+02  0.75650139532E+02  0.00000000000E+00 0. -1.
      99926    2    1    2    0    0  0.00000000000E+00  0.00000000000E+00  0.61064569024E+03  0.76194596931E+03  0.45571208140E+03 0.  0.
      99925    2    3    3    0    0 -0.74513697568E+02 -0.49260391477E+02  0.50197898188E+03  0.57370453152E+03  0.26301162321E+03 0.  0.
         25    1    4    4    0    0 -0.56384665662E+02 -0.60121537035E+02  0.29704332674E+03  0.33268014037E+03  0.12509000000E+03 0.  0.
         25    1    4    4    0    0 -0.18129031905E+02  0.10861145558E+02  0.20493565515E+03  0.24102439115E+03  0.12509000000E+03 0.  0.
         25    1    3    3    0    0  0.74513697568E+02  0.49260391477E+02  0.10866670836E+03  0.18824143779E+03  0.12509000000E+03 0.  0.
<mgrwt>
<rscale>  2 0.45571208E+03</rscale>
<asrwt>0</asrwt>
<pdfrwt beam="1">  1       21 0.10092585E+00 0.45571208E+03</pdfrwt>
<pdfrwt beam="2">  1       21 0.11125021E-01 0.45571208E+03</pdfrwt>
<totfact> 0.49383511E+04</totfact>
</mgrwt>
</event>
<event>
 7    0  0.4779893E-002  0.3966057E+03  0.7546771E-02  0.1044961E+00
         21   -1    0    0  502  501  0.00000000000E+00  0.00000000000E+00  0.22991584721E+02  0.22991584721E+02  0.00000000000E+00 0.  1.
         21   -1    0    0  501  502 -0.00000000000E+00 -0.00000000000E+00 -0.17103656450E+04  0.17103656450E+04  0.00000000000E+00 0.  1.
      99926    2    1    2    0    0 -0.17763568394E-14  0.00000000000E+00 -0.16873740603E+04  0.17333572297E+04  0.39660568140E+03 0.  0.
      99925    2    3    3    0    0 -0.14887391858E+02 -0.19652768137E+02 -0.10042460340E+04  0.10384332956E+04  0.26310786194E+03 0.  0.
         25    1    4    4    0    0 -0.28940453458E+02 -0.25167833615E+02 -0.38886491682E+03  0.41028575569E+03  0.12509000000E+03 0.  0.
         25    1    3    3    0    0  0.14887391858E+02  0.19652768137E+02 -0.68312802632E+03  0.69492393409E+03  0.12509000000E+03 0.  0.
         25    1    4    4    0    0  0.14053061600E+02  0.55150654775E+01 -0.61538111716E+03  0.62814753995E+03  0.12509000000E+03 0.  0.
<mgrwt>
<rscale>  2 0.39660568E+03</rscale>
<asrwt>0</asrwt>
<pdfrwt beam="1">  1       21 0.33811139E-02 0.39660568E+03</pdfrwt>
<pdfrwt beam="2">  1       21 0.25152447E+00 0.39660568E+03</pdfrwt>
<totfact> 0.30073769E+04</totfact>
</mgrwt>
</event>
<event>
 7    0  0.4779893E-002  0.4533466E+03  0.7546771E-02  0.1026729E+00
         21   -1    0    0  502  501  0.00000000000E+00  0.00000000000E+00  0.71073295710E+03  0.71073295710E+03  0.00000000000E+00 0.  1.
         21   -1    0    0  501  502 -0.00000000000E+00 -0.00000000000E+00 -0.72292678932E+02  0.72292678932E+02  0.00000000000E+00 0.  1.
      99926    2    1    2    0    0  0.00000000000E+00  0.00000000000E+00  0.63844027817E+03  0.78302563603E+03  0.45334662003E+03 0.  0.
      99925    2    3    3    0    0 -0.54000324942E+02  0.64905299709E+02  0.27640536794E+03  0.39079417714E+03  0.26304263615E+03 0.  0.
         25    1    4    4    0    0  0.63258566611E+01  0.54092188693E+02  0.12464416745E+03  0.18479626057E+03  0.12509000000E+03 0.  0.
         25    1    3    3    0    0  0.54000324942E+02 -0.64905299709E+02  0.36203491022E+03  0.39223145889E+03  0.12509000000E+03 0.  0.
         25    1    4    4    0    0 -0.60326181603E+02  0.10813111017E+02  0.15176120049E+03  0.20599791657E+03  0.12509000000E+03 0.  0.
<mgrwt>
<rscale>  2 0.45334662E+03</rscale>
<asrwt>0</asrwt>
<pdfrwt beam="1">  1       21 0.10451955E+00 0.45334662E+03</pdfrwt>
<pdfrwt beam="2">  1       21 0.10631277E-01 0.45334662E+03</pdfrwt>
<totfact> 0.49232643E+04</totfact>
</mgrwt>
</event>
<event>
 7    0  0.4779893E-002  0.4525668E+03  0.7546771E-02  0.1026959E+00
         21   -1    0    0  502  501  0.00000000000E+00  0.00000000000E+00  0.30558231640E+03  0.30558231640E+03  0.00000000000E+00 0. -1.
         21   -1    0    0  501  502 -0.00000000000E+00 -0.00000000000E+00 -0.16756265595E+03  0.16756265595E+03  0.00000000000E+00 0. -1.
      99926    2    1    2    0    0 -0.14210854715E-13  0.35527136788E-14  0.13801966045E+03  0.47314497236E+03  0.45256683285E+03 0.  0.
      99925    2    3    3    0    0  0.10871952031E+03 -0.20914352444E+02  0.88495217352E+02  0.29891086892E+03  0.26317097073E+03 0.  0.
         25    1    3    3    0    0 -0.10871952031E+03  0.20914352444E+02  0.49524443099E+02  0.17423410343E+03  0.12509000000E+03 0.  0.
         25    1    4    4    0    0  0.58439931192E+02 -0.49496107908E+02  0.32964366741E+02  0.15033046208E+03  0.12509000000E+03 0.  0.
         25    1    4    4    0    0  0.50279589117E+02  0.28581755464E+02  0.55530850611E+02  0.14858040684E+03  0.12509000000E+03 0.  0.
<mgrwt>
<rscale>  2 0.45256683E+03</rscale>
<asrwt>0</asrwt>
<pdfrwt beam="1">  1       21 0.44938576E-01 0.45256683E+03</pdfrwt>
<pdfrwt beam="2">  1       21 0.24641567E-01 0.45256683E+03</pdfrwt>
<totfact> 0.68516027E+04</totfact>
</mgrwt>
</event>
<event>
 7    0  0.4779893E-002  0.4562686E+03  0.7546771E-02  0.1025869E+00
         21   -1    0    0  502  501  0.00000000000E+00  0.00000000000E+00  0.43435271031E+03  0.43435271031E+03  0.00000000000E+00 0.  1.
         21   -1    0    0  501  502 -0.00000000000E+00 -0.00000000000E+00 -0.11982258702E+03  0.11982258702E+03  0.00000000000E+00 0.  1.
      99926    2    1    2    0    0  0.71054273576E-14  0.00000000000E+00  0.31453012329E+03  0.55417529732E+03  0.45626862889E+03 0.  0.
      99925    2    3    3    0    0  0.34425979787E+02 -0.39014783430E+02  0.74138928755E+02  0.27823556491E+03  0.26308011596E+03 0.  0.
         25    1    4    4    0    0 -0.13207541417E+02  0.14216510289E+01  0.16013255754E+02  0.12680848829E+03  0.12509000000E+03 0.  0.
         25    1    3    3    0    0 -0.34425979787E+02  0.39014783430E+02  0.24039119454E+03  0.27593973241E+03  0.12509000000E+03 0.  0.
         25    1    4    4    0    0  0.47633521204E+02 -0.40436434459E+02  0.58125673001E+02  0.15142707663E+03  0.12509000000E+03 0.  0.
<mgrwt>
<rscale>  2 0.45626863E+03</rscale>
<asrwt>0</asrwt>
<pdfrwt beam="1">  1       21 0.63875398E-01 0.45626863E+03</pdfrwt>
<pdfrwt beam="2">  1       21 0.17620969E-01 0.45626863E+03</pdfrwt>
<totfact> 0.60977157E+04</totfact>
</mgrwt>
</event>
<event>
 7    0  0.4779893E-002  0.4581966E+03  0.7546771E-02  0.1025306E+00
         21   -1    0    0  502  501  0.00000000000E+00  0.00000000000E+00  0.17460884578E+03  0.17460884578E+03  0.00000000000E+00 0.  1.
         21   -1    0    0  501  502 -0.00000000000E+00 -0.00000000000E+00 -0.30059205484E+03  0.30059205484E+03  0.00000000000E+00 0.  1.
      99926    2    1    2    0    0 -0.35527136788E-14  0.00000000000E+00 -0.12598320907E+03  0.47520090062E+03  0.45819660298E+03 0.  0.
      99925    2    3    3    0    0 -0.20923447964E+02 -0.11227856131E+03 -0.57313058405E+02  0.29242408672E+03  0.26302622270E+03 0.  0.
         25    1    4    4    0    0 -0.34317895534E+02 -0.24711024744E+02 -0.12016748131E+02  0.13259058426E+03  0.12509000000E+03 0.  0.
         25    1    3    3    0    0  0.20923447964E+02  0.11227856131E+03 -0.68670150661E+02  0.18277681389E+03  0.12509000000E+03 0.  0.
         25    1    4    4    0    0  0.13394447570E+02 -0.87567536570E+02 -0.45296310274E+02  0.15983350247E+03  0.12509000000E+03 0.  0.
<mgrwt>
<rscale>  2 0.45819660E+03</rscale>
<asrwt>0</asrwt>
<pdfrwt beam="1">  1       21 0.25677771E-01 0.45819660E+03</pdfrwt>
<pdfrwt beam="2">  1       21 0.44204714E-01 0.45819660E+03</pdfrwt>
<totfact> 0.65377053E+04</totfact>
</mgrwt>
</event>
<event>
 7    0  0.4779893E-002  0.4653466E+03  0.7546771E-02  0.1023242E+00
         21   -1    0    0  502  501  0.00000000000E+00  0.00000000000E+00  0.25295121112E+02  0.25295121112E+02  0.00000000000E+00 0. -1.
         21   -1    0    0  501  502 -0.00000000000E+00 -0.00000000000E+00 -0.21402097088E+04  0.21402097088E+04  0.00000000000E+00 0. -1.
      99926    2    1    2    0    0  0.35527136788E-14  0.00000000000E+00 -0.21149145877E+04  0.21655048299E+04  0.46534659681E+03 0.  0.
      99925    2    3    3    0    0  0.30195178676E+02  0.11836017058E+03 -0.12672368893E+04  0.12999842540E+04  0.26296168615E+03 0.  0.
         25    1    3    3    0    0 -0.30195178676E+02 -0.11836017058E+03 -0.84767769844E+03  0.86552057592E+03  0.12509000000E+03 0.  0.
         25    1    4    4    0    0  0.45038662045E+01  0.28297864762E+02 -0.44995732291E+03  0.46789972698E+03  0.12509000000E+03 0.  0.
         25    1    4    4    0    0  0.25691312472E+02  0.90062305815E+02 -0.81727956637E+03  0.83208452706E+03  0.12509000000E+03 0.  0.
<mgrwt>
<rscale>  2 0.46534660E+03</rscale>
<asrwt>0</asrwt>
<pdfrwt beam="1">  1       21 0.37198709E-02 0.46534660E+03</pdfrwt>
<pdfrwt beam="2">  1       21 0.31473671E+00 0.46534660E+03</pdfrwt>
<totfact> 0.10335320E+04</totfact>
</mgrwt>
</event>
<event>
 7    0  0.4779893E-002  0.4339033E+03  0.7546771E-02  0.1032634E+00
         21   -1    0    0  502  501  0.00000000000E+00  0.00000000000E+00  0.56862373118E+03  0.56862373118E+03  0.00000000000E+00 0. -1.
         21   -1    0    0  501  502 -0.00000000000E+00 -0.00000000000E+00 -0.82775331525E+02  0.82775331525E+02  0.00000000000E+00 0. -1.
      99926    2    1    2    0    0  0.35527136788E-14 -0.14210854715E-13  0.48584839966E+03  0.65139906271E+03  0.43390329734E+03 0.  0.
      99925    2    3    3    0    0 -0.21383413729E+02 -0.80875871257E+02  0.25389287568E+03  0.37490488531E+03  0.26285723077E+03 0.  0.
         25    1    4    4    0    0  0.14945281833E+02 -0.11576540156E+02  0.96058910680E+02  0.15884646723E+03  0.12509000000E+03 0.  0.
         25    1    3    3    0    0  0.21383413729E+02  0.80875871257E+02  0.23195552397E+03  0.27649417740E+03  0.12509000000E+03 0.  0.
         25    1    4    4    0    0 -0.36328695562E+02 -0.69299331101E+02  0.15783396500E+03  0.21605841807E+03  0.12509000000E+03 0.  0.
<mgrwt>
<rscale>  2 0.43390330E+03</rscale>
<asrwt>0</asrwt>
<pdfrwt beam="1">  1       21 0.83621135E-01 0.43390330E+03</pdfrwt>
<pdfrwt beam="2">  1       21 0.12172843E-01 0.43390330E+03</pdfrwt>
<totfact> 0.65919485E+04</totfact>
</mgrwt>
</event>
<event>
 7    0  0.4779893E-002  0.4611195E+03  0.7546771E-02  0.1024457E+00
         21   -1    0    0  502  501  0.00000000000E+00  0.00000000000E+00  0.17270734949E+03  0.17270734949E+03  0.00000000000E+00 0. -1.
         21   -1    0    0  501  502 -0.00000000000E+00 -0.00000000000E+00 -0.30779121155E+03  0.30779121155E+03  0.00000000000E+00 0. -1.
      99926    2    1    2    0    0  0.00000000000E+00 -0.14210854715E-13 -0.13508386206E+03  0.48049856105E+03  0.46111952613E+03 0.  0.
      99925    2    3    3    0    0 -0.45093915460E+02  0.67392101730E+02 -0.17505862622E+03  0.32615917380E+03  0.26298123023E+03 0.  0.
         25    1    4    4    0    0  0.44574789798E+01  0.38867894699E+02 -0.12100158728E+03  0.17838014066E+03  0.12509000000E+03 0.  0.
         25    1    3    3    0    0  0.45093915460E+02 -0.67392101730E+02  0.39974764158E+02  0.15433938725E+03  0.12509000000E+03 0.  0.
         25    1    4    4    0    0 -0.49551394440E+02  0.28524207031E+02 -0.54057038940E+02  0.14777903314E+03  0.12509000000E+03 0.  0.
<mgrwt>
<rscale>  2 0.46111953E+03</rscale>
<asrwt>0</asrwt>
<pdfrwt beam="1">  1       21 0.25398140E-01 0.46111953E+03</pdfrwt>
<pdfrwt beam="2">  1       21 0.45263413E-01 0.46111953E+03</pdfrwt>
<totfact> 0.63522186E+04</totfact>
</mgrwt>
</event>
<event>
 7    0  0.4779893E-002  0.4489388E+03  0.7546771E-02  0.1028039E+00
         21   -1    0    0  502  501  0.00000000000E+00  0.00000000000E+00  0.97874510222E+03  0.97874510222E+03  0.00000000000E+00 0. -1.
         21   -1    0    0  501  502 -0.00000000000E+00 -0.00000000000E+00 -0.51480723344E+02  0.51480723344E+02  0.00000000000E+00 0. -1.
      99926    2    1    2    0    0 -0.35527136788E-14  0.00000000000E+00  0.92726437887E+03  0.10302258256E+04  0.44893877458E+03 0.  0.
      99925    2    3    3    0    0  0.11603188265E+02  0.64089537306E+02  0.78117029081E+03  0.82716649079E+03  0.26407437868E+03 0.  0.
         25    1    3    3    0    0 -0.11603188265E+02 -0.64089537306E+02  0.14609408807E+03  0.20305933477E+03  0.12509000000E+03 0.  0.
         25    1    4    4    0    0  0.33158523250E+02  0.99579616300E+00  0.34078508050E+03  0.36453046302E+03  0.12509000000E+03 0.  0.
         25    1    4    4    0    0 -0.21555334984E+02  0.63093741143E+02  0.44038521030E+03  0.46263602777E+03  0.12509000000E+03 0.  0.
<mgrwt>
<rscale>  2 0.44893877E+03</rscale>
<asrwt>0</asrwt>
<pdfrwt beam="1">  1       21 0.14393309E+00 0.44893877E+03</pdfrwt>
<pdfrwt beam="2">  1       21 0.75706952E-02 0.44893877E+03</pdfrwt>
<totfact> 0.39864661E+04</totfact>
</mgrwt>
</event>
<event>
 7    0  0.4779893E-002  0.4528464E+03  0.7546771E-02  0.1026877E+00
         21   -1    0    0  502  501  0.00000000000E+00  0.00000000000E+00  0.30598967001E+02  0.30598967001E+02  0.00000000000E+00 0. -1.
         21   -1    0    0  501  502 -0.00000000000E+00 -0.00000000000E+00 -0.16754640699E+04  0.16754640699E+04  0.00000000000E+00 0. -1.
      99926    2    1    2    0    0  0.00000000000E+00 -0.14210854715E-13 -0.16448651029E+04  0.17060630369E+04  0.45284641894E+03 0.  0.
      99925    2    3    3    0    0  0.42229287014E+02  0.85529396636E+02 -0.82351047390E+03  0.86977987610E+03  0.26315193685E+03 0.  0.
         25    1    3    3    0    0 -0.42229287014E+02 -0.85529396636E+02 -0.82135462899E+03  0.83628316080E+03  0.12509000000E+03 0.  0.
         25    1    4    4    0    0  0.33402423014E+02  0.10261491928E+02 -0.45902101001E+03  0.47704173383E+03  0.12509000000E+03 0.  0.
         25    1    4    4    0    0  0.88268639993E+01  0.75267904708E+02 -0.36448946389E+03  0.39273814227E+03  0.12509000000E+03 0.  0.
<mgrwt>
<rscale>  2 0.45284642E+03</rscale>
<asrwt>0</asrwt>
<pdfrwt beam="1">  1       21 0.44998488E-02 0.45284642E+03</pdfrwt>
<pdfrwt beam="2">  1       21 0.24639174E+00 0.45284642E+03</pdfrwt>
<totfact> 0.19459234E+04</totfact>
</mgrwt>
</event>
<event>
 7    0  0.4779893E-002  0.4566663E+03  0.7546771E-02  0.1025753E+00
         21   -1    0    0  502  501  0.00000000000E+00  0.00000000000E+00  0.90515342878E+03  0.90515342878E+03  0.00000000000E+00 0.  1.
         21   -1    0    0  501  502 -0.00000000000E+00 -0.00000000000E+00 -0.57599095151E+02  0.57599095151E+02  0.00000000000E+00 0.  1.
      99926    2    1    2    0    0  0.00000000000E+00  0.00000000000E+00  0.84755433363E+03  0.96275252393E+03  0.45666626094E+03 0.  0.
      99925    2    3    3    0    0 -0.11282010857E+03 -0.19196891764E+02  0.51358190268E+03  0.58821014945E+03  0.26292187357E+03 0.  0.
         25    1    3    3    0    0  0.11282010857E+03  0.19196891764E+02  0.33397243094E+03  0.37454237448E+03  0.12509000000E+03 0.  0.
         25    1    4    4    0    0 -0.79780154805E+02 -0.44099798131E+02  0.28869182053E+03  0.32756700175E+03  0.12509000000E+03 0.  0.
         25    1    4    4    0    0 -0.33039953766E+02  0.24902906367E+02  0.22489008216E+03  0.26064314770E+03  0.12509000000E+03 0.  0.
<mgrwt>
<rscale>  2 0.45666626E+03</rscale>
<asrwt>0</asrwt>
<pdfrwt beam="1">  1       21 0.13311079E+00 0.45666626E+03</pdfrwt>
<pdfrwt beam="2">  1       21 0.84704557E-02 0.45666626E+03</pdfrwt>
<totfact> 0.40103698E+04</totfact>
</mgrwt>
</event>
<event>
 7    0  0.4779893E-002  0.4756598E+03  0.7546771E-02  0.1020335E+00
         21   -1    0    0  502  501  0.00000000000E+00  0.00000000000E+00  0.29732044159E+02  0.29732044159E+02  0.00000000000E+00 0.  1.
         21   -1    0    0  501  502 -0.00000000000E+00 -0.00000000000E+00 -0.19024277334E+04  0.19024277334E+04  0.00000000000E+00 0.  1.
      99926    2    1    2    0    0  0.71054273576E-14  0.14210854715E-13 -0.18726956893E+04  0.19321597776E+04  0.47565981701E+03 0.  0.
      99925    2    3    3    0    0 -0.40130899919E+02 -0.12426085341E+03 -0.12251165267E+04  0.12598075420E+04  0.26297013147E+03 0.  0.
         25    1    4    4    0    0 -0.38067443227E+02 -0.40638780957E+02 -0.71351585569E+03  0.72653494422E+03  0.12509000000E+03 0.  0.
         25    1    4    4    0    0 -0.20634566914E+01 -0.83622072450E+02 -0.51160067097E+03  0.53327259773E+03  0.12509000000E+03 0.  0.
         25    1    3    3    0    0  0.40130899919E+02  0.12426085341E+03 -0.64757916260E+03  0.67235223563E+03  0.12509000000E+03 0.  0.
<mgrwt>
<rscale>  2 0.47565982E+03</rscale>
<asrwt>0</asrwt>
<pdfrwt beam="1">  1       21 0.43723590E-02 0.47565982E+03</pdfrwt>
<pdfrwt beam="2">  1       21 0.27976881E+00 0.47565982E+03</pdfrwt>
<totfact> 0.12689112E+04</totfact>
</mgrwt>
</event>
<event>
 7    0  0.4779893E-002  0.4521720E+03  0.7546771E-02  0.1027076E+00
         21   -1    0    0  502  501  0.00000000000E+00  0.00000000000E+00  0.14685095067E+03  0.14685095067E+03  0.00000000000E+00 0. -1.
         21   -1    0    0  501  502 -0.00000000000E+00 -0.00000000000E+00 -0.34807313570E+03  0.34807313570E+03  0.00000000000E+00 0. -1.
      99926    2    1    2    0    0  0.71054273576E-14  0.00000000000E+00 -0.20122218503E+03  0.49492408637E+03  0.45217196233E+03 0.  0.
      99925    2    3    3    0    0  0.54672655854E+02  0.30092941040E+02 -0.22687336113E+03  0.35279676551E+03  0.26286755481E+03 0.  0.
         25    1    4    4    0    0  0.54508600225E+02 -0.11320714065E+02 -0.13407012181E+03  0.19162894282E+03  0.12509000000E+03 0.  0.
         25    1    4    4    0    0  0.16405562933E+00  0.41413655105E+02 -0.92803239317E+02  0.16116782269E+03  0.12509000000E+03 0.  0.
         25    1    3    3    0    0 -0.54672655854E+02 -0.30092941040E+02  0.25651176093E+02  0.14212732086E+03  0.12509000000E+03 0.  0.
<mgrwt>
<rscale>  2 0.45217196E+03</rscale>
<asrwt>0</asrwt>
<pdfrwt beam="1">  1       21 0.21595728E-01 0.45217196E+03</pdfrwt>
<pdfrwt beam="2">  1       21 0.51187226E-01 0.45217196E+03</pdfrwt>
<totfact> 0.67123059E+04</totfact>
</mgrwt>
</event>
<event>
 7    0  0.4779893E-002  0.4564779E+03  0.7546771E-02  0.1025808E+00
         21   -1    0    0  502  501  0.00000000000E+00  0.00000000000E+00  0.14544970171E+03  0.14544970171E+03  0.00000000000E+00 0.  1.
         21   -1    0    0  501  502 -0.00000000000E+00 -0.00000000000E+00 -0.35815145528E+03  0.35815145528E+03  0.00000000000E+00 0.  1.
      99926    2    1    2    0    0  0.00000000000E+00 -0.71054273576E-14 -0.21270175357E+03  0.50360115699E+03  0.45647791771E+03 0.  0.
      99925    2    3    3    0    0 -0.99636273633E+02 -0.56701227144E+02 -0.13536378812E+03  0.31713109188E+03  0.26288088200E+03 0.  0.
         25    1    3    3    0    0  0.99636273633E+02  0.56701227144E+02 -0.77337965455E+02  0.18647006511E+03  0.12509000000E+03 0.  0.
         25    1    4    4    0    0 -0.23680028449E+02  0.21677483431E+01 -0.43311573571E+02  0.13449477085E+03  0.12509000000E+03 0.  0.
         25    1    4    4    0    0 -0.75956245184E+02 -0.58868975487E+02 -0.92052214544E+02  0.18263632103E+03  0.12509000000E+03 0.  0.
<mgrwt>
<rscale>  2 0.45647792E+03</rscale>
<asrwt>0</asrwt>
<pdfrwt beam="1">  1       21 0.21389662E-01 0.45647792E+03</pdfrwt>
<pdfrwt beam="2">  1       21 0.52669331E-01 0.45647792E+03</pdfrwt>
<totfact> 0.64261227E+04</totfact>
</mgrwt>
</event>
<event>
 7    0  0.4779893E-002  0.4573560E+03  0.7546771E-02  0.1025551E+00
         21   -1    0    0  502  501  0.00000000000E+00  0.00000000000E+00  0.21247079258E+03  0.21247079258E+03  0.00000000000E+00 0. -1.
         21   -1    0    0  501  502 -0.00000000000E+00 -0.00000000000E+00 -0.24612146926E+03  0.24612146926E+03  0.00000000000E+00 0. -1.
      99926    2    1    2    0    0  0.00000000000E+00  0.00000000000E+00 -0.33650676684E+02  0.45859226183E+03  0.45735598233E+03 0.  0.
      99925    2    3    3    0    0  0.45634971038E+02  0.10407561221E+03 -0.12035999588E+01  0.28650331818E+03  0.26299889551E+03 0.  0.
         25    1    3    3    0    0 -0.45634971038E+02 -0.10407561221E+03 -0.32447076725E+02  0.17208894365E+03  0.12509000000E+03 0.  0.
         25    1    4    4    0    0  0.44176484610E+02  0.73375513511E+02  0.28634532044E+02  0.15428211919E+03  0.12509000000E+03 0.  0.
         25    1    4    4    0    0  0.14584864277E+01  0.30700098699E+02 -0.29838132003E+02  0.13222119900E+03  0.12509000000E+03 0.  0.
<mgrwt>
<rscale>  2 0.45735598E+03</rscale>
<asrwt>0</asrwt>
<pdfrwt beam="1">  1       21 0.31245705E-01 0.45735598E+03</pdfrwt>
<pdfrwt beam="2">  1       21 0.36194334E-01 0.45735598E+03</pdfrwt>
<totfact> 0.67014842E+04</totfact>
</mgrwt>
</event>
<event>
 7    0  0.4779893E-002  0.4724109E+03  0.7546771E-02  0.1021242E+00
         21   -1    0    0  502  501  0.00000000000E+00  0.00000000000E+00  0.71068287665E+03  0.71068287665E+03  0.00000000000E+00 0.  1.
         21   -1    0    0  501  502 -0.00000000000E+00 -0.00000000000E+00 -0.78506199807E+02  0.78506199807E+02  0.00000000000E+00 0.  1.
      99926    2    1    2    0    0  0.00000000000E+00 -0.14210854715E-13  0.63217667684E+03  0.78918907646E+03  0.47241088859E+03 0.  0.
      99925    2    3    3    0    0  0.45683812746E+02  0.72026882278E+02  0.55302726659E+03  0.61834698632E+03  0.26313296142E+03 0.  0.
         25    1    4    4    0    0  0.13043932428E+02  0.76584520760E+02  0.29551972676E+03  0.33017381786E+03  0.12509000000E+03 0.  0.
         25    1    4    4    0    0  0.32639880319E+02 -0.45576384818E+01  0.25750753983E+03  0.28817316846E+03  0.12509000000E+03 0.  0.
         25    1    3    3    0    0 -0.45683812746E+02 -0.72026882278E+02  0.79149410255E+02  0.17084209013E+03  0.12509000000E+03 0.  0.
<mgrwt>
<rscale>  2 0.47241089E+03</rscale>
<asrwt>0</asrwt>
<pdfrwt beam="1">  1       21 0.10451218E+00 0.47241089E+03</pdfrwt>
<pdfrwt beam="2">  1       21 0.11545030E-01 0.47241089E+03</pdfrwt>
<totfact> 0.42220413E+04</totfact>
</mgrwt>
</event>
<event>
 7    0  0.4779893E-002  0.4517282E+03  0.7546771E-02  0.1027208E+00
         21   -1    0    0  502  501  0.00000000000E+00  0.00000000000E+00  0.11435773047E+04  0.11435773047E+04  0.00000000000E+00 0. -1.
         21   -1    0    0  501  502 -0.00000000000E+00 -0.00000000000E+00 -0.44609665417E+02  0.44609665417E+02  0.00000000000E+00 0. -1.
      99926    2    1    2    0    0  0.00000000000E+00  0.00000000000E+00  0.10989676393E+04  0.11881869701E+04  0.45172824105E+03 0.  0.
      99925    2    3    3    0    0 -0.94507278626E+02  0.55116534918E+02  0.72562210267E+03  0.77952591748E+03  0.26299004164E+03 0.  0.
         25    1    4    4    0    0 -0.84940900162E+02  0.49012809799E+02  0.38788507064E+03  0.41918915560E+03  0.12509000000E+03 0.  0.
         25    1    3    3    0    0  0.94507278626E+02 -0.55116534918E+02  0.37334553659E+03  0.40866105261E+03  0.12509000000E+03 0.  0.
         25    1    4    4    0    0 -0.95663784638E+01  0.61037251190E+01  0.33773703203E+03  0.36033676188E+03  0.12509000000E+03 0.  0.
<mgrwt>
<rscale>  2 0.45172824E+03</rscale>
<asrwt>0</asrwt>
<pdfrwt beam="1">  1       21 0.16817311E+00 0.45172824E+03</pdfrwt>
<pdfrwt beam="2">  1       21 0.65602457E-02 0.45172824E+03</pdfrwt>
<totfact> 0.33375253E+04</totfact>
</mgrwt>
</event>
<event>
 7    0  0.4779893E-002  0.4446067E+03  0.7546771E-02  0.1029343E+00
         21   -1    0    0  502  501  0.00000000000E+00  0.00000000000E+00  0.36548195703E+03  0.36548195703E+03  0.00000000000E+00 0. -1.
         21   -1    0    0  501  502 -0.00000000000E+00 -0.00000000000E+00 -0.13521534776E+03  0.13521534776E+03  0.00000000000E+00 0. -1.
      99926    2    1    2    0    0 -0.35527136788E-14  0.00000000000E+00  0.23026660927E+03  0.50069730479E+03  0.44460665726E+03 0.  0.
      99925    2    3    3    0    0 -0.28450073057E+02 -0.68210597679E+02  0.22714134011E+03  0.35537226325E+03  0.26312385830E+03 0.  0.
         25    1    4    4    0    0  0.21777374889E+02 -0.34294576743E+02  0.85197801169E+02  0.15670528222E+03  0.12509000000E+03 0.  0.
         25    1    4    4    0    0 -0.50227447947E+02 -0.33916020936E+02  0.14194353894E+03  0.19866698103E+03  0.12509000000E+03 0.  0.
         25    1    3    3    0    0  0.28450073057E+02  0.68210597679E+02  0.31252691577E+01  0.14532504154E+03  0.12509000000E+03 0.  0.
<mgrwt>
<rscale>  2 0.44460666E+03</rscale>
<asrwt>0</asrwt>
<pdfrwt beam="1">  1       21 0.53747347E-01 0.44460666E+03</pdfrwt>
<pdfrwt beam="2">  1       21 0.19884610E-01 0.44460666E+03</pdfrwt>
<totfact> 0.70891622E+04</totfact>
</mgrwt>
</event>
<event>
 7    0  0.4779893E-002  0.4593025E+03  0.7546771E-02  0.1024984E+00
         21   -1    0    0  502  501  0.00000000000E+00  0.00000000000E+00  0.22233044896E+04  0.22233044896E+04  0.00000000000E+00 0. -1.
         21   -1    0    0  501  502 -0.00000000000E+00 -0.00000000000E+00 -0.23721314930E+02  0.23721314930E+02  0.00000000000E+00 0. -1.
      99926    2    1    2    0    0  0.00000000000E+00 -0.88817841970E-15  0.21995831746E+04  0.22470258045E+04  0.45930254074E+03 0.  0.
      99925    2    3    3    0    0  0.76596520638E+02  0.51580001440E+01  0.18116333569E+04  0.18322412808E+04  0.26305714055E+03 0.  0.
         25    1    4    4    0    0  0.78624448330E+02 -0.59015162165E+01  0.10381877721E+04  0.10486648606E+04  0.12509000000E+03 0.  0.
         25    1    4    4    0    0 -0.20279276925E+01  0.11059516360E+02  0.77344558482E+03  0.78357642012E+03  0.12509000000E+03 0.  0.
         25    1    3    3    0    0 -0.76596520638E+02 -0.51580001440E+01  0.38794981774E+03  0.41478452373E+03  0.12509000000E+03 0.  0.
<mgrwt>
<rscale>  2 0.45930254E+03</rscale>
<asrwt>0</asrwt>
<pdfrwt beam="1">  1       21 0.32695640E+00 0.45930254E+03</pdfrwt>
<pdfrwt beam="2">  1       21 0.34884302E-02 0.45930254E+03</pdfrwt>
<totfact> 0.97496886E+03</totfact>
</mgrwt>
</event>
<event>
 7    0  0.4779893E-002  0.4866366E+03  0.7546771E-02  0.1017327E+00
         21   -1    0    0  502  501  0.00000000000E+00  0.00000000000E+00  0.23027359784E+02  0.23027359784E+02  0.00000000000E+00 0.  1.
         21   -1    0    0  501  502 -0.00000000000E+00 -0.00000000000E+00 -0.25710193779E+04  0.25710193779E+04  0.00000000000E+00 0.  1.
      99926    2    1    2    0    0  0.17763568394E-14 -0.71054273576E-14 -0.25479920181E+04  0.25940467376E+04  0.48663657169E+03 0.  0.
      99925    2    3    3    0    0 -0.12945196926E+02  0.59969551517E+02 -0.88464435772E+03  0.92487422632E+03  0.26274087927E+03 0.  0.
         25    1    3    3    0    0  0.12945196926E+02 -0.59969551517E+02 -0.16633476603E+04  0.16691725113E+04  0.12509000000E+03 0.  0.
         25    1    4    4    0    0 -0.44738473813E+01  0.21138340978E+01 -0.52277394122E+03  0.53755426268E+03  0.12509000000E+03 0.  0.
         25    1    4    4    0    0 -0.84713495452E+01  0.57855717420E+02 -0.36187041650E+03  0.38731996365E+03  0.12509000000E+03 0.  0.
<mgrwt>
<rscale>  2 0.48663657E+03</rscale>
<asrwt>0</asrwt>
<pdfrwt beam="1">  1       21 0.33863774E-02 0.48663657E+03</pdfrwt>
<pdfrwt beam="2">  1       21 0.37809097E+00 0.48663657E+03</pdfrwt>
<totfact> 0.48967111E+03</totfact>
</mgrwt>
</event>
<event>
 7    0  0.4779893E-002  0.4513995E+03  0.7546771E-02  0.1027306E+00
         21   -1    0    0  502  501  0.00000000000E+00  0.00000000000E+00  0.49502001262E+03  0.49502001262E+03  0.00000000000E+00 0. -1.
         21   -1    0    0  501  502 -0.00000000000E+00 -0.00000000000E+00 -0.10290569032E+03  0.10290569032E+03  0.00000000000E+00 0. -1.
      99926    2    1    2    0    0  0.00000000000E+00  0.00000000000E+00  0.39211432229E+03  0.59792570294E+03  0.45139949545E+03 0.  0.
      99925    2    3    3    0    0  0.65214769563E+02 -0.75912214924E+02  0.30725671552E+03  0.41664152803E+03  0.26299780057E+03 0.  0.
         25    1    4    4    0    0  0.50391579000E+02 -0.48837167971E+02  0.21388207823E+03  0.25752171112E+03  0.12509000000E+03 0.  0.
         25    1    4    4    0    0  0.14823190563E+02 -0.27075046953E+02  0.93374637285E+02  0.15911981691E+03  0.12509000000E+03 0.  0.
         25    1    3    3    0    0 -0.65214769563E+02  0.75912214924E+02  0.84857606774E+02  0.18128417491E+03  0.12509000000E+03 0.  0.
<mgrwt>
<rscale>  2 0.45139950E+03</rscale>
<asrwt>0</asrwt>
<pdfrwt beam="1">  1       21 0.72797060E-01 0.45139950E+03</pdfrwt>
<pdfrwt beam="2">  1       21 0.15133190E-01 0.45139950E+03</pdfrwt>
<totfact> 0.60509315E+04</totfact>
</mgrwt>
</event>
<event>
 7    0  0.4779893E-002  0.4522357E+03  0.7546771E-02  0.1027057E+00
         21   -1    0    0  502  501  0.00000000000E+00  0.00000000000E+00  0.29711055090E+02  0.29711055090E+02  0.00000000000E+00 0.  1.
         21   -1    0    0  501  502 -0.00000000000E+00 -0.00000000000E+00 -0.17208839010E+04  0.17208839010E+04  0.00000000000E+00 0.  1.
      99926    2    1    2    0    0  0.00000000000E+00  0.00000000000E+00 -0.16911728459E+04  0.17505949561E+04  0.45223567478E+03 0.  0.
      99925    2    3    3    0    0 -0.55095828240E+02  0.86193251749E+02 -0.90313308993E+03  0.94615789078E+03  0.26286983323E+03 0.  0.
         25    1    4    4    0    0 -0.62830405277E+02  0.36931590863E+02 -0.53210759047E+03  0.55145044942E+03  0.12509000000E+03 0.  0.
         25    1    3    3    0    0  0.55095828240E+02 -0.86193251749E+02 -0.78803975596E+03  0.80443706529E+03  0.12509000000E+03 0.  0.
         25    1    4    4    0    0  0.77345770371E+01  0.49261660887E+02 -0.37102549946E+03  0.39470744136E+03  0.12509000000E+03 0.  0.
<mgrwt>
<rscale>  2 0.45223567E+03</rscale>
<asrwt>0</asrwt>
<pdfrwt beam="1">  1       21 0.43692707E-02 0.45223567E+03</pdfrwt>
<pdfrwt beam="2">  1       21 0.25307128E+00 0.45223567E+03</pdfrwt>
<totfact> 0.18624872E+04</totfact>
</mgrwt>
</event>
<event>
 7    0  0.4779893E-002  0.4336908E+03  0.7546771E-02  0.1032700E+00
         21   -1    0    0  502  501  0.00000000000E+00  0.00000000000E+00  0.29299571417E+03  0.29299571417E+03  0.00000000000E+00 0. -1.
         21   -1    0    0  501  502 -0.00000000000E+00 -0.00000000000E+00 -0.16048677625E+03  0.16048677625E+03  0.00000000000E+00 0. -1.
      99926    2    1    2    0    0 -0.14210854715E-13  0.35527136788E-14  0.13250893792E+03  0.45348249041E+03  0.43369084667E+03 0.  0.
      99925    2    3    3    0    0 -0.83238042284E+02  0.20944708240E+02  0.11989463877E+03  0.30125279184E+03  0.26269995755E+03 0.  0.
         25    1    4    4    0    0 -0.42197586741E+02  0.49801920836E+02  0.70312185652E+02  0.15764573955E+03  0.12509000000E+03 0.  0.
         25    1    3    3    0    0  0.83238042284E+02 -0.20944708240E+02  0.12614299152E+02  0.15222969858E+03  0.12509000000E+03 0.  0.
         25    1    4    4    0    0 -0.41040455542E+02 -0.28857212596E+02  0.49582453120E+02  0.14360705229E+03  0.12509000000E+03 0.  0.
<mgrwt>
<rscale>  2 0.43369085E+03</rscale>
<asrwt>0</asrwt>
<pdfrwt beam="1">  1       21 0.43087605E-01 0.43369085E+03</pdfrwt>
<pdfrwt beam="2">  1       21 0.23600997E-01 0.43369085E+03</pdfrwt>
<totfact> 0.81636155E+04</totfact>
</mgrwt>
</event>
<event>
 7    0  0.4779893E-002  0.4302823E+03  0.7546771E-02  0.1033771E+00
         21   -1    0    0  502  501  0.00000000000E+00  0.00000000000E+00  0.85562728816E+02  0.85562728816E+02  0.00000000000E+00 0.  1.
         21   -1    0    0  501  502 -0.00000000000E+00 -0.00000000000E+00 -0.54095656704E+03  0.54095656704E+03  0.00000000000E+00 0.  1.
      99926    2    1    2    0    0  0.35527136788E-14  0.71054273576E-14 -0.45539383822E+03  0.62651929586E+03  0.43028232614E+03 0.  0.
      99925    2    3    3    0    0  0.19684613631E+02  0.51323798159E+02 -0.19332223033E+03  0.33096785865E+03  0.26295365076E+03 0.  0.
         25    1    3    3    0    0 -0.19684613631E+02 -0.51323798159E+02 -0.26207160789E+03  0.29555143721E+03  0.12509000000E+03 0.  0.
         25    1    4    4    0    0  0.25410050176E+02 -0.11697189356E+02 -0.99794277256E+02  0.16244660896E+03  0.12509000000E+03 0.  0.
         25    1    4    4    0    0 -0.57254365448E+01  0.63020987515E+02 -0.93527953073E+02  0.16852124969E+03  0.12509000000E+03 0.  0.
<mgrwt>
<rscale>  2 0.43028233E+03</rscale>
<asrwt>0</asrwt>
<pdfrwt beam="1">  1       21 0.12582754E-01 0.43028233E+03</pdfrwt>
<pdfrwt beam="2">  1       21 0.79552439E-01 0.43028233E+03</pdfrwt>
<totfact> 0.69710951E+04</totfact>
</mgrwt>
</event>
<event>
 7    0  0.4779893E-002  0.4396093E+03  0.7546771E-02  0.1030867E+00
         21   -1    0    0  502  501  0.00000000000E+00  0.00000000000E+00  0.15591008354E+04  0.15591008354E+04  0.00000000000E+00 0. -1.
         21   -1    0    0  501  502 -0.00000000000E+00 -0.00000000000E+00 -0.30988433294E+02  0.30988433294E+02  0.00000000000E+00 0. -1.
      99926    2    1    2    0    0  0.71054273576E-14  0.88817841970E-15  0.15281124021E+04  0.15900892687E+04  0.43960933674E+03 0.  0.
      99925    2    3    3    0    0  0.42062829316E+02 -0.62535337967E+01  0.65568752363E+03  0.70771686150E+03  0.26292325708E+03 0.  0.
         25    1    3    3    0    0 -0.42062829316E+02  0.62535337967E+01  0.87242487852E+03  0.88237240723E+03  0.12509000000E+03 0.  0.
         25    1    4    4    0    0  0.92607156037E+01  0.25678164158E+02  0.39052594117E+03  0.41097828142E+03  0.12509000000E+03 0.  0.
         25    1    4    4    0    0  0.32802113712E+02 -0.31931697955E+02  0.26516158245E+03  0.29673858008E+03  0.12509000000E+03 0.  0.
<mgrwt>
<rscale>  2 0.43960934E+03</rscale>
<asrwt>0</asrwt>
<pdfrwt beam="1">  1       21 0.22927948E+00 0.43960934E+03</pdfrwt>
<pdfrwt beam="2">  1       21 0.45571236E-02 0.43960934E+03</pdfrwt>
<totfact> 0.24448678E+04</totfact>
</mgrwt>
</event>
<event>
 7    0  0.4779893E-002  0.4562592E+03  0.7546771E-02  0.1025872E+00
         21   -1    0    0  502  501  0.00000000000E+00  0.00000000000E+00  0.44284016705E+03  0.44284016705E+03  0.00000000000E+00 0.  1.
         21   -1    0    0  501  502 -0.00000000000E+00 -0.00000000000E+00 -0.11752120291E+03  0.11752120291E+03  0.00000000000E+00 0.  1.
      99926    2    1    2    0    0 -0.14210854715E-13  0.71054273576E-14  0.32531896414E+03  0.56036136996E+03  0.45625917690E+03 0.  0.
      99925    2    3    3    0    0 -0.76509046961E+02  0.49990401442E+02  0.12009584882E+03  0.30322967283E+03  0.26300674341E+03 0.  0.
         25    1    4    4    0    0 -0.15651374179E+02  0.47387737234E+02  0.86613300870E+02  0.16012474868E+03  0.12509000000E+03 0.  0.
         25    1    4    4    0    0 -0.60857672782E+02  0.26026642080E+01  0.33482547948E+02  0.14310492414E+03  0.12509000000E+03 0.  0.
         25    1    3    3    0    0  0.76509046961E+02 -0.49990401442E+02  0.20522311533E+03  0.25713169713E+03  0.12509000000E+03 0.  0.
<mgrwt>
<rscale>  2 0.45625918E+03</rscale>
<asrwt>0</asrwt>
<pdfrwt beam="1">  1       21 0.65123554E-01 0.45625918E+03</pdfrwt>
<pdfrwt beam="2">  1       21 0.17282530E-01 0.45625918E+03</pdfrwt>
<totfact> 0.60581332E+04</totfact>
</mgrwt>
</event>
<event>
 7    0  0.4779893E-002  0.4592819E+03  0.7546771E-02  0.1024990E+00
         21   -1    0    0  502  501  0.00000000000E+00  0.00000000000E+00  0.18108853700E+03  0.18108853700E+03  0.00000000000E+00 0. -1.
         21   -1    0    0  501  502 -0.00000000000E+00 -0.00000000000E+00 -0.29121094346E+03  0.29121094346E+03  0.00000000000E+00 0. -1.
      99926    2    1    2    0    0  0.17763568394E-14  0.00000000000E+00 -0.11012240646E+03  0.47229948046E+03  0.45928189039E+03 0.  0.
      99925    2    3    3    0    0 -0.96589902761E+01 -0.45773249167E+02  0.41172765138E+02  0.27049208842E+03  0.26321528618E+03 0.  0.
         25    1    3    3    0    0  0.96589902761E+01  0.45773249167E+02 -0.15129517160E+03  0.20180739204E+03  0.12509000000E+03 0.  0.
         25    1    4    4    0    0  0.17510071096E+02 -0.51587712830E+02  0.40605231688E+02  0.14235233628E+03  0.12509000000E+03 0.  0.
         25    1    4    4    0    0 -0.27169061372E+02  0.58144636630E+01  0.56753344929E+00  0.12813975214E+03  0.12509000000E+03 0.  0.
<mgrwt>
<rscale>  2 0.45928189E+03</rscale>
<asrwt>0</asrwt>
<pdfrwt beam="1">  1       21 0.26630667E-01 0.45928189E+03</pdfrwt>
<pdfrwt beam="2">  1       21 0.42825138E-01 0.45928189E+03</pdfrwt>
<totfact> 0.65028085E+04</totfact>
</mgrwt>
</event>
<event>
 7    0  0.4779893E-002  0.4575319E+03  0.7546771E-02  0.1025499E+00
         21   -1    0    0  502  501  0.00000000000E+00  0.00000000000E+00  0.74948594877E+03  0.74948594877E+03  0.00000000000E+00 0.  1.
         21   -1    0    0  501  502 -0.00000000000E+00 -0.00000000000E+00 -0.69826333571E+02  0.69826333571E+02  0.00000000000E+00 0.  1.
      99926    2    1    2    0    0  0.00000000000E+00  0.00000000000E+00  0.67965961520E+03  0.81931228234E+03  0.45753188245E+03 0.  0.
      99925    2    3    3    0    0  0.34916532796E+02 -0.88439879554E+02  0.30973819324E+03  0.41740415468E+03  0.26314958376E+03 0.  0.
         25    1    3    3    0    0 -0.34916532796E+02  0.88439879554E+02  0.36992142195E+03  0.40190812766E+03  0.12509000000E+03 0.  0.
         25    1    4    4    0    0  0.33074024903E+02 -0.48797910665E+02  0.10258883391E+03  0.17218334458E+03  0.12509000000E+03 0.  0.
         25    1    4    4    0    0  0.18425078924E+01 -0.39641968889E+02  0.20714935933E+03  0.24522081010E+03  0.12509000000E+03 0.  0.
<mgrwt>
<rscale>  2 0.45753188E+03</rscale>
<asrwt>0</asrwt>
<pdfrwt beam="1">  1       21 0.11021852E+00 0.45753188E+03</pdfrwt>
<pdfrwt beam="2">  1       21 0.10268579E-01 0.45753188E+03</pdfrwt>
<totfact> 0.45925627E+04</totfact>
</mgrwt>
</event>
<event>
 7    0  0.4779893E-002  0.4396823E+03  0.7546771E-02  0.1030844E+00
         21   -1    0    0  502  501  0.00000000000E+00  0.00000000000E+00  0.98964466353E+02  0.98964466353E+02  0.00000000000E+00 0. -1.
         21   -1    0    0  501  502 -0.00000000000E+00 -0.00000000000E+00 -0.48835849804E+03  0.48835849804E+03  0.00000000000E+00 0. -1.
      99926    2    1    2    0    0 -0.71054273576E-14 -0.71054273576E-14 -0.38939403168E+03  0.58732296439E+03  0.43968233145E+03 0.  0.
      99925    2    3    3    0    0 -0.62414238912E+02 -0.45821495869E+02 -0.16826068893E+03  0.32172437614E+03  0.26305848791E+03 0.  0.
         25    1    3    3    0    0  0.62414238912E+02  0.45821495869E+02 -0.22113334276E+03  0.26559858825E+03  0.12509000000E+03 0.  0.
         25    1    4    4    0    0 -0.12613664632E+02  0.12634383899E+02 -0.63677555303E+02  0.14149583507E+03  0.12509000000E+03 0.  0.
         25    1    4    4    0    0 -0.49800574280E+02 -0.58455879768E+02 -0.10458313362E+03  0.18022854107E+03  0.12509000000E+03 0.  0.
<mgrwt>
<rscale>  2 0.43968233E+03</rscale>
<asrwt>0</asrwt>
<pdfrwt beam="1">  1       21 0.14553598E-01 0.43968233E+03</pdfrwt>
<pdfrwt beam="2">  1       21 0.71817427E-01 0.43968233E+03</pdfrwt>
<totfact> 0.67244049E+04</totfact>
</mgrwt>
</event>
<event>
 7    0  0.4779893E-002  0.4524367E+03  0.7546771E-02  0.1026998E+00
         21   -1    0    0  502  501  0.00000000000E+00  0.00000000000E+00  0.48254420928E+03  0.48254420928E+03  0.00000000000E+00 0. -1.
         21   -1    0    0  501  502 -0.00000000000E+00 -0.00000000000E+00 -0.10605193945E+03  0.10605193945E+03  0.00000000000E+00 0. -1.
      99926    2    1    2    0    0  0.00000000000E+00  0.14210854715E-13  0.37649226983E+03  0.58859614873E+03  0.45243673266E+03 0.  0.
      99925    2    3    3    0    0 -0.23158098253E+02  0.10678420872E+03  0.21465700766E+03  0.35669676337E+03  0.26308893043E+03 0.  0.
         25    1    4    4    0    0 -0.13913378348E+02  0.85778559299E+02  0.15100351529E+03  0.21447870072E+03  0.12509000000E+03 0.  0.
         25    1    4    4    0    0 -0.92447199046E+01  0.21005649423E+02  0.63653492375E+02  0.14221806266E+03  0.12509000000E+03 0.  0.
         25    1    3    3    0    0  0.23158098253E+02 -0.10678420872E+03  0.16183526217E+03  0.23189938536E+03  0.12509000000E+03 0.  0.
<mgrwt>
<rscale>  2 0.45243673E+03</rscale>
<asrwt>0</asrwt>
<pdfrwt beam="1">  1       21 0.70962383E-01 0.45243673E+03</pdfrwt>
<pdfrwt beam="2">  1       21 0.15595874E-01 0.45243673E+03</pdfrwt>
<totfact> 0.60604257E+04</totfact>
</mgrwt>
</event>
<event>
 7    0  0.4779893E-002  0.4548042E+03  0.7546771E-02  0.1026299E+00
         21   -1    0    0  502  501  0.00000000000E+00  0.00000000000E+00  0.53018291392E+02  0.53018291392E+02  0.00000000000E+00 0. -1.
         21   -1    0    0  501  502 -0.00000000000E+00 -0.00000000000E+00 -0.97535606133E+03  0.97535606133E+03  0.00000000000E+00 0. -1.
      99926    2    1    2    0    0  0.00000000000E+00  0.00000000000E+00 -0.92233776994E+03  0.10283743527E+04  0.45480418587E+03 0.  0.
      99925    2    3    3    0    0 -0.27973691943E+02  0.66437489286E+02 -0.77739801771E+03  0.82379794328E+03  0.26286670766E+03 0.  0.
         25    1    4    4    0    0  0.64512982310E+00  0.62870632309E+02 -0.33308347201E+03  0.36131044826E+03  0.12509000000E+03 0.  0.
         25    1    4    4    0    0 -0.28618821766E+02  0.35668569770E+01 -0.44431454570E+03  0.46248749502E+03  0.12509000000E+03 0.  0.
         25    1    3    3    0    0  0.27973691943E+02 -0.66437489286E+02 -0.14493975224E+03  0.20457640945E+03  0.12509000000E+03 0.  0.
<mgrwt>
<rscale>  2 0.45480419E+03</rscale>
<asrwt>0</asrwt>
<pdfrwt beam="1">  1       21 0.77968074E-02 0.45480419E+03</pdfrwt>
<pdfrwt beam="2">  1       21 0.14343472E+00 0.45480419E+03</pdfrwt>
<totfact> 0.38139318E+04</totfact>
</mgrwt>
</event>
<event>
 7    0  0.4779893E-002  0.4480227E+03  0.7546771E-02  0.1028313E+00
         21   -1    0    0  502  501  0.00000000000E+00  0.00000000000E+00  0.26952263329E+03  0.26952263329E+03  0.00000000000E+00 0.  1.
         21   -1    0    0  501  502 -0.00000000000E+00 -0.00000000000E+00 -0.18618506657E+03  0.18618506657E+03  0.00000000000E+00 0.  1.
      99926    2    1    2    0    0  0.00000000000E+00  0.11102230246E-14  0.83337566719E+02  0.45570769986E+03  0.44802272005E+03 0.  0.
      99925    2    3    3    0    0 -0.10653856156E+03 -0.15785995166E+01  0.59142467286E+02  0.28961776033E+03  0.26273115268E+03 0.  0.
         25    1    4    4    0    0 -0.30897954325E+02  0.10251758030E+02 -0.54338811689E+01  0.12937085177E+03  0.12509000000E+03 0.  0.
         25    1    3    3    0    0  0.10653856156E+03  0.15785995166E+01  0.24195099432E+02  0.16608993953E+03  0.12509000000E+03 0.  0.
         25    1    4    4    0    0 -0.75640607234E+02 -0.11830357547E+02  0.64576348455E+02  0.16024690856E+03  0.12509000000E+03 0.  0.
<mgrwt>
<rscale>  2 0.44802272E+03</rscale>
<asrwt>0</asrwt>
<pdfrwt beam="1">  1       21 0.39635681E-01 0.44802272E+03</pdfrwt>
<pdfrwt beam="2">  1       21 0.27380157E-01 0.44802272E+03</pdfrwt>
<totfact> 0.72440865E+04</totfact>
</mgrwt>
</event>
<event>
 7    0  0.4779893E-002  0.4550061E+03  0.7546771E-02  0.1026240E+00
         21   -1    0    0  502  501  0.00000000000E+00  0.00000000000E+00  0.32036923687E+03  0.32036923687E+03  0.00000000000E+00 0. -1.
         21   -1    0    0  501  502 -0.00000000000E+00 -0.00000000000E+00 -0.16155618249E+03  0.16155618249E+03  0.00000000000E+00 0. -1.
      99926    2    1    2    0    0  0.00000000000E+00  0.00000000000E+00  0.15881305438E+03  0.48192541936E+03  0.45500606983E+03 0.  0.
      99925    2    3    3    0    0  0.21085244750E+02 -0.53221235861E+02  0.20332592264E+03  0.33733637748E+03  0.26301580420E+03 0.  0.
         25    1    4    4    0    0 -0.27011317929E+02 -0.41948142611E+02  0.10030796957E+03  0.16792395548E+03  0.12509000000E+03 0.  0.
         25    1    3    3    0    0 -0.21085244750E+02  0.53221235861E+02 -0.44512868254E+02  0.14458904188E+03  0.12509000000E+03 0.  0.
         25    1    4    4    0    0  0.48096562680E+02 -0.11273093250E+02  0.10301795307E+03  0.16941242200E+03  0.12509000000E+03 0.  0.
<mgrwt>
<rscale>  2 0.45500607E+03</rscale>
<asrwt>0</asrwt>
<pdfrwt beam="1">  1       21 0.47113123E-01 0.45500607E+03</pdfrwt>
<pdfrwt beam="2">  1       21 0.23758262E-01 0.45500607E+03</pdfrwt>
<totfact> 0.66557003E+04</totfact>
</mgrwt>
</event>
<event>
 7    0  0.4779893E-002  0.4538145E+03  0.7546771E-02  0.1026591E+00
         21   -1    0    0  502  501  0.00000000000E+00  0.00000000000E+00  0.36115805325E+03  0.36115805325E+03  0.00000000000E+00 0. -1.
         21   -1    0    0  501  502 -0.00000000000E+00 -0.00000000000E+00 -0.14256059772E+03  0.14256059772E+03  0.00000000000E+00 0. -1.
      99926    2    1    2    0    0  0.00000000000E+00 -0.14210854715E-13  0.21859745553E+03  0.50371865098E+03  0.45381453456E+03 0.  0.
      99925    2    3    3    0    0  0.85698088354E+02 -0.72444514102E+02  0.13647388367E+03  0.31667812294E+03  0.26280704454E+03 0.  0.
         25    1    4    4    0    0  0.81946523923E+02 -0.25230518510E+02  0.64681993955E+02  0.16487292164E+03  0.12509000000E+03 0.  0.
         25    1    3    3    0    0 -0.85698088354E+02  0.72444514102E+02  0.82123571861E+02  0.18704052803E+03  0.12509000000E+03 0.  0.
         25    1    4    4    0    0  0.37515644304E+01 -0.47213995592E+02  0.71791889711E+02  0.15180520131E+03  0.12509000000E+03 0.  0.
<mgrwt>
<rscale>  2 0.45381453E+03</rscale>
<asrwt>0</asrwt>
<pdfrwt beam="1">  1       21 0.53111478E-01 0.45381453E+03</pdfrwt>
<pdfrwt beam="2">  1       21 0.20964794E-01 0.45381453E+03</pdfrwt>
<totfact> 0.65625531E+04</totfact>
</mgrwt>
</event>
<event>
 7    0  0.4779893E-002  0.4599025E+03  0.7546771E-02  0.1024809E+00
         21   -1    0    0  502  501  0.00000000000E+00  0.00000000000E+00  0.50116494781E+02  0.50116494781E+02  0.00000000000E+00 0.  1.
         21   -1    0    0  501  502 -0.00000000000E+00 -0.00000000000E+00 -0.10550933638E+04  0.10550933638E+04  0.00000000000E+00 0.  1.
      99926    2    1    2    0    0  0.00000000000E+00  0.00000000000E+00 -0.10049768690E+04  0.11052098586E+04  0.45990251602E+03 0.  0.
      99925    2    3    3    0    0 -0.79655538886E+02  0.61188831332E+02 -0.77688231733E+03  0.82634840451E+03  0.26309023680E+03 0.  0.
         25    1    3    3    0    0  0.79655538886E+02 -0.61188831332E+02 -0.22809455167E+03  0.27886145405E+03  0.12509000000E+03 0.  0.
         25    1    4    4    0    0 -0.73617351929E+02  0.13131766022E+02 -0.45009586529E+03  0.47310226573E+03  0.12509000000E+03 0.  0.
         25    1    4    4    0    0 -0.60381869571E+01  0.48057065310E+02 -0.32678645204E+03  0.35324613879E+03  0.12509000000E+03 0.  0.
<mgrwt>
<rscale>  2 0.45990252E+03</rscale>
<asrwt>0</asrwt>
<pdfrwt beam="1">  1       21 0.73700724E-02 0.45990252E+03</pdfrwt>
<pdfrwt beam="2">  1       21 0.15516080E+00 0.45990252E+03</pdfrwt>
<totfact> 0.33995060E+04</totfact>
</mgrwt>
</event>
<event>
 7    0  0.4779893E-002  0.4308927E+03  0.7546771E-02  0.1033578E+00
         21   -1    0    0  502  501  0.00000000000E+00  0.00000000000E+00  0.40144958701E+02  0.40144958701E+02  0.00000000000E+00 0. -1.
         21   -1    0    0  501  502 -0.00000000000E+00 -0.00000000000E+00 -0.11562379995E+04  0.11562379995E+04  0.00000000000E+00 0. -1.
      99926    2    1    2    0    0  0.00000000000E+00  0.00000000000E+00 -0.11160930408E+04  0.11963829582E+04  0.43089268613E+03 0.  0.
      99925    2    3    3    0    0  0.26413028652E+02 -0.65121493029E+02 -0.86902327942E+03  0.91067430936E+03  0.26303570218E+03 0.  0.
         25    1    3    3    0    0 -0.26413028652E+02  0.65121493029E+02 -0.24706976142E+03  0.28570864888E+03  0.12509000000E+03 0.  0.
         25    1    4    4    0    0 -0.19365672208E+02 -0.14218436536E+02 -0.46922003274E+03  0.48620174869E+03  0.12509000000E+03 0.  0.
         25    1    4    4    0    0  0.45778700861E+02 -0.50903056493E+02 -0.39980324668E+03  0.42447256068E+03  0.12509000000E+03 0.  0.
<mgrwt>
<rscale>  2 0.43089269E+03</rscale>
<asrwt>0</asrwt>
<pdfrwt beam="1">  1       21 0.59036701E-02 0.43089269E+03</pdfrwt>
<pdfrwt beam="2">  1       21 0.17003501E+00 0.43089269E+03</pdfrwt>
<totfact> 0.39115219E+04</totfact>
</mgrwt>
</event>
<event>
 7    0  0.4779893E-002  0.4516601E+03  0.7546771E-02  0.1027228E+00
         21   -1    0    0  502  501  0.00000000000E+00  0.00000000000E+00  0.11539045747E+03  0.11539045747E+03  0.00000000000E+00 0.  1.
         21   -1    0    0  501  502 -0.00000000000E+00 -0.00000000000E+00 -0.44197081478E+03  0.44197081478E+03  0.00000000000E+00 0.  1.
      99926    2    1    2    0    0  0.00000000000E+00  0.00000000000E+00 -0.32658035731E+03  0.55736127226E+03  0.45166011339E+03 0.  0.
      99925    2    3    3    0    0 -0.99262598121E+02 -0.45639851665E+02 -0.22216573343E+03  0.36118282995E+03  0.26298168015E+03 0.  0.
         25    1    3    3    0    0  0.99262598121E+02  0.45639851665E+02 -0.10441462388E+03  0.19617844231E+03  0.12509000000E+03 0.  0.
         25    1    4    4    0    0 -0.81226114686E+01 -0.10563932807E+02 -0.10620275275E+03  0.16463324781E+03  0.12509000000E+03 0.  0.
         25    1    4    4    0    0 -0.91139986652E+02 -0.35075918858E+02 -0.11596298068E+03  0.19654958214E+03  0.12509000000E+03 0.  0.
<mgrwt>
<rscale>  2 0.45166011E+03</rscale>
<asrwt>0</asrwt>
<pdfrwt beam="1">  1       21 0.16969185E-01 0.45166011E+03</pdfrwt>
<pdfrwt beam="2">  1       21 0.64995709E-01 0.45166011E+03</pdfrwt>
<totfact> 0.63031520E+04</totfact>
</mgrwt>
</event>
<event>
 7    0  0.4779893E-002  0.4361143E+03  0.7546771E-02  0.1031946E+00
         21   -1    0    0  502  501  0.00000000000E+00  0.00000000000E+00  0.47318478849E+03  0.47318478849E+03  0.00000000000E+00 0.  1.
         21   -1    0    0  501  502 -0.00000000000E+00 -0.00000000000E+00 -0.10048700436E+03  0.10048700436E+03  0.00000000000E+00 0.  1.
      99926    2    1    2    0    0 -0.71054273576E-14  0.00000000000E+00  0.37269778413E+03  0.57367179286E+03  0.43611430569E+03 0.  0.
      99925    2    3    3    0    0  0.44940357261E+02 -0.54613923107E+02  0.32101038184E+03  0.42095829652E+03  0.26297510500E+03 0.  0.
         25    1    4    4    0    0  0.24212621960E+00 -0.50565006302E+01  0.19235366732E+03  0.22950613991E+03  0.12509000000E+03 0.  0.
         25    1    4    4    0    0  0.44698231041E+02 -0.49557422476E+02  0.12865671452E+03  0.19145215661E+03  0.12509000000E+03 0.  0.
         25    1    3    3    0    0 -0.44940357261E+02  0.54613923107E+02  0.51687402286E+02  0.15271349633E+03  0.12509000000E+03 0.  0.
<mgrwt>
<rscale>  2 0.43611431E+03</rscale>
<asrwt>0</asrwt>
<pdfrwt beam="1">  1       21 0.69585998E-01 0.43611431E+03</pdfrwt>
<pdfrwt beam="2">  1       21 0.14777501E-01 0.43611431E+03</pdfrwt>
<totfact> 0.70244943E+04</totfact>
</mgrwt>
</event>
<event>
 7    0  0.4779893E-002  0.4580691E+03  0.7546771E-02  0.1025343E+00
         21   -1    0    0  502  501  0.00000000000E+00  0.00000000000E+00  0.58318395134E+02  0.58318395134E+02  0.00000000000E+00 0.  1.
         21   -1    0    0  501  502 -0.00000000000E+00 -0.00000000000E+00 -0.89949001364E+03  0.89949001364E+03  0.00000000000E+00 0.  1.
      99926    2    1    2    0    0  0.00000000000E+00  0.00000000000E+00 -0.84117161851E+03  0.95780840878E+03  0.45806905172E+03 0.  0.
      99925    2    3    3    0    0 -0.92929119786E+01  0.10015597055E+03 -0.39951118333E+03  0.48788392042E+03  0.26135025837E+03 0.  0.
         25    1    4    4    0    0 -0.89537921571E+01  0.44818647598E+02 -0.26211988104E+03  0.29401228155E+03  0.12509000000E+03 0.  0.
         25    1    3    3    0    0  0.92929119786E+01 -0.10015597055E+03 -0.44166043518E+03  0.46992448836E+03  0.12509000000E+03 0.  0.
         25    1    4    4    0    0 -0.33911982154E+00  0.55337322957E+02 -0.13739130229E+03  0.19387163887E+03  0.12509000000E+03 0.  0.
<mgrwt>
<rscale>  2 0.45806905E+03</rscale>
<asrwt>0</asrwt>
<pdfrwt beam="1">  1       21 0.85762352E-02 0.45806905E+03</pdfrwt>
<pdfrwt beam="2">  1       21 0.13227793E+00 0.45806905E+03</pdfrwt>
<totfact> 0.39861061E+04</totfact>
</mgrwt>
</event>
<event>
 7    0  0.4779893E-002  0.4553999E+03  0.7546771E-02  0.1026124E+00
         21   -1    0    0  502  501  0.00000000000E+00  0.00000000000E+00  0.13230469284E+03  0.13230469284E+03  0.00000000000E+00 0.  1.
         21   -1    0    0  501  502 -0.00000000000E+00 -0.00000000000E+00 -0.39187776728E+03  0.39187776728E+03  0.00000000000E+00 0.  1.
      99926    2    1    2    0    0 -0.14210854715E-13  0.00000000000E+00 -0.25957307444E+03  0.52418246012E+03  0.45539990177E+03 0.  0.
      99925    2    3    3    0    0 -0.10801749471E+03 -0.34622448216E+02 -0.15998201598E+03  0.32814067859E+03  0.26308851443E+03 0.  0.
         25    1    3    3    0    0  0.10801749471E+03  0.34622448216E+02 -0.99591058458E+02  0.19604178154E+03  0.12509000000E+03 0.  0.
         25    1    4    4    0    0 -0.24391257796E+02  0.14345750015E+02 -0.73151155293E+02  0.14764597394E+03  0.12509000000E+03 0.  0.
         25    1    4    4    0    0 -0.83626236911E+02 -0.48968198231E+02 -0.86830860684E+02  0.18049470465E+03  0.12509000000E+03 0.  0.
<mgrwt>
<rscale>  2 0.45539990E+03</rscale>
<asrwt>0</asrwt>
<pdfrwt beam="1">  1       21 0.19456573E-01 0.45539990E+03</pdfrwt>
<pdfrwt beam="2">  1       21 0.57629083E-01 0.45539990E+03</pdfrwt>
<totfact> 0.63400797E+04</totfact>
</mgrwt>
</event>
<event>
 7    0  0.4779893E-002  0.4629481E+03  0.7546771E-02  0.1023930E+00
         21   -1    0    0  502  501  0.00000000000E+00  0.00000000000E+00  0.47389623958E+02  0.47389623958E+02  0.00000000000E+00 0. -1.
         21   -1    0    0  501  502 -0.00000000000E+00 -0.00000000000E+00 -0.11306320909E+04  0.11306320909E+04  0.00000000000E+00 0. -1.
      99926    2    1    2    0    0  0.00000000000E+00 -0.35527136788E-14 -0.10832424669E+04  0.11780217148E+04  0.46294807320E+03 0.  0.
      99925    2    3    3    0    0 -0.76276018280E+02 -0.31556975599E+02 -0.90009505475E+03  0.94136931920E+03  0.26304222831E+03 0.  0.
         25    1    4    4    0    0 -0.42561810099E+02 -0.29130094103E+02 -0.32856036562E+03  0.35533011696E+03  0.12509000000E+03 0.  0.
         25    1    4    4    0    0 -0.33714208181E+02 -0.24268814961E+01 -0.57153468913E+03  0.58603920224E+03  0.12509000000E+03 0.  0.
         25    1    3    3    0    0  0.76276018280E+02  0.31556975599E+02 -0.18314741216E+03  0.23665239563E+03  0.12509000000E+03 0.  0.
<mgrwt>
<rscale>  2 0.46294807E+03</rscale>
<asrwt>0</asrwt>
<pdfrwt beam="1">  1       21 0.69690627E-02 0.46294807E+03</pdfrwt>
<pdfrwt beam="2">  1       21 0.16626942E+00 0.46294807E+03</pdfrwt>
<totfact> 0.30901913E+04</totfact>
</mgrwt>
</event>
<event>
 7    0  0.4779893E-002  0.4565548E+03  0.7546771E-02  0.1025785E+00
         21   -1    0    0  502  501  0.00000000000E+00  0.00000000000E+00  0.54236842187E+02  0.54236842187E+02  0.00000000000E+00 0.  1.
         21   -1    0    0  501  502 -0.00000000000E+00 -0.00000000000E+00 -0.96079658195E+03  0.96079658195E+03  0.00000000000E+00 0.  1.
      99926    2    1    2    0    0  0.14210854715E-13  0.17763568394E-14 -0.90655973977E+03  0.10150334241E+04  0.45655480542E+03 0.  0.
      99925    2    3    3    0    0  0.98395835160E+02  0.15104681155E+02 -0.69512920381E+03  0.74996688267E+03  0.26331696366E+03 0.  0.
         25    1    4    4    0    0  0.11359127482E+02  0.98208937629E+01 -0.36988540151E+03  0.39075337245E+03  0.12509000000E+03 0.  0.
         25    1    4    4    0    0  0.87036707678E+02  0.52837873918E+01 -0.32524380230E+03  0.35921351022E+03  0.12509000000E+03 0.  0.
         25    1    3    3    0    0 -0.98395835160E+02 -0.15104681155E+02 -0.21143053596E+03  0.26506654147E+03  0.12509000000E+03 0.  0.
<mgrwt>
<rscale>  2 0.45655481E+03</rscale>
<asrwt>0</asrwt>
<pdfrwt beam="1">  1       21 0.79760060E-02 0.45655481E+03</pdfrwt>
<pdfrwt beam="2">  1       21 0.14129362E+00 0.45655481E+03</pdfrwt>
<totfact> 0.38122163E+04</totfact>
</mgrwt>
</event>
<event>
 7    0  0.4779893E-002  0.4475086E+03  0.7546771E-02  0.1028468E+00
         21   -1    0    0  502  501  0.00000000000E+00  0.00000000000E+00  0.21024441074E+03  0.21024441074E+03  0.00000000000E+00 0. -1.
         21   -1    0    0  501  502 -0.00000000000E+00 -0.00000000000E+00 -0.23813234474E+03  0.23813234474E+03  0.00000000000E+00 0. -1.
      99926    2    1    2    0    0  0.71054273576E-14  0.00000000000E+00 -0.27887933992E+02  0.44837675548E+03  0.44750863455E+03 0.  0.
      99925    2    3    3    0    0  0.61908107770E+02  0.81937067301E+02 -0.43953367772E+02  0.28573634516E+03  0.26299631861E+03 0.  0.
         25    1    4    4    0    0  0.16622984785E+02  0.53235516569E+02 -0.58370793962E+02  0.14887915077E+03  0.12509000000E+03 0.  0.
         25    1    4    4    0    0  0.45285122985E+02  0.28701550732E+02  0.14417426190E+02  0.13685719439E+03  0.12509000000E+03 0.  0.
         25    1    3    3    0    0 -0.61908107770E+02 -0.81937067301E+02  0.16065433780E+02  0.16264041032E+03  0.12509000000E+03 0.  0.
<mgrwt>
<rscale>  2 0.44750863E+03</rscale>
<asrwt>0</asrwt>
<pdfrwt beam="1">  1       21 0.30918296E-01 0.44750863E+03</pdfrwt>
<pdfrwt beam="2">  1       21 0.35019462E-01 0.44750863E+03</pdfrwt>
<totfact> 0.73319203E+04</totfact>
</mgrwt>
</event>
<event>
 7    0  0.4779893E-002  0.4530952E+03  0.7546771E-02  0.1026803E+00
         21   -1    0    0  502  501  0.00000000000E+00  0.00000000000E+00  0.67709988306E+02  0.67709988306E+02  0.00000000000E+00 0.  1.
         21   -1    0    0  501  502 -0.00000000000E+00 -0.00000000000E+00 -0.75799473273E+03  0.75799473273E+03  0.00000000000E+00 0.  1.
      99926    2    1    2    0    0  0.00000000000E+00  0.00000000000E+00 -0.69028474443E+03  0.82570472104E+03  0.45309519746E+03 0.  0.
      99925    2    3    3    0    0 -0.45424816006E+02  0.34623652969E+02 -0.26094908366E+03  0.37488454740E+03  0.26302431135E+03 0.  0.
         25    1    3    3    0    0  0.45424816006E+02 -0.34623652969E+02 -0.42933566077E+03  0.45082017364E+03  0.12509000000E+03 0.  0.
         25    1    4    4    0    0 -0.55165899501E+02  0.42383861130E+02 -0.12990292308E+03  0.19329238391E+03  0.12509000000E+03 0.  0.
         25    1    4    4    0    0  0.97410834951E+01 -0.77602081606E+01 -0.13104616058E+03  0.18159216349E+03  0.12509000000E+03 0.  0.
<mgrwt>
<rscale>  2 0.45309520E+03</rscale>
<asrwt>0</asrwt>
<pdfrwt beam="1">  1       21 0.99573509E-02 0.45309520E+03</pdfrwt>
<pdfrwt beam="2">  1       21 0.11146982E+00 0.45309520E+03</pdfrwt>
<totfact> 0.47248723E+04</totfact>
</mgrwt>
</event>
<event>
 7    0  0.4779893E-002  0.4725254E+03  0.7546771E-02  0.1021210E+00
         21   -1    0    0  502  501  0.00000000000E+00  0.00000000000E+00  0.85377804963E+02  0.85377804963E+02  0.00000000000E+00 0. -1.
         21   -1    0    0  501  502 -0.00000000000E+00 -0.00000000000E+00 -0.65380050612E+03  0.65380050612E+03  0.00000000000E+00 0. -1.
      99926    2    1    2    0    0  0.00000000000E+00  0.14210854715E-13 -0.56842270116E+03  0.73917831108E+03  0.47252535211E+03 0.  0.
      99925    2    3    3    0    0 -0.20185413449E+02 -0.12590102426E+03 -0.38196899954E+03  0.48097101108E+03  0.26301003416E+03 0.  0.
         25    1    4    4    0    0 -0.27219862340E+02 -0.22798609280E+02 -0.16928509730E+03  0.21346112002E+03  0.12509000000E+03 0.  0.
         25    1    4    4    0    0  0.70344488910E+01 -0.10310241498E+03 -0.21268390224E+03  0.26750989107E+03  0.12509000000E+03 0.  0.
         25    1    3    3    0    0  0.20185413449E+02  0.12590102426E+03 -0.18645370162E+03  0.25820730000E+03  0.12509000000E+03 0.  0.
<mgrwt>
<rscale>  2 0.47252535E+03</rscale>
<asrwt>0</asrwt>
<pdfrwt beam="1">  1       21 0.12555560E-01 0.47252535E+03</pdfrwt>
<pdfrwt beam="2">  1       21 0.96147132E-01 0.47252535E+03</pdfrwt>
<totfact> 0.44387451E+04</totfact>
</mgrwt>
</event>
<event>
 7    0  0.4779893E-002  0.4645083E+03  0.7546771E-02  0.1023482E+00
         21   -1    0    0  502  501  0.00000000000E+00  0.00000000000E+00  0.13129060467E+03  0.13129060467E+03  0.00000000000E+00 0.  1.
         21   -1    0    0  501  502 -0.00000000000E+00 -0.00000000000E+00 -0.41085957030E+03  0.41085957030E+03  0.00000000000E+00 0.  1.
      99926    2    1    2    0    0  0.00000000000E+00  0.00000000000E+00 -0.27956896563E+03  0.54215017497E+03  0.46450834833E+03 0.  0.
      99925    2    3    3    0    0  0.82239847503E+02 -0.82428452983E+02 -0.13196597306E+03  0.31633610567E+03  0.26286055490E+03 0.  0.
         25    1    3    3    0    0 -0.82239847503E+02  0.82428452983E+02 -0.14760299257E+03  0.22581406930E+03  0.12509000000E+03 0.  0.
         25    1    4    4    0    0  0.18068454630E+02 -0.25333948606E+02 -0.95084433322E+02  0.16017751267E+03  0.12509000000E+03 0.  0.
         25    1    4    4    0    0  0.64171392873E+02 -0.57094504376E+02 -0.36881539738E+02  0.15615859300E+03  0.12509000000E+03 0.  0.
<mgrwt>
<rscale>  2 0.46450835E+03</rscale>
<asrwt>0</asrwt>
<pdfrwt beam="1">  1       21 0.19307442E-01 0.46450835E+03</pdfrwt>
<pdfrwt beam="2">  1       21 0.60420525E-01 0.46450835E+03</pdfrwt>
<totfact> 0.57903741E+04</totfact>
</mgrwt>
</event>
<event>
 7    0  0.4779893E-002  0.4502468E+03  0.7546771E-02  0.1027648E+00
         21   -1    0    0  502  501  0.00000000000E+00  0.00000000000E+00  0.60931949493E+02  0.60931949493E+02  0.00000000000E+00 0.  1.
         21   -1    0    0  501  502 -0.00000000000E+00 -0.00000000000E+00 -0.83175664133E+03  0.83175664133E+03  0.00000000000E+00 0.  1.
      99926    2    1    2    0    0  0.00000000000E+00  0.00000000000E+00 -0.77082469184E+03  0.89268859083E+03  0.45024683746E+03 0.  0.
      99925    2    3    3    0    0 -0.54593998405E+02 -0.64988608301E+02 -0.62034208713E+03  0.67938939652E+03  0.26370745756E+03 0.  0.
         25    1    4    4    0    0 -0.60337558870E+02 -0.29802249835E+02 -0.38698381066E+03  0.41222902969E+03  0.12509000000E+03 0.  0.
         25    1    4    4    0    0  0.57435604651E+01 -0.35186358466E+02 -0.23335827647E+03  0.26716036683E+03  0.12509000000E+03 0.  0.
         25    1    3    3    0    0  0.54593998405E+02  0.64988608301E+02 -0.15048260471E+03  0.21329919431E+03  0.12509000000E+03 0.  0.
<mgrwt>
<rscale>  2 0.45024684E+03</rscale>
<asrwt>0</asrwt>
<pdfrwt beam="1">  1       21 0.89605816E-02 0.45024684E+03</pdfrwt>
<pdfrwt beam="2">  1       21 0.12231714E+00 0.45024684E+03</pdfrwt>
<totfact> 0.45210652E+04</totfact>
</mgrwt>
</event>
<event>
 7    0  0.4779893E-002  0.4503454E+03  0.7546771E-02  0.1027619E+00
         21   -1    0    0  502  501  0.00000000000E+00  0.00000000000E+00  0.60176432841E+02  0.60176432841E+02  0.00000000000E+00 0.  1.
         21   -1    0    0  501  502 -0.00000000000E+00 -0.00000000000E+00 -0.84256819784E+03  0.84256819784E+03  0.00000000000E+00 0.  1.
      99926    2    1    2    0    0  0.00000000000E+00  0.00000000000E+00 -0.78239176500E+03  0.90274463068E+03  0.45034541664E+03 0.  0.
      99925    2    3    3    0    0 -0.39972376821E+02 -0.10099774644E+03 -0.49543254279E+03  0.57139671835E+03  0.26313963896E+03 0.  0.
         25    1    4    4    0    0  0.18089754008E+02 -0.31576157900E+02 -0.22840875797E+03  0.26294935210E+03  0.12509000000E+03 0.  0.
         25    1    4    4    0    0 -0.58062130829E+02 -0.69421588543E+02 -0.26702378481E+03  0.30844736625E+03  0.12509000000E+03 0.  0.
         25    1    3    3    0    0  0.39972376821E+02  0.10099774644E+03 -0.28695922221E+03  0.33134791233E+03  0.12509000000E+03 0.  0.
<mgrwt>
<rscale>  2 0.45034542E+03</rscale>
<asrwt>0</asrwt>
<pdfrwt beam="1">  1       21 0.88494753E-02 0.45034542E+03</pdfrwt>
<pdfrwt beam="2">  1       21 0.12390709E+00 0.45034542E+03</pdfrwt>
<totfact> 0.44722581E+04</totfact>
</mgrwt>
</event>
<event>
 7    0  0.4779893E-002  0.4541091E+03  0.7546771E-02  0.1026504E+00
         21   -1    0    0  502  501  0.00000000000E+00  0.00000000000E+00  0.22599836333E+03  0.22599836333E+03  0.00000000000E+00 0.  1.
         21   -1    0    0  501  502 -0.00000000000E+00 -0.00000000000E+00 -0.22811570207E+03  0.22811570207E+03  0.00000000000E+00 0.  1.
      99926    2    1    2    0    0 -0.88817841970E-15  0.00000000000E+00 -0.21173387359E+01  0.45411406540E+03  0.45410912925E+03 0.  0.
      99925    2    3    3    0    0 -0.73875072107E+01 -0.94400414857E+02  0.59126701041E+02  0.28569686290E+03  0.26298425259E+03 0.  0.
         25    1    4    4    0    0  0.10270650989E+01 -0.89589587498E+02  0.37668373772E+02  0.15841011184E+03  0.12509000000E+03 0.  0.
         25    1    4    4    0    0 -0.84145723097E+01 -0.48108273598E+01  0.21458327269E+02  0.12728675106E+03  0.12509000000E+03 0.  0.
         25    1    3    3    0    0  0.73875072107E+01  0.94400414857E+02 -0.61244039777E+02  0.16841720250E+03  0.12509000000E+03 0.  0.
<mgrwt>
<rscale>  2 0.45410913E+03</rscale>
<asrwt>0</asrwt>
<pdfrwt beam="1">  1       21 0.33235053E-01 0.45410913E+03</pdfrwt>
<pdfrwt beam="2">  1       21 0.33546427E-01 0.45410913E+03</pdfrwt>
<totfact> 0.69100619E+04</totfact>
</mgrwt>
</event>
<event>
 7    0  0.4779893E-002  0.4411022E+03  0.7546771E-02  0.1030409E+00
         21   -1    0    0  502  501  0.00000000000E+00  0.00000000000E+00  0.20521171167E+03  0.20521171167E+03  0.00000000000E+00 0.  1.
         21   -1    0    0  501  502 -0.00000000000E+00 -0.00000000000E+00 -0.23703705616E+03  0.23703705616E+03  0.00000000000E+00 0.  1.
      99926    2    1    2    0    0 -0.71054273576E-14  0.00000000000E+00 -0.31825344492E+02  0.44224876783E+03  0.44110216514E+03 0.  0.
      99925    2    3    3    0    0  0.60860751385E+02  0.40442438450E+02  0.47256876571E+02  0.27719990332E+03  0.26318615490E+03 0.  0.
         25    1    3    3    0    0 -0.60860751385E+02 -0.40442438450E+02 -0.79082221063E+02  0.16504886451E+03  0.12509000000E+03 0.  0.
         25    1    4    4    0    0  0.26274662681E+02  0.89583264402E+01 -0.16540387629E+02  0.12919637005E+03  0.12509000000E+03 0.  0.
         25    1    4    4    0    0  0.34586088704E+02  0.31484112010E+02  0.63797264200E+02  0.14800353327E+03  0.12509000000E+03 0.  0.
<mgrwt>
<rscale>  2 0.44110217E+03</rscale>
<asrwt>0</asrwt>
<pdfrwt beam="1">  1       21 0.30178193E-01 0.44110217E+03</pdfrwt>
<pdfrwt beam="2">  1       21 0.34858390E-01 0.44110217E+03</pdfrwt>
<totfact> 0.77761893E+04</totfact>
</mgrwt>
</event>
<event>
 7    0  0.4779893E-002  0.4578143E+03  0.7546771E-02  0.1025417E+00
         21   -1    0    0  502  501  0.00000000000E+00  0.00000000000E+00  0.10067770923E+03  0.10067770923E+03  0.00000000000E+00 0. -1.
         21   -1    0    0  501  502 -0.00000000000E+00 -0.00000000000E+00 -0.52045760780E+03  0.52045760780E+03  0.00000000000E+00 0. -1.
      99926    2    1    2    0    0  0.00000000000E+00 -0.14210854715E-13 -0.41977989857E+03  0.62113531703E+03  0.45781428420E+03 0.  0.
      99925    2    3    3    0    0  0.40842657879E+02 -0.10810243357E+03 -0.25486224281E+03  0.38407076859E+03  0.26306146360E+03 0.  0.
         25    1    4    4    0    0  0.53383030686E+02 -0.66271960670E+02 -0.10568075075E+03  0.18454714822E+03  0.12509000000E+03 0.  0.
         25    1    4    4    0    0 -0.12540372807E+02 -0.41830472899E+02 -0.14918149206E+03  0.19952362037E+03  0.12509000000E+03 0.  0.
         25    1    3    3    0    0 -0.40842657879E+02  0.10810243357E+03 -0.16491765576E+03  0.23706454844E+03  0.12509000000E+03 0.  0.
<mgrwt>
<rscale>  2 0.45781428E+03</rscale>
<asrwt>0</asrwt>
<pdfrwt beam="1">  1       21 0.14805546E-01 0.45781428E+03</pdfrwt>
<pdfrwt beam="2">  1       21 0.76537882E-01 0.45781428E+03</pdfrwt>
<totfact> 0.56137861E+04</totfact>
</mgrwt>
</event>
<event>
 7    0  0.4779893E-002  0.4627957E+03  0.7546771E-02  0.1023973E+00
         21   -1    0    0  502  501  0.00000000000E+00  0.00000000000E+00  0.64556750858E+02  0.64556750858E+02  0.00000000000E+00 0. -1.
         21   -1    0    0  501  502 -0.00000000000E+00 -0.00000000000E+00 -0.82942477579E+03  0.82942477579E+03  0.00000000000E+00 0. -1.
      99926    2    1    2    0    0  0.00000000000E+00  0.00000000000E+00 -0.76486802493E+03  0.89398152664E+03  0.46279571565E+03 0.  0.
      99925    2    3    3    0    0  0.93211522711E+02 -0.44959344431E+02 -0.59670092913E+03  0.66023505966E+03  0.26296122255E+03 0.  0.
         25    1    3    3    0    0 -0.93211522711E+02  0.44959344431E+02 -0.16816709580E+03  0.23374646698E+03  0.12509000000E+03 0.  0.
         25    1    4    4    0    0  0.26911414724E+02  0.88317229421E+01 -0.32102342410E+03  0.34569606664E+03  0.12509000000E+03 0.  0.
         25    1    4    4    0    0  0.66300107987E+02 -0.53791067373E+02 -0.27567750503E+03  0.31453899302E+03  0.12509000000E+03 0.  0.
<mgrwt>
<rscale>  2 0.46279572E+03</rscale>
<asrwt>0</asrwt>
<pdfrwt beam="1">  1       21 0.94936398E-02 0.46279572E+03</pdfrwt>
<pdfrwt beam="2">  1       21 0.12197423E+00 0.46279572E+03</pdfrwt>
<totfact> 0.40938164E+04</totfact>
</mgrwt>
</event>
<event>
 7    0  0.4779893E-002  0.4581931E+03  0.7546771E-02  0.1025307E+00
         21   -1    0    0  502  501  0.00000000000E+00  0.00000000000E+00  0.35675293589E+03  0.35675293589E+03  0.00000000000E+00 0. -1.
         21   -1    0    0  501  502 -0.00000000000E+00 -0.00000000000E+00 -0.14711927111E+03  0.14711927111E+03  0.00000000000E+00 0. -1.
      99926    2    1    2    0    0  0.00000000000E+00  0.00000000000E+00  0.20963366478E+03  0.50387220700E+03  0.45819311167E+03 0.  0.
      99925    2    3    3    0    0  0.95501355076E+02  0.36450050368E+02  0.19217097712E+03  0.34138661209E+03  0.26299433354E+03 0.  0.
         25    1    4    4    0    0  0.74229046802E+01  0.57672309940E+01  0.97504554226E+02  0.15888047917E+03  0.12509000000E+03 0.  0.
         25    1    4    4    0    0  0.88078450396E+02  0.30682819374E+02  0.94666422897E+02  0.18250613292E+03  0.12509000000E+03 0.  0.
         25    1    3    3    0    0 -0.95501355076E+02 -0.36450050368E+02  0.17462687655E+02  0.16248559491E+03  0.12509000000E+03 0.  0.
<mgrwt>
<rscale>  2 0.45819311E+03</rscale>
<asrwt>0</asrwt>
<pdfrwt beam="1">  1       21 0.52463667E-01 0.45819311E+03</pdfrwt>
<pdfrwt beam="2">  1       21 0.21635187E-01 0.45819311E+03</pdfrwt>
<totfact> 0.63377793E+04</totfact>
</mgrwt>
</event>
<event>
 7    0  0.4779893E-002  0.4523586E+03  0.7546771E-02  0.1027021E+00
         21   -1    0    0  502  501  0.00000000000E+00  0.00000000000E+00  0.19807296926E+03  0.19807296926E+03  0.00000000000E+00 0. -1.
         21   -1    0    0  501  502 -0.00000000000E+00 -0.00000000000E+00 -0.25827383594E+03  0.25827383594E+03  0.00000000000E+00 0. -1.
      99926    2    1    2    0    0  0.00000000000E+00  0.00000000000E+00 -0.60200866681E+02  0.45634680521E+03  0.45235855499E+03 0.  0.
      99925    2    3    3    0    0 -0.50164649344E+01 -0.10997141844E+03 -0.26390351181E+02  0.28631875795E+03  0.26298878821E+03 0.  0.
         25    1    4    4    0    0  0.14412247217E+02 -0.22832554043E+02 -0.34123517512E+02  0.13244229287E+03  0.12509000000E+03 0.  0.
         25    1    3    3    0    0  0.50164649344E+01  0.10997141844E+03 -0.33810515499E+02  0.17002804725E+03  0.12509000000E+03 0.  0.
         25    1    4    4    0    0 -0.19428712152E+02 -0.87138864400E+02  0.77331663304E+01  0.15387646508E+03  0.12509000000E+03 0.  0.
<mgrwt>
<rscale>  2 0.45235855E+03</rscale>
<asrwt>0</asrwt>
<pdfrwt beam="1">  1       21 0.29128378E-01 0.45235855E+03</pdfrwt>
<pdfrwt beam="2">  1       21 0.37981446E-01 0.45235855E+03</pdfrwt>
<totfact> 0.69908685E+04</totfact>
</mgrwt>
</event>
<event>
 7    0  0.4779893E-002  0.4599669E+03  0.7546771E-02  0.1024791E+00
         21   -1    0    0  502  501  0.00000000000E+00  0.00000000000E+00  0.12199363004E+03  0.12199363004E+03  0.00000000000E+00 0. -1.
         21   -1    0    0  501  502 -0.00000000000E+00 -0.00000000000E+00 -0.43356673933E+03  0.43356673933E+03  0.00000000000E+00 0. -1.
      99926    2    1    2    0    0 -0.14210854715E-13  0.00000000000E+00 -0.31157310929E+03  0.55556036937E+03  0.45996687009E+03 0.  0.
      99925    2    3    3    0    0 -0.90026766013E+02  0.75463708692E+02 -0.20613445426E+03  0.35415429200E+03  0.26293394490E+03 0.  0.
         25    1    4    4    0    0 -0.48508021751E+02  0.74721470381E+02 -0.87070192949E+02  0.17653626514E+03  0.12509000000E+03 0.  0.
         25    1    3    3    0    0  0.90026766013E+02 -0.75463708692E+02 -0.10543865503E+03  0.20140607737E+03  0.12509000000E+03 0.  0.
         25    1    4    4    0    0 -0.41518744262E+02  0.74223831117E+00 -0.11906426131E+03  0.17761802686E+03  0.12509000000E+03 0.  0.
<mgrwt>
<rscale>  2 0.45996687E+03</rscale>
<asrwt>0</asrwt>
<pdfrwt beam="1">  1       21 0.17940240E-01 0.45996687E+03</pdfrwt>
<pdfrwt beam="2">  1       21 0.63759814E-01 0.45996687E+03</pdfrwt>
<totfact> 0.59142248E+04</totfact>
</mgrwt>
</event>
<event>
 7    0  0.4779893E-002  0.4561361E+03  0.7546771E-02  0.1025908E+00
         21   -1    0    0  502  501  0.00000000000E+00  0.00000000000E+00  0.24501050473E+03  0.24501050473E+03  0.00000000000E+00 0. -1.
         21   -1    0    0  501  502 -0.00000000000E+00 -0.00000000000E+00 -0.21229716322E+03  0.21229716322E+03  0.00000000000E+00 0. -1.
      99926    2    1    2    0    0  0.00000000000E+00  0.00000000000E+00  0.32713341516E+02  0.45730766795E+03  0.45613609861E+03 0.  0.
      99925    2    3    3    0    0 -0.11279314053E+03 -0.18862807426E+02  0.20953838754E+02  0.28741390097E+03  0.26284898527E+03 0.  0.
         25    1    4    4    0    0 -0.34740962629E+02 -0.12379593855E+02 -0.25104291996E+02  0.13280784015E+03  0.12509000000E+03 0.  0.
         25    1    3    3    0    0  0.11279314053E+03  0.18862807426E+02  0.11759502761E+02  0.16989376699E+03  0.12509000000E+03 0.  0.
         25    1    4    4    0    0 -0.78052177903E+02 -0.64832135715E+01  0.46058130750E+02  0.15460606082E+03  0.12509000000E+03 0.  0.
<mgrwt>
<rscale>  2 0.45613610E+03</rscale>
<asrwt>0</asrwt>
<pdfrwt beam="1">  1       21 0.36030957E-01 0.45613610E+03</pdfrwt>
<pdfrwt beam="2">  1       21 0.31220171E-01 0.45613610E+03</pdfrwt>
<totfact> 0.67760787E+04</totfact>
</mgrwt>
</event>
<event>
 7    0  0.4779893E-002  0.4645153E+03  0.7546771E-02  0.1023480E+00
         21   -1    0    0  502  501  0.00000000000E+00  0.00000000000E+00  0.39911910687E+03  0.39911910687E+03  0.00000000000E+00 0.  1.
         21   -1    0    0  501  502 -0.00000000000E+00 -0.00000000000E+00 -0.13515669863E+03  0.13515669863E+03  0.00000000000E+00 0.  1.
      99926    2    1    2    0    0  0.35527136788E-14  0.00000000000E+00  0.26396240824E+03  0.53427580549E+03  0.46451532092E+03 0.  0.
      99925    2    3    3    0    0 -0.17971505283E+02 -0.11760735307E+03  0.19526464982E+03  0.34847657350E+03  0.26296991141E+03 0.  0.
         25    1    3    3    0    0  0.17971505283E+02  0.11760735307E+03  0.68697758419E+02  0.18579923200E+03  0.12509000000E+03 0.  0.
         25    1    4    4    0    0 -0.19554316059E+02 -0.94957205548E+02  0.13390576176E+03  0.20731016207E+03  0.12509000000E+03 0.  0.
         25    1    4    4    0    0  0.15828107760E+01 -0.22650147525E+02  0.61358888054E+02  0.14116641143E+03  0.12509000000E+03 0.  0.
<mgrwt>
<rscale>  2 0.46451532E+03</rscale>
<asrwt>0</asrwt>
<pdfrwt beam="1">  1       21 0.58693986E-01 0.46451532E+03</pdfrwt>
<pdfrwt beam="2">  1       21 0.19875985E-01 0.46451532E+03</pdfrwt>
<totfact> 0.58388406E+04</totfact>
</mgrwt>
</event>
<event>
 7    0  0.4779893E-002  0.4492521E+03  0.7546771E-02  0.1027945E+00
         21   -1    0    0  502  501  0.00000000000E+00  0.00000000000E+00  0.59441664315E+02  0.59441664315E+02  0.00000000000E+00 0. -1.
         21   -1    0    0  501  502 -0.00000000000E+00 -0.00000000000E+00 -0.84884662095E+03  0.84884662095E+03  0.00000000000E+00 0. -1.
      99926    2    1    2    0    0  0.00000000000E+00  0.00000000000E+00 -0.78940495663E+03  0.90828828526E+03  0.44925207133E+03 0.  0.
      99925    2    3    3    0    0 -0.40940932967E+02  0.15378042230E+02 -0.69833279153E+03  0.74749558788E+03  0.26299871103E+03 0.  0.
         25    1    4    4    0    0 -0.26282395562E+02  0.32632221235E+00 -0.46101559460E+03  0.47840752227E+03  0.12509000000E+03 0.  0.
         25    1    4    4    0    0 -0.14658537406E+02  0.15051720018E+02 -0.23731719693E+03  0.26908806561E+03  0.12509000000E+03 0.  0.
         25    1    3    3    0    0  0.40940932967E+02 -0.15378042230E+02 -0.91072165104E+02  0.16079269738E+03  0.12509000000E+03 0.  0.
<mgrwt>
<rscale>  2 0.44925207E+03</rscale>
<asrwt>0</asrwt>
<pdfrwt beam="1">  1       21 0.87414218E-02 0.44925207E+03</pdfrwt>
<pdfrwt beam="2">  1       21 0.12483038E+00 0.44925207E+03</pdfrwt>
<totfact> 0.44861345E+04</totfact>
</mgrwt>
</event>
<event>
 7    0  0.4779893E-002  0.4553493E+03  0.7546771E-02  0.1026139E+00
         21   -1    0    0  502  501  0.00000000000E+00  0.00000000000E+00  0.76902286335E+02  0.76902286335E+02  0.00000000000E+00 0. -1.
         21   -1    0    0  501  502 -0.00000000000E+00 -0.00000000000E+00 -0.67404674251E+03  0.67404674251E+03  0.00000000000E+00 0. -1.
      99926    2    1    2    0    0  0.00000000000E+00  0.35527136788E-14 -0.59714445618E+03  0.75094902885E+03  0.45534925319E+03 0.  0.
      99925    2    3    3    0    0  0.59460353023E+02 -0.20939031064E+02 -0.21990211071E+03  0.34853969506E+03  0.26296198230E+03 0.  0.
         25    1    4    4    0    0  0.10511664879E+02  0.55021402107E+01 -0.63839854082E+02  0.14093900707E+03  0.12509000000E+03 0.  0.
         25    1    4    4    0    0  0.48948688144E+02 -0.26441171275E+02 -0.15606225663E+03  0.20760068799E+03  0.12509000000E+03 0.  0.
         25    1    3    3    0    0 -0.59460353023E+02  0.20939031064E+02 -0.37724234547E+03  0.40240933379E+03  0.12509000000E+03 0.  0.
<mgrwt>
<rscale>  2 0.45534925E+03</rscale>
<asrwt>0</asrwt>
<pdfrwt beam="1">  1       21 0.11309159E-01 0.45534925E+03</pdfrwt>
<pdfrwt beam="2">  1       21 0.99124528E-01 0.45534925E+03</pdfrwt>
<totfact> 0.50084897E+04</totfact>
</mgrwt>
</event>
<event>
 7    0  0.4779893E-002  0.4486861E+03  0.7546771E-02  0.1028115E+00
         21   -1    0    0  502  501  0.00000000000E+00  0.00000000000E+00  0.57096294073E+03  0.57096294073E+03  0.00000000000E+00 0. -1.
         21   -1    0    0  501  502 -0.00000000000E+00 -0.00000000000E+00 -0.88149000114E+02  0.88149000114E+02  0.00000000000E+00 0. -1.
      99926    2    1    2    0    0  0.00000000000E+00 -0.35527136788E-14  0.48281394062E+03  0.65911194085E+03  0.44868613675E+03 0.  0.
      99925    2    3    3    0    0  0.69329161624E+02 -0.29542553909E+02  0.41741714005E+03  0.49910086383E+03  0.26303100260E+03 0.  0.
         25    1    4    4    0    0  0.40868550432E+02 -0.40479127395E+02  0.27210407433E+03  0.30495398593E+03  0.12509000000E+03 0.  0.
         25    1    3    3    0    0 -0.69329161624E+02  0.29542553909E+02  0.65396800570E+02  0.16001107702E+03  0.12509000000E+03 0.  0.
         25    1    4    4    0    0  0.28460611193E+02  0.10936573486E+02  0.14531306572E+03  0.19414687790E+03  0.12509000000E+03 0.  0.
<mgrwt>
<rscale>  2 0.44868614E+03</rscale>
<asrwt>0</asrwt>
<pdfrwt beam="1">  1       21 0.83965137E-01 0.44868614E+03</pdfrwt>
<pdfrwt beam="2">  1       21 0.12963088E-01 0.44868614E+03</pdfrwt>
<totfact> 0.58014097E+04</totfact>
</mgrwt>
</event>
<event>
 7    0  0.4779893E-002  0.4504513E+03  0.7546771E-02  0.1027588E+00
         21   -1    0    0  502  501  0.00000000000E+00  0.00000000000E+00  0.30653276798E+03  0.30653276798E+03  0.00000000000E+00 0. -1.
         21   -1    0    0  501  502 -0.00000000000E+00 -0.00000000000E+00 -0.16548508044E+03  0.16548508044E+03  0.00000000000E+00 0. -1.
      99926    2    1    2    0    0  0.14210854715E-13  0.71054273576E-14  0.14104768755E+03  0.47201784842E+03  0.45045132819E+03 0.  0.
      99925    2    3    3    0    0 -0.74888769832E+02 -0.57713596967E+02  0.32617494378E+02  0.28137734378E+03  0.26300213218E+03 0.  0.
         25    1    3    3    0    0  0.74888769832E+02  0.57713596967E+02  0.10843019317E+03  0.19064050465E+03  0.12509000000E+03 0.  0.
         25    1    4    4    0    0 -0.43866543715E+02 -0.46644090443E+02 -0.19591405378E+02  0.14188472820E+03  0.12509000000E+03 0.  0.
         25    1    4    4    0    0 -0.31022226117E+02 -0.11069506525E+02  0.52208899755E+02  0.13949261558E+03  0.12509000000E+03 0.  0.
<mgrwt>
<rscale>  2 0.45045133E+03</rscale>
<asrwt>0</asrwt>
<pdfrwt beam="1">  1       21 0.45078348E-01 0.45045133E+03</pdfrwt>
<pdfrwt beam="2">  1       21 0.24336041E-01 0.45045133E+03</pdfrwt>
<totfact> 0.69770594E+04</totfact>
</mgrwt>
</event>
<event>
 7    0  0.4779893E-002  0.4492617E+03  0.7546771E-02  0.1027942E+00
         21   -1    0    0  502  501  0.00000000000E+00  0.00000000000E+00  0.20411308958E+03  0.20411308958E+03  0.00000000000E+00 0. -1.
         21   -1    0    0  501  502 -0.00000000000E+00 -0.00000000000E+00 -0.24721111156E+03  0.24721111156E+03  0.00000000000E+00 0. -1.
      99926    2    1    2    0    0  0.00000000000E+00  0.00000000000E+00 -0.43098021981E+02  0.45132420114E+03  0.44926172220E+03 0.  0.
      99925    2    3    3    0    0 -0.10207107027E+03 -0.33936114003E+02 -0.33779659929E+02  0.28608345801E+03  0.26293063021E+03 0.  0.
         25    1    4    4    0    0 -0.46301677562E+02 -0.48131309390E+02  0.84683333035E+01  0.14205523242E+03  0.12509000000E+03 0.  0.
         25    1    4    4    0    0 -0.55769392705E+02  0.14195195387E+02 -0.42247993233E+02  0.14402822559E+03  0.12509000000E+03 0.  0.
         25    1    3    3    0    0  0.10207107027E+03  0.33936114003E+02 -0.93183620518E+01  0.16524074313E+03  0.12509000000E+03 0.  0.
<mgrwt>
<rscale>  2 0.44926172E+03</rscale>
<asrwt>0</asrwt>
<pdfrwt beam="1">  1       21 0.30016631E-01 0.44926172E+03</pdfrwt>
<pdfrwt beam="2">  1       21 0.36354575E-01 0.44926172E+03</pdfrwt>
<totfact> 0.72058943E+04</totfact>
</mgrwt>
</event>
<event>
 7    0  0.4779893E-002  0.4580260E+03  0.7546771E-02  0.1025355E+00
         21   -1    0    0  502  501  0.00000000000E+00  0.00000000000E+00  0.92338120587E+02  0.92338120587E+02  0.00000000000E+00 0.  1.
         21   -1    0    0  501  502 -0.00000000000E+00 -0.00000000000E+00 -0.56798804288E+03  0.56798804288E+03  0.00000000000E+00 0.  1.
      99926    2    1    2    0    0  0.00000000000E+00  0.00000000000E+00 -0.47564992229E+03  0.66032616347E+03  0.45802597479E+03 0.  0.
      99925    2    3    3    0    0 -0.10682951510E+03  0.45808435356E+02 -0.29619218564E+03  0.41260949994E+03  0.26268960878E+03 0.  0.
         25    1    4    4    0    0 -0.13653806042E+02  0.36090256835E+02 -0.13956690006E+03  0.19135140645E+03  0.12509000000E+03 0.  0.
         25    1    4    4    0    0 -0.93175709053E+02  0.97181785205E+01 -0.15662528559E+03  0.22125809349E+03  0.12509000000E+03 0.  0.
         25    1    3    3    0    0  0.10682951510E+03 -0.45808435356E+02 -0.17945773665E+03  0.24771666353E+03  0.12509000000E+03 0.  0.
<mgrwt>
<rscale>  2 0.45802597E+03</rscale>
<asrwt>0</asrwt>
<pdfrwt beam="1">  1       21 0.13579136E-01 0.45802597E+03</pdfrwt>
<pdfrwt beam="2">  1       21 0.83527652E-01 0.45802597E+03</pdfrwt>
<totfact> 0.53814381E+04</totfact>
</mgrwt>
</event>
<event>
 7    0  0.4779893E-002  0.4596459E+03  0.7546771E-02  0.1024884E+00
         21   -1    0    0  502  501  0.00000000000E+00  0.00000000000E+00  0.58473050970E+02  0.58473050970E+02  0.00000000000E+00 0. -1.
         21   -1    0    0  501  502 -0.00000000000E+00 -0.00000000000E+00 -0.90329783501E+03  0.90329783501E+03  0.00000000000E+00 0. -1.
      99926    2    1    2    0    0  0.88817841970E-15  0.71054273576E-14 -0.84482478404E+03  0.96177088598E+03  0.45964586519E+03 0.  0.
      99925    2    3    3    0    0  0.23874282645E+01 -0.38705336412E+02 -0.29683255618E+03  0.39834671826E+03  0.26280551489E+03 0.  0.
         25    1    4    4    0    0  0.19230545653E+02 -0.16102315813E+02 -0.94349303839E+02  0.15867702321E+03  0.12509000000E+03 0.  0.
         25    1    4    4    0    0 -0.16843117389E+02 -0.22603020599E+02 -0.20248325235E+03  0.23966969505E+03  0.12509000000E+03 0.  0.
         25    1    3    3    0    0 -0.23874282645E+01  0.38705336412E+02 -0.54799222785E+03  0.56342416772E+03  0.12509000000E+03 0.  0.
<mgrwt>
<rscale>  2 0.45964587E+03</rscale>
<asrwt>0</asrwt>
<pdfrwt beam="1">  1       21 0.85989774E-02 0.45964587E+03</pdfrwt>
<pdfrwt beam="2">  1       21 0.13283793E+00 0.45964587E+03</pdfrwt>
<totfact> 0.39223533E+04</totfact>
</mgrwt>
</event>
<event>
 7    0  0.4779893E-002  0.4427607E+03  0.7546771E-02  0.1029903E+00
         21   -1    0    0  502  501  0.00000000000E+00  0.00000000000E+00  0.15216002825E+04  0.15216002825E+04  0.00000000000E+00 0.  1.
         21   -1    0    0  501  502 -0.00000000000E+00 -0.00000000000E+00 -0.32209024699E+02  0.32209024699E+02  0.00000000000E+00 0.  1.
      99926    2    1    2    0    0  0.00000000000E+00  0.00000000000E+00  0.14893912578E+04  0.15538093072E+04  0.44276070775E+03 0.  0.
      99925    2    3    3    0    0  0.85514068354E+02  0.49530962403E+02  0.87089229228E+03  0.91509618648E+03  0.26302409327E+03 0.  0.
         25    1    3    3    0    0 -0.85514068354E+02 -0.49530962403E+02  0.61849896555E+03  0.63871312074E+03  0.12509000000E+03 0.  0.
         25    1    4    4    0    0  0.53056367022E+02 -0.65062585623E+01  0.50580187922E+03  0.52377510307E+03  0.12509000000E+03 0.  0.
         25    1    4    4    0    0  0.32457701332E+02  0.56037220966E+02  0.36509041306E+03  0.39132108340E+03  0.12509000000E+03 0.  0.
<mgrwt>
<rscale>  2 0.44276071E+03</rscale>
<asrwt>0</asrwt>
<pdfrwt beam="1">  1       21 0.22376470E+00 0.44276071E+03</pdfrwt>
<pdfrwt beam="2">  1       21 0.47366223E-02 0.44276071E+03</pdfrwt>
<totfact> 0.24762147E+04</totfact>
</mgrwt>
</event>
<event>
 7    0  0.4779893E-002  0.4616013E+03  0.7546771E-02  0.1024318E+00
         21   -1    0    0  502  501  0.00000000000E+00  0.00000000000E+00  0.34726801883E+03  0.34726801883E+03  0.00000000000E+00 0. -1.
         21   -1    0    0  501  502 -0.00000000000E+00 -0.00000000000E+00 -0.15339432760E+03  0.15339432760E+03  0.00000000000E+00 0. -1.
      99926    2    1    2    0    0  0.71054273576E-14  0.14210854715E-13  0.19387369123E+03  0.50066234643E+03  0.46160131821E+03 0.  0.
      99925    2    3    3    0    0 -0.48261484346E+02 -0.10878181956E+03  0.11257481405E+03  0.30982296195E+03  0.26297247736E+03 0.  0.
         25    1    3    3    0    0  0.48261484346E+02  0.10878181956E+03  0.81298877176E+02  0.19083938448E+03  0.12509000000E+03 0.  0.
         25    1    4    4    0    0 -0.26801648964E+02 -0.14389661961E+02  0.33682702325E+02  0.13306924248E+03  0.12509000000E+03 0.  0.
         25    1    4    4    0    0 -0.21459835381E+02 -0.94392157603E+02  0.78892111729E+02  0.17675371946E+03  0.12509000000E+03 0.  0.
<mgrwt>
<rscale>  2 0.46160132E+03</rscale>
<asrwt>0</asrwt>
<pdfrwt beam="1">  1       21 0.51068826E-01 0.46160132E+03</pdfrwt>
<pdfrwt beam="2">  1       21 0.22557990E-01 0.46160132E+03</pdfrwt>
<totfact> 0.61915391E+04</totfact>
</mgrwt>
</event>
<event>
 7    0  0.4779893E-002  0.4548699E+03  0.7546771E-02  0.1026280E+00
         21   -1    0    0  502  501  0.00000000000E+00  0.00000000000E+00  0.14166478215E+03  0.14166478215E+03  0.00000000000E+00 0. -1.
         21   -1    0    0  501  502 -0.00000000000E+00 -0.00000000000E+00 -0.36513416873E+03  0.36513416873E+03  0.00000000000E+00 0. -1.
      99926    2    1    2    0    0 -0.17763568394E-14  0.00000000000E+00 -0.22346938658E+03  0.50679895088E+03  0.45486988236E+03 0.  0.
      99925    2    3    3    0    0  0.14611641393E+02 -0.78197383495E+02 -0.50828306677E+02  0.27924504206E+03  0.26280400664E+03 0.  0.
         25    1    4    4    0    0  0.23502076976E+02 -0.20012436866E+02 -0.56940571774E+02  0.14086370031E+03  0.12509000000E+03 0.  0.
         25    1    3    3    0    0 -0.14611641393E+02  0.78197383495E+02 -0.17264107991E+03  0.22755390882E+03  0.12509000000E+03 0.  0.
         25    1    4    4    0    0 -0.88904355821E+01 -0.58184946629E+02  0.61122650970E+01  0.13838134175E+03  0.12509000000E+03 0.  0.
<mgrwt>
<rscale>  2 0.45486988E+03</rscale>
<asrwt>0</asrwt>
<pdfrwt beam="1">  1       21 0.20833056E-01 0.45486988E+03</pdfrwt>
<pdfrwt beam="2">  1       21 0.53696201E-01 0.45486988E+03</pdfrwt>
<totfact> 0.64862566E+04</totfact>
</mgrwt>
</event>
<event>
 7    0  0.4779893E-002  0.4181236E+03  0.7546771E-02  0.1037679E+00
         21   -1    0    0  502  501  0.00000000000E+00  0.00000000000E+00  0.66423926582E+02  0.66423926582E+02  0.00000000000E+00 0.  1.
         21   -1    0    0  501  502 -0.00000000000E+00 -0.00000000000E+00 -0.65799845651E+03  0.65799845651E+03  0.00000000000E+00 0.  1.
      99926    2    1    2    0    0 -0.35527136788E-14  0.00000000000E+00 -0.59157452993E+03  0.72442238309E+03  0.41812362366E+03 0.  0.
      99925    2    3    3    0    0 -0.19995173803E+02 -0.56391887622E+02 -0.31297709898E+03  0.41322487572E+03  0.26309747521E+03 0.  0.
         25    1    4    4    0    0  0.18855596062E+02 -0.16852724216E+02 -0.19225929070E+03  0.23076111192E+03  0.12509000000E+03 0.  0.
         25    1    3    3    0    0  0.19995173803E+02  0.56391887622E+02 -0.27859743095E+03  0.31119750737E+03  0.12509000000E+03 0.  0.
         25    1    4    4    0    0 -0.38850769864E+02 -0.39539163406E+02 -0.12071780828E+03  0.18246376380E+03  0.12509000000E+03 0.  0.
<mgrwt>
<rscale>  2 0.41812362E+03</rscale>
<asrwt>0</asrwt>
<pdfrwt beam="1">  1       21 0.97682241E-02 0.41812362E+03</pdfrwt>
<pdfrwt beam="2">  1       21 0.96764483E-01 0.41812362E+03</pdfrwt>
<totfact> 0.69722990E+04</totfact>
</mgrwt>
</event>
<event>
 7    0  0.4779893E-002  0.4535499E+03  0.7546771E-02  0.1026669E+00
         21   -1    0    0  502  501  0.00000000000E+00  0.00000000000E+00  0.15521534046E+04  0.15521534046E+04  0.00000000000E+00 0. -1.
         21   -1    0    0  501  502 -0.00000000000E+00 -0.00000000000E+00 -0.33132603555E+02  0.33132603555E+02  0.00000000000E+00 0. -1.
      99926    2    1    2    0    0  0.00000000000E+00 -0.17763568394E-14  0.15190208011E+04  0.15852860082E+04  0.45354992410E+03 0.  0.
      99925    2    3    3    0    0 -0.94635425632E+02  0.12654498291E+02  0.75550266922E+03  0.80571981736E+03  0.26321880778E+03 0.  0.
         25    1    3    3    0    0  0.94635425632E+02 -0.12654498291E+02  0.76351813184E+03  0.77956619081E+03  0.12509000000E+03 0.  0.
         25    1    4    4    0    0 -0.15005790970E+02 -0.14698902498E+02  0.29358213163E+03  0.31981120620E+03  0.12509000000E+03 0.  0.
         25    1    4    4    0    0 -0.79629634662E+02  0.27353400789E+02  0.46192053759E+03  0.48590861116E+03  0.12509000000E+03 0.  0.
<mgrwt>
<rscale>  2 0.45354992E+03</rscale>
<asrwt>0</asrwt>
<pdfrwt beam="1">  1       21 0.22825780E+00 0.45354992E+03</pdfrwt>
<pdfrwt beam="2">  1       21 0.48724427E-02 0.45354992E+03</pdfrwt>
<totfact> 0.22010913E+04</totfact>
</mgrwt>
</event>
<event>
 7    0  0.4779893E-002  0.4563603E+03  0.7546771E-02  0.1025842E+00
         21   -1    0    0  502  501  0.00000000000E+00  0.00000000000E+00  0.67831723700E+02  0.67831723700E+02  0.00000000000E+00 0. -1.
         21   -1    0    0  501  502 -0.00000000000E+00 -0.00000000000E+00 -0.76757875539E+03  0.76757875539E+03  0.00000000000E+00 0. -1.
      99926    2    1    2    0    0  0.71054273576E-14  0.00000000000E+00 -0.69974703169E+03  0.83541047909E+03  0.45636034032E+03 0.  0.
      99925    2    3    3    0    0 -0.51437600062E+02 -0.31950059417E+01 -0.62686923014E+03  0.68173967242E+03  0.26295991044E+03 0.  0.
         25    1    3    3    0    0  0.51437600062E+02  0.31950059417E+01 -0.72877801559E+02  0.15367080667E+03  0.12509000000E+03 0.  0.
         25    1    4    4    0    0  0.10014703334E+02 -0.13823479600E+02 -0.25684908624E+03  0.28619983241E+03  0.12509000000E+03 0.  0.
         25    1    4    4    0    0 -0.61452303397E+02  0.10628473658E+02 -0.37002014390E+03  0.39553984001E+03  0.12509000000E+03 0.  0.
<mgrwt>
<rscale>  2 0.45636034E+03</rscale>
<asrwt>0</asrwt>
<pdfrwt beam="1">  1       21 0.99752536E-02 0.45636034E+03</pdfrwt>
<pdfrwt beam="2">  1       21 0.11287923E+00 0.45636034E+03</pdfrwt>
<totfact> 0.45610492E+04</totfact>
</mgrwt>
</event>
<event>
 7    0  0.4779893E-002  0.5121418E+03  0.7546771E-02  0.1010657E+00
         21   -1    0    0  502  501  0.00000000000E+00  0.00000000000E+00  0.79516678315E+03  0.79516678315E+03  0.00000000000E+00 0. -1.
         21   -1    0    0  501  502 -0.00000000000E+00 -0.00000000000E+00 -0.82463575405E+02  0.82463575405E+02  0.00000000000E+00 0. -1.
      99926    2    1    2    0    0  0.00000000000E+00  0.35527136788E-14  0.71270320774E+03  0.87763035855E+03  0.51214176155E+03 0.  0.
      99925    2    3    3    0    0 -0.97658029648E+02  0.25444092055E+02  0.21411933745E+03  0.35378126159E+03  0.26292508021E+03 0.  0.
         25    1    3    3    0    0  0.97658029648E+02 -0.25444092055E+02  0.49858387029E+03  0.52384909697E+03  0.12509000000E+03 0.  0.
         25    1    4    4    0    0 -0.11774424256E+02  0.79703760915E+01  0.12257306219E+03  0.17570949785E+03  0.12509000000E+03 0.  0.
         25    1    4    4    0    0 -0.85883605392E+02  0.17473715964E+02  0.91546275261E+02  0.17807176373E+03  0.12509000000E+03 0.  0.
<mgrwt>
<rscale>  2 0.51214176E+03</rscale>
<asrwt>0</asrwt>
<pdfrwt beam="1">  1       21 0.11693629E+00 0.51214176E+03</pdfrwt>
<pdfrwt beam="2">  1       21 0.12126997E-01 0.51214176E+03</pdfrwt>
<totfact> 0.28920852E+04</totfact>
</mgrwt>
</event>
<event>
 7    0  0.4779893E-002  0.4567396E+03  0.7546771E-02  0.1025731E+00
         21   -1    0    0  502  501  0.00000000000E+00  0.00000000000E+00  0.53996981842E+02  0.53996981842E+02  0.00000000000E+00 0.  1.
         21   -1    0    0  501  502 -0.00000000000E+00 -0.00000000000E+00 -0.96584614270E+03  0.96584614270E+03  0.00000000000E+00 0.  1.
      99926    2    1    2    0    0  0.00000000000E+00  0.00000000000E+00 -0.91184916086E+03  0.10198431245E+04  0.45673964851E+03 0.  0.
      99925    2    3    3    0    0 -0.82709271835E+02 -0.42182089266E+02 -0.42234840371E+03  0.50615192192E+03  0.26304266126E+03 0.  0.
         25    1    3    3    0    0  0.82709271835E+02  0.42182089266E+02 -0.48950075715E+03  0.51369120262E+03  0.12509000000E+03 0.  0.
         25    1    4    4    0    0 -0.58131570126E+02 -0.15165393759E+02 -0.28402848267E+03  0.31611541513E+03  0.12509000000E+03 0.  0.
         25    1    4    4    0    0 -0.24577701709E+02 -0.27016695507E+02 -0.13831992103E+03  0.19003650679E+03  0.12509000000E+03 0.  0.
<mgrwt>
<rscale>  2 0.45673965E+03</rscale>
<asrwt>0</asrwt>
<pdfrwt beam="1">  1       21 0.79407326E-02 0.45673965E+03</pdfrwt>
<pdfrwt beam="2">  1       21 0.14203620E+00 0.45673965E+03</pdfrwt>
<totfact> 0.37886508E+04</totfact>
</mgrwt>
</event>
<event>
 7    0  0.4779893E-002  0.4487988E+03  0.7546771E-02  0.1028081E+00
         21   -1    0    0  502  501  0.00000000000E+00  0.00000000000E+00  0.27331992619E+03  0.27331992619E+03  0.00000000000E+00 0. -1.
         21   -1    0    0  501  502 -0.00000000000E+00 -0.00000000000E+00 -0.18423494796E+03  0.18423494796E+03  0.00000000000E+00 0. -1.
      99926    2    1    2    0    0  0.00000000000E+00  0.00000000000E+00  0.89084978231E+02  0.45755487416E+03  0.44879876283E+03 0.  0.
      99925    2    3    3    0    0  0.81447913682E+02  0.37259340962E+02  0.11660074427E+03  0.30126461018E+03  0.26294982535E+03 0.  0.
         25    1    4    4    0    0  0.86446522342E+00  0.19855975619E+02  0.68039625533E+02  0.14377727849E+03  0.12509000000E+03 0.  0.
         25    1    4    4    0    0  0.80583448459E+02  0.17403365343E+02  0.48561118736E+02  0.15748733169E+03  0.12509000000E+03 0.  0.
         25    1    3    3    0    0 -0.81447913682E+02 -0.37259340962E+02 -0.27515766039E+02  0.15629026397E+03  0.12509000000E+03 0.  0.
<mgrwt>
<rscale>  2 0.44879876E+03</rscale>
<asrwt>0</asrwt>
<pdfrwt beam="1">  1       21 0.40194107E-01 0.44879876E+03</pdfrwt>
<pdfrwt beam="2">  1       21 0.27093375E-01 0.44879876E+03</pdfrwt>
<totfact> 0.71842813E+04</totfact>
</mgrwt>
</event>
<event>
 7    0  0.4779893E-002  0.4473682E+03  0.7546771E-02  0.1028510E+00
         21   -1    0    0  502  501  0.00000000000E+00  0.00000000000E+00  0.17987654123E+03  0.17987654123E+03  0.00000000000E+00 0.  1.
         21   -1    0    0  501  502 -0.00000000000E+00 -0.00000000000E+00 -0.27816060386E+03  0.27816060386E+03  0.00000000000E+00 0.  1.
      99926    2    1    2    0    0  0.35527136788E-14 -0.14210854715E-13 -0.98284062637E+02  0.45803714509E+03  0.44736815858E+03 0.  0.
      99925    2    3    3    0    0  0.29498091172E+02 -0.10149731814E+03 -0.58081466544E+02  0.28940855972E+03  0.26308176431E+03 0.  0.
         25    1    4    4    0    0  0.29836244454E+02 -0.91832563982E+02 -0.34643004581E+02  0.16177474202E+03  0.12509000000E+03 0.  0.
         25    1    3    3    0    0 -0.29498091172E+02  0.10149731814E+03 -0.40202596093E+02  0.16862858537E+03  0.12509000000E+03 0.  0.
         25    1    4    4    0    0 -0.33815328154E+00 -0.96647541542E+01 -0.23438461963E+02  0.12763381770E+03  0.12509000000E+03 0.  0.
<mgrwt>
<rscale>  2 0.44736816E+03</rscale>
<asrwt>0</asrwt>
<pdfrwt beam="1">  1       21 0.26452433E-01 0.44736816E+03</pdfrwt>
<pdfrwt beam="2">  1       21 0.40905970E-01 0.44736816E+03</pdfrwt>
<totfact> 0.72634674E+04</totfact>
</mgrwt>
</event>
<event>
 7    0  0.4779893E-002  0.4553826E+03  0.7546771E-02  0.1026129E+00
         21   -1    0    0  502  501  0.00000000000E+00  0.00000000000E+00  0.75792098147E+02  0.75792098147E+02  0.00000000000E+00 0. -1.
         21   -1    0    0  501  502 -0.00000000000E+00 -0.00000000000E+00 -0.68402013903E+03  0.68402013903E+03  0.00000000000E+00 0. -1.
      99926    2    1    2    0    0  0.17763568394E-14  0.00000000000E+00 -0.60822804088E+03  0.75981223717E+03  0.45538257108E+03 0.  0.
      99925    2    3    3    0    0 -0.12241595062E+02 -0.64461075803E+02 -0.22763463744E+03  0.35385172951E+03  0.26284678307E+03 0.  0.
         25    1    3    3    0    0  0.12241595062E+02  0.64461075803E+02 -0.38059340344E+03  0.40596050767E+03  0.12509000000E+03 0.  0.
         25    1    4    4    0    0 -0.11171516380E+02 -0.46366444555E+02 -0.67751786809E+02  0.15004153650E+03  0.12509000000E+03 0.  0.
         25    1    4    4    0    0 -0.10700786818E+01 -0.18094631248E+02 -0.15988285063E+03  0.20381019301E+03  0.12509000000E+03 0.  0.
<mgrwt>
<rscale>  2 0.45538257E+03</rscale>
<asrwt>0</asrwt>
<pdfrwt beam="1">  1       21 0.11145896E-01 0.45538257E+03</pdfrwt>
<pdfrwt beam="2">  1       21 0.10059120E+00 0.45538257E+03</pdfrwt>
<totfact> 0.49620387E+04</totfact>
</mgrwt>
</event>
<event>
 7    0  0.4779893E-002  0.4529431E+03  0.7546771E-02  0.1026848E+00
         21   -1    0    0  502  501  0.00000000000E+00  0.00000000000E+00  0.10319045155E+03  0.10319045155E+03  0.00000000000E+00 0.  1.
         21   -1    0    0  501  502 -0.00000000000E+00 -0.00000000000E+00 -0.49703594227E+03  0.49703594227E+03  0.00000000000E+00 0.  1.
      99926    2    1    2    0    0  0.00000000000E+00  0.00000000000E+00 -0.39384549072E+03  0.60022639383E+03  0.45294310160E+03 0.  0.
      99925    2    3    3    0    0 -0.10348820830E+03 -0.32954476760E+02 -0.21648480617E+03  0.35753290953E+03  0.26299867547E+03 0.  0.
         25    1    3    3    0    0  0.10348820830E+03  0.32954476760E+02 -0.17736068455E+03  0.24269348430E+03  0.12509000000E+03 0.  0.
         25    1    4    4    0    0 -0.62740737770E+02 -0.48717138596E+02 -0.84818285342E+02  0.17073783821E+03  0.12509000000E+03 0.  0.
         25    1    4    4    0    0 -0.40747470530E+02  0.15762661836E+02 -0.13166652083E+03  0.18679507132E+03  0.12509000000E+03 0.  0.
<mgrwt>
<rscale>  2 0.45294310E+03</rscale>
<asrwt>0</asrwt>
<pdfrwt beam="1">  1       21 0.15175067E-01 0.45294310E+03</pdfrwt>
<pdfrwt beam="2">  1       21 0.73093519E-01 0.45294310E+03</pdfrwt>
<totfact> 0.59627498E+04</totfact>
</mgrwt>
</event>
<event>
 7    0  0.4779893E-002  0.4631513E+03  0.7546771E-02  0.1023871E+00
         21   -1    0    0  502  501  0.00000000000E+00  0.00000000000E+00  0.12567734976E+04  0.12567734976E+04  0.00000000000E+00 0. -1.
         21   -1    0    0  501  502 -0.00000000000E+00 -0.00000000000E+00 -0.42670599558E+02  0.42670599558E+02  0.00000000000E+00 0. -1.
      99926    2    1    2    0    0 -0.17763568394E-14 -0.11102230246E-15  0.12141028981E+04  0.12994440972E+04  0.46315128696E+03 0.  0.
      99925    2    3    3    0    0  0.73827564310E+01  0.94944399979E+00  0.10964555918E+04  0.11275609877E+04  0.26291350251E+03 0.  0.
         25    1    4    4    0    0 -0.24047006337E+02  0.52345264844E+01  0.66944125318E+03  0.68147249273E+03  0.12509000000E+03 0.  0.
         25    1    4    4    0    0  0.31429762768E+02 -0.42850824846E+01  0.42701433859E+03  0.44608849501E+03  0.12509000000E+03 0.  0.
         25    1    3    3    0    0 -0.73827564310E+01 -0.94944399979E+00  0.11764730631E+03  0.17188310947E+03  0.12509000000E+03 0.  0.
<mgrwt>
<rscale>  2 0.46315129E+03</rscale>
<asrwt>0</asrwt>
<pdfrwt beam="1">  1       21 0.18481961E+00 0.46315129E+03</pdfrwt>
<pdfrwt beam="2">  1       21 0.62750890E-02 0.46315129E+03</pdfrwt>
<totfact> 0.27354580E+04</totfact>
</mgrwt>
</event>
<event>
 7    0  0.4779893E-002  0.4560388E+03  0.7546771E-02  0.1025936E+00
         21   -1    0    0  502  501  0.00000000000E+00  0.00000000000E+00  0.16474088387E+03  0.16474088387E+03  0.00000000000E+00 0.  1.
         21   -1    0    0  501  502 -0.00000000000E+00 -0.00000000000E+00 -0.31560378447E+03  0.31560378447E+03  0.00000000000E+00 0.  1.
      99926    2    1    2    0    0  0.00000000000E+00 -0.17763568394E-14 -0.15086290061E+03  0.48034466834E+03  0.45603879837E+03 0.  0.
      99925    2    3    3    0    0 -0.35384974349E+02  0.93567853447E+01 -0.20877664837E+03  0.33772224331E+03  0.26292390321E+03 0.  0.
         25    1    3    3    0    0  0.35384974349E+02 -0.93567853447E+01  0.57913747765E+02  0.14262242503E+03  0.12509000000E+03 0.  0.
         25    1    4    4    0    0 -0.30513221901E+01 -0.20651118804E+02 -0.66463775728E+02  0.14318072796E+03  0.12509000000E+03 0.  0.
         25    1    4    4    0    0 -0.32333652159E+02  0.30007904149E+02 -0.14231287264E+03  0.19454151535E+03  0.12509000000E+03 0.  0.
<mgrwt>
<rscale>  2 0.45603880E+03</rscale>
<asrwt>0</asrwt>
<pdfrwt beam="1">  1       21 0.24226601E-01 0.45603880E+03</pdfrwt>
<pdfrwt beam="2">  1       21 0.46412321E-01 0.45603880E+03</pdfrwt>
<totfact> 0.66128083E+04</totfact>
</mgrwt>
</event>
<event>
 7    0  0.4779893E-002  0.4686843E+03  0.7546771E-02  0.1022292E+00
         21   -1    0    0  502  501  0.00000000000E+00  0.00000000000E+00  0.16719417346E+03  0.16719417346E+03  0.00000000000E+00 0.  1.
         21   -1    0    0  501  502 -0.00000000000E+00 -0.00000000000E+00 -0.32845784728E+03  0.32845784728E+03  0.00000000000E+00 0.  1.
      99926    2    1    2    0    0  0.00000000000E+00 -0.44408920985E-15 -0.16126367382E+03  0.49565202074E+03  0.46868427877E+03 0.  0.
      99925    2    3    3    0    0  0.38515349180E+02 -0.30532371671E+01  0.26135054031E+02  0.26705073973E+03  0.26294543571E+03 0.  0.
         25    1    4    4    0    0 -0.60769398654E+01 -0.46886630910E+01  0.44468528162E+02  0.13298071611E+03  0.12509000000E+03 0.  0.
         25    1    4    4    0    0  0.44592289046E+02  0.16354259239E+01 -0.18333474132E+02  0.13407002362E+03  0.12509000000E+03 0.  0.
         25    1    3    3    0    0 -0.38515349180E+02  0.30532371671E+01 -0.18739872785E+03  0.22860128101E+03  0.12509000000E+03 0.  0.
<mgrwt>
<rscale>  2 0.46868428E+03</rscale>
<asrwt>0</asrwt>
<pdfrwt beam="1">  1       21 0.24587378E-01 0.46868428E+03</pdfrwt>
<pdfrwt beam="2">  1       21 0.48302625E-01 0.46868428E+03</pdfrwt>
<totfact> 0.58912575E+04</totfact>
</mgrwt>
</event>
<event>
 7    0  0.4779893E-002  0.4546112E+03  0.7546771E-02  0.1026356E+00
         21   -1    0    0  502  501  0.00000000000E+00  0.00000000000E+00  0.27497521645E+02  0.27497521645E+02  0.00000000000E+00 0. -1.
         21   -1    0    0  501  502 -0.00000000000E+00 -0.00000000000E+00 -0.18790000226E+04  0.18790000226E+04  0.00000000000E+00 0. -1.
      99926    2    1    2    0    0 -0.14210854715E-13 -0.71054273576E-14 -0.18515025010E+04  0.19064975443E+04  0.45461123520E+03 0.  0.
      99925    2    3    3    0    0  0.89106942052E+02  0.56241275984E+02 -0.99415553917E+03  0.10336891751E+04  0.26280210509E+03 0.  0.
         25    1    4    4    0    0  0.55449267164E+02  0.62558651375E+02 -0.60791080352E+03  0.62625175388E+03  0.12509000000E+03 0.  0.
         25    1    4    4    0    0  0.33657674888E+02 -0.63173753905E+01 -0.38624473564E+03  0.40743742124E+03  0.12509000000E+03 0.  0.
         25    1    3    3    0    0 -0.89106942052E+02 -0.56241275984E+02 -0.85734696180E+03  0.87280836914E+03  0.12509000000E+03 0.  0.
<mgrwt>
<rscale>  2 0.45461124E+03</rscale>
<asrwt>0</asrwt>
<pdfrwt beam="1">  1       21 0.40437530E-02 0.45461124E+03</pdfrwt>
<pdfrwt beam="2">  1       21 0.27632355E+00 0.45461124E+03</pdfrwt>
<totfact> 0.15343198E+04</totfact>
</mgrwt>
</event>
<event>
 7    0  0.4779893E-002  0.4497412E+03  0.7546771E-02  0.1027799E+00
         21   -1    0    0  502  501  0.00000000000E+00  0.00000000000E+00  0.98654332248E+02  0.98654332248E+02  0.00000000000E+00 0. -1.
         21   -1    0    0  501  502 -0.00000000000E+00 -0.00000000000E+00 -0.51256531800E+03  0.51256531800E+03  0.00000000000E+00 0. -1.
      99926    2    1    2    0    0  0.71054273576E-14  0.00000000000E+00 -0.41391098575E+03  0.61121965025E+03  0.44974121083E+03 0.  0.
      99925    2    3    3    0    0  0.36218652741E+02 -0.33722104285E+02 -0.13100567209E+03  0.29795954152E+03  0.26299891851E+03 0.  0.
         25    1    3    3    0    0 -0.36218652741E+02  0.33722104285E+02 -0.28290531366E+03  0.31326010873E+03  0.12509000000E+03 0.  0.
         25    1    4    4    0    0  0.44602838929E+02 -0.29203816343E+02 -0.36199475827E+02  0.14071313471E+03  0.12509000000E+03 0.  0.
         25    1    4    4    0    0 -0.83841861879E+01 -0.45182879420E+01 -0.94806196264E+02  0.15724640681E+03  0.12509000000E+03 0.  0.
<mgrwt>
<rscale>  2 0.44974121E+03</rscale>
<asrwt>0</asrwt>
<pdfrwt beam="1">  1       21 0.14507990E-01 0.44974121E+03</pdfrwt>
<pdfrwt beam="2">  1       21 0.75377251E-01 0.44974121E+03</pdfrwt>
<totfact> 0.60465565E+04</totfact>
</mgrwt>
</event>
<event>
 7    0  0.4779893E-002  0.4517636E+03  0.7546771E-02  0.1027197E+00
         21   -1    0    0  502  501  0.00000000000E+00  0.00000000000E+00  0.46778180324E+02  0.46778180324E+02  0.00000000000E+00 0. -1.
         21   -1    0    0  501  502 -0.00000000000E+00 -0.00000000000E+00 -0.10907347945E+04  0.10907347945E+04  0.00000000000E+00 0. -1.
      99926    2    1    2    0    0  0.00000000000E+00  0.00000000000E+00 -0.10439566141E+04  0.11375129748E+04  0.45176360589E+03 0.  0.
      99925    2    3    3    0    0 -0.64716449033E+02 -0.88679390008E+02 -0.63973399211E+03  0.70036804545E+03  0.26306570555E+03 0.  0.
         25    1    4    4    0    0 -0.65598950320E+02 -0.34382383757E+02 -0.27663797831E+03  0.31250831947E+03  0.12509000000E+03 0.  0.
         25    1    4    4    0    0  0.88250128698E+00 -0.54297006251E+02 -0.36309601380E+03  0.38785972598E+03  0.12509000000E+03 0.  0.
         25    1    3    3    0    0  0.64716449033E+02  0.88679390008E+02 -0.40422262202E+03  0.43714492934E+03  0.12509000000E+03 0.  0.
<mgrwt>
<rscale>  2 0.45176361E+03</rscale>
<asrwt>0</asrwt>
<pdfrwt beam="1">  1       21 0.68791446E-02 0.45176361E+03</pdfrwt>
<pdfrwt beam="2">  1       21 0.16040216E+00 0.45176361E+03</pdfrwt>
<totfact> 0.35078627E+04</totfact>
</mgrwt>
</event>
<event>
 7    0  0.4779893E-002  0.4438805E+03  0.7546771E-02  0.1029563E+00
         21   -1    0    0  502  501  0.00000000000E+00  0.00000000000E+00  0.33610153862E+03  0.33610153862E+03  0.00000000000E+00 0.  1.
         21   -1    0    0  501  502 -0.00000000000E+00 -0.00000000000E+00 -0.14655531857E+03  0.14655531857E+03  0.00000000000E+00 0.  1.
      99926    2    1    2    0    0  0.00000000000E+00  0.00000000000E+00  0.18954622005E+03  0.48265685719E+03  0.44388047069E+03 0.  0.
      99925    2    3    3    0    0  0.37160992104E+02  0.16465751853E+02  0.22272161233E+03  0.34700961221E+03  0.26298040621E+03 0.  0.
         25    1    4    4    0    0  0.37389702599E+02  0.29940128295E+02  0.15231895594E+03  0.20283730816E+03  0.12509000000E+03 0.  0.
         25    1    3    3    0    0 -0.37160992104E+02 -0.16465751853E+02 -0.33175392278E+02  0.13564724498E+03  0.12509000000E+03 0.  0.
         25    1    4    4    0    0 -0.22871049552E+00 -0.13474376442E+02  0.70402656390E+02  0.14417230405E+03  0.12509000000E+03 0.  0.
<mgrwt>
<rscale>  2 0.44388047E+03</rscale>
<asrwt>0</asrwt>
<pdfrwt beam="1">  1       21 0.49426697E-01 0.44388047E+03</pdfrwt>
<pdfrwt beam="2">  1       21 0.21552253E-01 0.44388047E+03</pdfrwt>
<totfact> 0.72717321E+04</totfact>
</mgrwt>
</event>
<event>
 7    0  0.4779893E-002  0.4357459E+03  0.7546771E-02  0.1032060E+00
         21   -1    0    0  502  501  0.00000000000E+00  0.00000000000E+00  0.35389068294E+03  0.35389068294E+03  0.00000000000E+00 0. -1.
         21   -1    0    0  501  502 -0.00000000000E+00 -0.00000000000E+00 -0.13413354531E+03  0.13413354531E+03  0.00000000000E+00 0. -1.
      99926    2    1    2    0    0  0.00000000000E+00  0.00000000000E+00  0.21975713763E+03  0.48802422825E+03  0.43574585233E+03 0.  0.
      99925    2    3    3    0    0 -0.43280876172E+02 -0.72501372116E+02  0.95435528260E+02  0.29249148455E+03  0.26327484742E+03 0.  0.
         25    1    4    4    0    0 -0.35449986561E+02 -0.28620571646E+02  0.87806115719E+02  0.15947808855E+03  0.12509000000E+03 0.  0.
         25    1    4    4    0    0 -0.78308896104E+01 -0.43880800470E+02  0.76294125416E+01  0.13301339601E+03  0.12509000000E+03 0.  0.
         25    1    3    3    0    0  0.43280876172E+02  0.72501372116E+02  0.12432160937E+03  0.19553274370E+03  0.12509000000E+03 0.  0.
<mgrwt>
<rscale>  2 0.43574585E+03</rscale>
<asrwt>0</asrwt>
<pdfrwt beam="1">  1       21 0.52042748E-01 0.43574585E+03</pdfrwt>
<pdfrwt beam="2">  1       21 0.19725521E-01 0.43574585E+03</pdfrwt>
<totfact> 0.77272459E+04</totfact>
</mgrwt>
</event>
<event>
 7    0  0.4779893E-002  0.4627891E+03  0.7546771E-02  0.1023975E+00
         21   -1    0    0  502  501  0.00000000000E+00  0.00000000000E+00  0.32808814201E+03  0.32808814201E+03  0.00000000000E+00 0. -1.
         21   -1    0    0  501  502 -0.00000000000E+00 -0.00000000000E+00 -0.16319832468E+03  0.16319832468E+03  0.00000000000E+00 0. -1.
      99926    2    1    2    0    0  0.14210854715E-13  0.88817841970E-15  0.16488981733E+03  0.49128646669E+03  0.46278908856E+03 0.  0.
      99925    2    3    3    0    0 -0.12000377007E+03 -0.46359978335E+01  0.10492813130E+03  0.30780537993E+03  0.26327142244E+03 0.  0.
         25    1    4    4    0    0 -0.34235816925E+02 -0.23046856036E+02  0.76733552294E+02  0.15244275936E+03  0.12509000000E+03 0.  0.
         25    1    4    4    0    0 -0.85767953141E+02  0.18410858202E+02  0.28194579003E+02  0.15536262057E+03  0.12509000000E+03 0.  0.
         25    1    3    3    0    0  0.12000377007E+03  0.46359978335E+01  0.59961686038E+02  0.18348108676E+03  0.12509000000E+03 0.  0.
<mgrwt>
<rscale>  2 0.46278909E+03</rscale>
<asrwt>0</asrwt>
<pdfrwt beam="1">  1       21 0.48248256E-01 0.46278909E+03</pdfrwt>
<pdfrwt beam="2">  1       21 0.23999754E-01 0.46278909E+03</pdfrwt>
<totfact> 0.61966114E+04</totfact>
</mgrwt>
</event>
<event>
 7    0  0.4779893E-002  0.4525068E+03  0.7546771E-02  0.1026977E+00
         21   -1    0    0  502  501  0.00000000000E+00  0.00000000000E+00  0.10406509540E+04  0.10406509540E+04  0.00000000000E+00 0. -1.
         21   -1    0    0  501  502 -0.00000000000E+00 -0.00000000000E+00 -0.49190951870E+02  0.49190951870E+02  0.00000000000E+00 0. -1.
      99926    2    1    2    0    0 -0.88817841970E-15  0.00000000000E+00  0.99146000211E+03  0.10898419058E+04  0.45250684411E+03 0.  0.
      99925    2    3    3    0    0  0.28190327682E+01  0.96647257829E+02  0.49702759593E+03  0.57074697063E+03  0.26337622135E+03 0.  0.
         25    1    4    4    0    0 -0.31087664775E+02  0.73381678040E+02  0.28133761550E+03  0.31804036782E+03  0.12509000000E+03 0.  0.
         25    1    3    3    0    0 -0.28190327682E+01 -0.96647257829E+02  0.49443240618E+03  0.51909493522E+03  0.12509000000E+03 0.  0.
         25    1    4    4    0    0  0.33906697543E+02  0.23265579789E+02  0.21568998043E+03  0.25270660280E+03  0.12509000000E+03 0.  0.
<mgrwt>
<rscale>  2 0.45250684E+03</rscale>
<asrwt>0</asrwt>
<pdfrwt beam="1">  1       21 0.15303689E+00 0.45250684E+03</pdfrwt>
<pdfrwt beam="2">  1       21 0.72339642E-02 0.45250684E+03</pdfrwt>
<totfact> 0.36554362E+04</totfact>
</mgrwt>
</event>
<event>
 7    0  0.4779893E-002  0.4616337E+03  0.7546771E-02  0.1024308E+00
         21   -1    0    0  502  501  0.00000000000E+00  0.00000000000E+00  0.24976183678E+03  0.24976183678E+03  0.00000000000E+00 0.  1.
         21   -1    0    0  501  502 -0.00000000000E+00 -0.00000000000E+00 -0.21330891422E+03  0.21330891422E+03  0.00000000000E+00 0.  1.
      99926    2    1    2    0    0  0.00000000000E+00  0.00000000000E+00  0.36452922567E+02  0.46307075100E+03  0.46163373454E+03 0.  0.
      99925    2    3    3    0    0  0.21628435101E+02 -0.42395505013E+02 -0.86967535298E+02  0.28101228355E+03  0.26294368838E+03 0.  0.
         25    1    4    4    0    0  0.14985667042E+02 -0.20727091892E+02 -0.85893765215E+02  0.15388121899E+03  0.12509000000E+03 0.  0.
         25    1    4    4    0    0  0.66427680591E+01 -0.21668413122E+02 -0.10737700828E+01  0.12713106456E+03  0.12509000000E+03 0.  0.
         25    1    3    3    0    0 -0.21628435101E+02  0.42395505013E+02  0.12342045787E+03  0.18205846745E+03  0.12509000000E+03 0.  0.
<mgrwt>
<rscale>  2 0.46163373E+03</rscale>
<asrwt>0</asrwt>
<pdfrwt beam="1">  1       21 0.36729682E-01 0.46163373E+03</pdfrwt>
<pdfrwt beam="2">  1       21 0.31368958E-01 0.46163373E+03</pdfrwt>
<totfact> 0.64477671E+04</totfact>
</mgrwt>
</event>
<event>
 7    0  0.4779893E-002  0.4530469E+03  0.7546771E-02  0.1026817E+00
         21   -1    0    0  502  501  0.00000000000E+00  0.00000000000E+00  0.81904977156E+02  0.81904977156E+02  0.00000000000E+00 0.  1.
         21   -1    0    0  501  502 -0.00000000000E+00 -0.00000000000E+00 -0.62649273612E+03  0.62649273612E+03  0.00000000000E+00 0.  1.
      99926    2    1    2    0    0  0.00000000000E+00  0.14210854715E-13 -0.54458775896E+03  0.70839771327E+03  0.45304689929E+03 0.  0.
      99925    2    3    3    0    0 -0.24124006478E+02 -0.84960826779E+02 -0.23735287300E+03  0.36511780849E+03  0.26301011003E+03 0.  0.
         25    1    4    4    0    0 -0.14421405997E+02 -0.57823311658E+02 -0.73120961215E+02  0.15667065900E+03  0.12509000000E+03 0.  0.
         25    1    3    3    0    0  0.24124006478E+02  0.84960826779E+02 -0.30723488596E+03  0.34327990478E+03  0.12509000000E+03 0.  0.
         25    1    4    4    0    0 -0.97026004811E+01 -0.27137515121E+02 -0.16423191179E+03  0.20844714949E+03  0.12509000000E+03 0.  0.
<mgrwt>
<rscale>  2 0.45304690E+03</rscale>
<asrwt>0</asrwt>
<pdfrwt beam="1">  1       21 0.12044849E-01 0.45304690E+03</pdfrwt>
<pdfrwt beam="2">  1       21 0.92131286E-01 0.45304690E+03</pdfrwt>
<totfact> 0.53263176E+04</totfact>
</mgrwt>
</event>
<event>
 7    0  0.4779893E-002  0.4481672E+03  0.7546771E-02  0.1028270E+00
         21   -1    0    0  502  501  0.00000000000E+00  0.00000000000E+00  0.17113541157E+03  0.17113541157E+03  0.00000000000E+00 0. -1.
         21   -1    0    0  501  502 -0.00000000000E+00 -0.00000000000E+00 -0.29341363363E+03  0.29341363363E+03  0.00000000000E+00 0. -1.
      99926    2    1    2    0    0 -0.35527136788E-14 -0.35527136788E-14 -0.12227822206E+03  0.46454904519E+03  0.44816721411E+03 0.  0.
      99925    2    3    3    0    0  0.30725883758E+02  0.31806651909E+02  0.22963996905E+02  0.26782956647E+03  0.26315316545E+03 0.  0.
         25    1    3    3    0    0 -0.30725883758E+02 -0.31806651909E+02 -0.14524221896E+03  0.19671947872E+03  0.12509000000E+03 0.  0.
         25    1    4    4    0    0 -0.10437671726E+02 -0.14589329269E+01 -0.15943062277E+02  0.12654154579E+03  0.12509000000E+03 0.  0.
         25    1    4    4    0    0  0.41163555484E+02  0.33265584836E+02  0.38907059182E+02  0.14128802068E+03  0.12509000000E+03 0.  0.
<mgrwt>
<rscale>  2 0.44816721E+03</rscale>
<asrwt>0</asrwt>
<pdfrwt beam="1">  1       21 0.25166972E-01 0.44816721E+03</pdfrwt>
<pdfrwt beam="2">  1       21 0.43149063E-01 0.44816721E+03</pdfrwt>
<totfact> 0.71648904E+04</totfact>
</mgrwt>
</event>
<event>
 7    0  0.4779893E-002  0.4587366E+03  0.7546771E-02  0.1025148E+00
         21   -1    0    0  502  501  0.00000000000E+00  0.00000000000E+00  0.30305029718E+03  0.30305029718E+03  0.00000000000E+00 0.  1.
         21   -1    0    0  501  502 -0.00000000000E+00 -0.00000000000E+00 -0.17360093448E+03  0.17360093448E+03  0.00000000000E+00 0.  1.
      99926    2    1    2    0    0  0.71054273576E-14  0.00000000000E+00  0.12944936270E+03  0.47665123166E+03  0.45873659015E+03 0.  0.
      99925    2    3    3    0    0  0.45629912371E+02  0.97444061537E+02  0.34582663962E+02  0.28632353357E+03  0.26307369917E+03 0.  0.
         25    1    4    4    0    0  0.93534756778E+01  0.12518859888E+02  0.35023969662E+02  0.13083728792E+03  0.12509000000E+03 0.  0.
         25    1    3    3    0    0 -0.45629912371E+02 -0.97444061537E+02  0.94866698738E+02  0.19032769809E+03  0.12509000000E+03 0.  0.
         25    1    4    4    0    0  0.36276436693E+02  0.84925201649E+02 -0.44130570003E+00  0.15548624565E+03  0.12509000000E+03 0.  0.
<mgrwt>
<rscale>  2 0.45873659E+03</rscale>
<asrwt>0</asrwt>
<pdfrwt beam="1">  1       21 0.44566220E-01 0.45873659E+03</pdfrwt>
<pdfrwt beam="2">  1       21 0.25529549E-01 0.45873659E+03</pdfrwt>
<totfact> 0.64995951E+04</totfact>
</mgrwt>
</event>
<event>
 7    0  0.4779893E-002  0.4620956E+03  0.7546771E-02  0.1024175E+00
         21   -1    0    0  502  501  0.00000000000E+00  0.00000000000E+00  0.42158590455E+02  0.42158590455E+02  0.00000000000E+00 0.  1.
         21   -1    0    0  501  502 -0.00000000000E+00 -0.00000000000E+00 -0.12662445659E+04  0.12662445659E+04  0.00000000000E+00 0.  1.
      99926    2    1    2    0    0  0.00000000000E+00  0.00000000000E+00 -0.12240859754E+04  0.13084031563E+04  0.46209560080E+03 0.  0.
      99925    2    3    3    0    0 -0.40946356057E+02 -0.71779047708E+02 -0.52060086527E+03  0.58912042745E+03  0.26307561908E+03 0.  0.
         25    1    4    4    0    0 -0.47540364752E+02 -0.13358560215E+02 -0.21314589055E+03  0.25202622119E+03  0.12509000000E+03 0.  0.
         25    1    4    4    0    0  0.65940086948E+01 -0.58420487493E+02 -0.30745497472E+03  0.33709420626E+03  0.12509000000E+03 0.  0.
         25    1    3    3    0    0  0.40946356057E+02  0.71779047708E+02 -0.70348511014E+03  0.71928272887E+03  0.12509000000E+03 0.  0.
<mgrwt>
<rscale>  2 0.46209560E+03</rscale>
<asrwt>0</asrwt>
<pdfrwt beam="1">  1       21 0.61997918E-02 0.46209560E+03</pdfrwt>
<pdfrwt beam="2">  1       21 0.18621246E+00 0.46209560E+03</pdfrwt>
<totfact> 0.27331755E+04</totfact>
</mgrwt>
</event>
<event>
 7    0  0.4779893E-002  0.4555272E+03  0.7546771E-02  0.1026086E+00
         21   -1    0    0  502  501  0.00000000000E+00  0.00000000000E+00  0.91583921824E+02  0.91583921824E+02  0.00000000000E+00 0. -1.
         21   -1    0    0  501  502 -0.00000000000E+00 -0.00000000000E+00 -0.56643414709E+03  0.56643414709E+03  0.00000000000E+00 0. -1.
      99926    2    1    2    0    0  0.17763568394E-14  0.00000000000E+00 -0.47485022526E+03  0.65801806891E+03  0.45552721387E+03 0.  0.
      99925    2    3    3    0    0 -0.10076868568E+02 -0.80042938825E+02 -0.41445213814E+03  0.49738229343E+03  0.26288810486E+03 0.  0.
         25    1    4    4    0    0 -0.30671803783E+02 -0.67264856305E+02 -0.18877700185E+03  0.23822171389E+03  0.12509000000E+03 0.  0.
         25    1    4    4    0    0  0.20594935215E+02 -0.12778082520E+02 -0.22567513629E+03  0.25916057954E+03  0.12509000000E+03 0.  0.
         25    1    3    3    0    0  0.10076868568E+02  0.80042938825E+02 -0.60398087127E+02  0.16063577548E+03  0.12509000000E+03 0.  0.
<mgrwt>
<rscale>  2 0.45552721E+03</rscale>
<asrwt>0</asrwt>
<pdfrwt beam="1">  1       21 0.13468224E-01 0.45552721E+03</pdfrwt>
<pdfrwt beam="2">  1       21 0.83299137E-01 0.45552721E+03</pdfrwt>
<totfact> 0.55012639E+04</totfact>
</mgrwt>
</event>
<event>
 7    0  0.4779893E-002  0.4525998E+03  0.7546771E-02  0.1026950E+00
         21   -1    0    0  502  501  0.00000000000E+00  0.00000000000E+00  0.27565412623E+03  0.27565412623E+03  0.00000000000E+00 0. -1.
         21   -1    0    0  501  502 -0.00000000000E+00 -0.00000000000E+00 -0.18578224433E+03  0.18578224433E+03  0.00000000000E+00 0. -1.
      99926    2    1    2    0    0 -0.14210854715E-13  0.00000000000E+00  0.89871881906E+02  0.46143637056E+03  0.45259978891E+03 0.  0.
      99925    2    3    3    0    0  0.76359526085E+02 -0.66097878557E+02  0.10179326242E+02  0.28199802933E+03  0.26309610999E+03 0.  0.
         25    1    4    4    0    0 -0.14850586585E+01 -0.44639439710E+02  0.85716355809E+01  0.13310096173E+03  0.12509000000E+03 0.  0.
         25    1    3    3    0    0 -0.76359526085E+02  0.66097878557E+02  0.79692555664E+02  0.17943834123E+03  0.12509000000E+03 0.  0.
         25    1    4    4    0    0  0.77844584743E+02 -0.21458438846E+02  0.16076906612E+01  0.14889706760E+03  0.12509000000E+03 0.  0.
<mgrwt>
<rscale>  2 0.45259979E+03</rscale>
<asrwt>0</asrwt>
<pdfrwt beam="1">  1       21 0.40537372E-01 0.45259979E+03</pdfrwt>
<pdfrwt beam="2">  1       21 0.27320918E-01 0.45259979E+03</pdfrwt>
<totfact> 0.69390112E+04</totfact>
</mgrwt>
</event>
<event>
 7    0  0.4779893E-002  0.4579881E+03  0.7546771E-02  0.1025366E+00
         21   -1    0    0  502  501  0.00000000000E+00  0.00000000000E+00  0.74308687356E+02  0.74308687356E+02  0.00000000000E+00 0.  1.
         21   -1    0    0  501  502 -0.00000000000E+00 -0.00000000000E+00 -0.70568153956E+03  0.70568153956E+03  0.00000000000E+00 0.  1.
      99926    2    1    2    0    0  0.00000000000E+00  0.00000000000E+00 -0.63137285220E+03  0.77999022692E+03  0.45798807363E+03 0.  0.
      99925    2    3    3    0    0 -0.51885109302E+02  0.50078423038E+01 -0.57265077970E+03  0.63229820631E+03  0.26297331263E+03 0.  0.
         25    1    4    4    0    0 -0.59673216822E+02  0.86813518186E+01 -0.35375063851E+03  0.38003063169E+03  0.12509000000E+03 0.  0.
         25    1    4    4    0    0  0.77881075197E+01 -0.36735095149E+01 -0.21890014119E+03  0.25226757462E+03  0.12509000000E+03 0.  0.
         25    1    3    3    0    0  0.51885109302E+02 -0.50078423038E+01 -0.58722072500E+02  0.14769202061E+03  0.12509000000E+03 0.  0.
<mgrwt>
<rscale>  2 0.45798807E+03</rscale>
<asrwt>0</asrwt>
<pdfrwt beam="1">  1       21 0.10927748E-01 0.45798807E+03</pdfrwt>
<pdfrwt beam="2">  1       21 0.10377670E+00 0.45798807E+03</pdfrwt>
<totfact> 0.47621162E+04</totfact>
</mgrwt>
</event>
<event>
 7    0  0.4779893E-002  0.4554931E+03  0.7546771E-02  0.1026096E+00
         21   -1    0    0  502  501  0.00000000000E+00  0.00000000000E+00  0.42256793756E+02  0.42256793756E+02  0.00000000000E+00 0. -1.
         21   -1    0    0  501  502 -0.00000000000E+00 -0.00000000000E+00 -0.12274593699E+04  0.12274593699E+04  0.00000000000E+00 0. -1.
      99926    2    1    2    0    0  0.71054273576E-14  0.00000000000E+00 -0.11852025761E+04  0.12697161636E+04  0.45549312810E+03 0.  0.
      99925    2    3    3    0    0 -0.47869733036E+02  0.33452312260E+02 -0.47360550967E+03  0.54485172002E+03  0.26296511076E+03 0.  0.
         25    1    4    4    0    0  0.14710594944E+02  0.19164466927E+01 -0.21789705719E+03  0.25168772319E+03  0.12509000000E+03 0.  0.
         25    1    4    4    0    0 -0.62580327980E+02  0.31535865567E+02 -0.25570845248E+03  0.29316399683E+03  0.12509000000E+03 0.  0.
         25    1    3    3    0    0  0.47869733036E+02 -0.33452312260E+02 -0.71159706645E+03  0.72486444362E+03  0.12509000000E+03 0.  0.
<mgrwt>
<rscale>  2 0.45549313E+03</rscale>
<asrwt>0</asrwt>
<pdfrwt beam="1">  1       21 0.62142341E-02 0.45549313E+03</pdfrwt>
<pdfrwt beam="2">  1       21 0.18050874E+00 0.45549313E+03</pdfrwt>
<totfact> 0.29892163E+04</totfact>
</mgrwt>
</event>
<event>
 7    0  0.4779893E-002  0.4602641E+03  0.7546771E-02  0.1024705E+00
         21   -1    0    0  502  501  0.00000000000E+00  0.00000000000E+00  0.48723305245E+03  0.48723305245E+03  0.00000000000E+00 0.  1.
         21   -1    0    0  501  502 -0.00000000000E+00 -0.00000000000E+00 -0.10869695551E+03  0.10869695551E+03  0.00000000000E+00 0.  1.
      99926    2    1    2    0    0  0.00000000000E+00  0.00000000000E+00  0.37853609694E+03  0.59593000796E+03  0.46026405214E+03 0.  0.
      99925    2    3    3    0    0  0.67552320723E+02  0.70583415032E+02  0.15130561668E+03  0.31875401012E+03  0.26299314596E+03 0.  0.
         25    1    4    4    0    0  0.43178158915E+02  0.27312843257E+02  0.11967457029E+03  0.18049890772E+03  0.12509000000E+03 0.  0.
         25    1    4    4    0    0  0.24374161808E+02  0.43270571775E+02  0.31631046388E+02  0.13825510241E+03  0.12509000000E+03 0.  0.
         25    1    3    3    0    0 -0.67552320723E+02 -0.70583415032E+02  0.22723048027E+03  0.27717599783E+03  0.12509000000E+03 0.  0.
<mgrwt>
<rscale>  2 0.46026405E+03</rscale>
<asrwt>0</asrwt>
<pdfrwt beam="1">  1       21 0.71651918E-01 0.46026405E+03</pdfrwt>
<pdfrwt beam="2">  1       21 0.15984847E-01 0.46026405E+03</pdfrwt>
<totfact> 0.56540521E+04</totfact>
</mgrwt>
</event>
<event>
 7    0  0.4779893E-002  0.4557786E+03  0.7546771E-02  0.1026013E+00
         21   -1    0    0  502  501  0.00000000000E+00  0.00000000000E+00  0.16836553607E+04  0.16836553607E+04  0.00000000000E+00 0.  1.
         21   -1    0    0  501  502 -0.00000000000E+00 -0.00000000000E+00 -0.30845700718E+02  0.30845700718E+02  0.00000000000E+00 0.  1.
      99926    2    1    2    0    0  0.17763568394E-14  0.11102230246E-14  0.16528096600E+04  0.17145010614E+04  0.45577858383E+03 0.  0.
      99925    2    3    3    0    0 -0.81878975909E+01 -0.59509028478E+00  0.61156616841E+03  0.66573849885E+03  0.26292047221E+03 0.  0.
         25    1    3    3    0    0  0.81878975909E+01  0.59509028478E+00  0.10412434916E+04  0.10487625626E+04  0.12509000000E+03 0.  0.
         25    1    4    4    0    0  0.12182967595E+02 -0.34318954707E+02  0.26792766944E+03  0.29792441911E+03  0.12509000000E+03 0.  0.
         25    1    4    4    0    0 -0.20370865185E+02  0.33723864422E+02  0.34363849897E+03  0.36781407974E+03  0.12509000000E+03 0.  0.
<mgrwt>
<rscale>  2 0.45577858E+03</rscale>
<asrwt>0</asrwt>
<pdfrwt beam="1">  1       21 0.24759631E+00 0.45577858E+03</pdfrwt>
<pdfrwt beam="2">  1       21 0.45361336E-02 0.45577858E+03</pdfrwt>
<totfact> 0.18847427E+04</totfact>
</mgrwt>
</event>
<event>
 7    0  0.4779893E-002  0.4578793E+03  0.7546771E-02  0.1025398E+00
         21   -1    0    0  502  501  0.00000000000E+00  0.00000000000E+00  0.10670579901E+03  0.10670579901E+03  0.00000000000E+00 0.  1.
         21   -1    0    0  501  502 -0.00000000000E+00 -0.00000000000E+00 -0.49119508983E+03  0.49119508983E+03  0.00000000000E+00 0.  1.
      99926    2    1    2    0    0  0.00000000000E+00  0.00000000000E+00 -0.38448929082E+03  0.59790088884E+03  0.45787930519E+03 0.  0.
      99925    2    3    3    0    0  0.30938034703E+02 -0.10162132190E+03 -0.18107023600E+03  0.33653739671E+03  0.26303409277E+03 0.  0.
         25    1    3    3    0    0 -0.30938034703E+02  0.10162132190E+03 -0.20341905482E+03  0.26136349214E+03  0.12509000000E+03 0.  0.
         25    1    4    4    0    0  0.55873815130E+02 -0.46993295532E+02 -0.88479673166E+02  0.16972452299E+03  0.12509000000E+03 0.  0.
         25    1    4    4    0    0 -0.24935780427E+02 -0.54628026370E+02 -0.92590562831E+02  0.16681287371E+03  0.12509000000E+03 0.  0.
<mgrwt>
<rscale>  2 0.45787931E+03</rscale>
<asrwt>0</asrwt>
<pdfrwt beam="1">  1       21 0.15692030E-01 0.45787931E+03</pdfrwt>
<pdfrwt beam="2">  1       21 0.72234570E-01 0.45787931E+03</pdfrwt>
<totfact> 0.57488484E+04</totfact>
</mgrwt>
</event>
<event>
 7    0  0.4779893E-002  0.4521312E+03  0.7546771E-02  0.1027088E+00
         21   -1    0    0  502  501  0.00000000000E+00  0.00000000000E+00  0.11322460023E+03  0.11322460023E+03  0.00000000000E+00 0. -1.
         21   -1    0    0  501  502 -0.00000000000E+00 -0.00000000000E+00 -0.45136529080E+03  0.45136529080E+03  0.00000000000E+00 0. -1.
      99926    2    1    2    0    0  0.00000000000E+00  0.00000000000E+00 -0.33814069058E+03  0.56458989103E+03  0.45213119604E+03 0.  0.
      99925    2    3    3    0    0  0.29135948157E+02 -0.45220440152E+02 -0.92814578402E+02  0.28400799372E+03  0.26296806432E+03 0.  0.
         25    1    3    3    0    0 -0.29135948157E+02  0.45220440152E+02 -0.24532611217E+03  0.28058189731E+03  0.12509000000E+03 0.  0.
         25    1    4    4    0    0 -0.24702481413E+02 -0.32420884073E+02 -0.42341731020E+02  0.13820874284E+03  0.12509000000E+03 0.  0.
         25    1    4    4    0    0  0.53838429571E+02 -0.12799556079E+02 -0.50472847383E+02  0.14579925088E+03  0.12509000000E+03 0.  0.
<mgrwt>
<rscale>  2 0.45213120E+03</rscale>
<asrwt>0</asrwt>
<pdfrwt beam="1">  1       21 0.16650677E-01 0.45213120E+03</pdfrwt>
<pdfrwt beam="2">  1       21 0.66377248E-01 0.45213120E+03</pdfrwt>
<totfact> 0.62314439E+04</totfact>
</mgrwt>
</event>
<event>
 7    0  0.4779893E-002  0.4564609E+03  0.7546771E-02  0.1025813E+00
         21   -1    0    0  502  501  0.00000000000E+00  0.00000000000E+00  0.23793213236E+03  0.23793213236E+03  0.00000000000E+00 0. -1.
         21   -1    0    0  501  502 -0.00000000000E+00 -0.00000000000E+00 -0.21892432556E+03  0.21892432556E+03  0.00000000000E+00 0. -1.
      99926    2    1    2    0    0  0.00000000000E+00  0.00000000000E+00  0.19007806802E+02  0.45685645792E+03  0.45646087064E+03 0.  0.
      99925    2    3    3    0    0 -0.66293268976E+02 -0.40193900030E+02  0.96245521570E+02  0.29065320948E+03  0.26306983987E+03 0.  0.
         25    1    3    3    0    0  0.66293268976E+02  0.40193900030E+02 -0.77237714767E+02  0.16620324845E+03  0.12509000000E+03 0.  0.
         25    1    4    4    0    0 -0.68640335799E+01  0.42980272340E+01  0.67531226402E+02  0.14238526130E+03  0.12509000000E+03 0.  0.
         25    1    4    4    0    0 -0.59429235396E+02 -0.44491927264E+02  0.28714295168E+02  0.14826794818E+03  0.12509000000E+03 0.  0.
<mgrwt>
<rscale>  2 0.45646087E+03</rscale>
<asrwt>0</asrwt>
<pdfrwt beam="1">  1       21 0.34990020E-01 0.45646087E+03</pdfrwt>
<pdfrwt beam="2">  1       21 0.32194754E-01 0.45646087E+03</pdfrwt>
<totfact> 0.67618411E+04</totfact>
</mgrwt>
</event>
<event>
 7    0  0.4779893E-002  0.4536892E+03  0.7546771E-02  0.1026628E+00
         21   -1    0    0  502  501  0.00000000000E+00  0.00000000000E+00  0.20177090348E+03  0.20177090348E+03  0.00000000000E+00 0. -1.
         21   -1    0    0  501  502 -0.00000000000E+00 -0.00000000000E+00 -0.25503410666E+03  0.25503410666E+03  0.00000000000E+00 0. -1.
      99926    2    1    2    0    0  0.00000000000E+00  0.00000000000E+00 -0.53263203175E+02  0.45680501014E+03  0.45368915402E+03 0.  0.
      99925    2    3    3    0    0 -0.55980232045E+02 -0.28572868568E+02 -0.12747631200E+03  0.29835852447E+03  0.26233071457E+03 0.  0.
         25    1    4    4    0    0 -0.17464704344E-01 -0.33885872334E+02 -0.39741056787E+02  0.13555483150E+03  0.12509000000E+03 0.  0.
         25    1    3    3    0    0  0.55980232045E+02  0.28572868568E+02  0.74213108825E+02  0.15844648566E+03  0.12509000000E+03 0.  0.
         25    1    4    4    0    0 -0.55962767340E+02  0.53130037653E+01 -0.87735255214E+02  0.16280369297E+03  0.12509000000E+03 0.  0.
<mgrwt>
<rscale>  2 0.45368915E+03</rscale>
<asrwt>0</asrwt>
<pdfrwt beam="1">  1       21 0.29672192E-01 0.45368915E+03</pdfrwt>
<pdfrwt beam="2">  1       21 0.37505016E-01 0.45368915E+03</pdfrwt>
<totfact> 0.69133871E+04</totfact>
</mgrwt>
</event>
<event>
 7    0  0.4779893E-002  0.4436117E+03  0.7546771E-02  0.1029644E+00
         21   -1    0    0  502  501  0.00000000000E+00  0.00000000000E+00  0.14443917848E+03  0.14443917848E+03  0.00000000000E+00 0.  1.
         21   -1    0    0  501  502 -0.00000000000E+00 -0.00000000000E+00 -0.34061274107E+03  0.34061274107E+03  0.00000000000E+00 0.  1.
      99926    2    1    2    0    0  0.00000000000E+00  0.88817841970E-15 -0.19617356259E+03  0.48505191955E+03  0.44361165223E+03 0.  0.
      99925    2    3    3    0    0 -0.81921613207E+02 -0.41977431714E+01 -0.57973670674E+02  0.28139659802E+03  0.26285799803E+03 0.  0.
         25    1    4    4    0    0 -0.58965655928E+02  0.29331929056E+02 -0.11231646235E+02  0.14181314685E+03  0.12509000000E+03 0.  0.
         25    1    4    4    0    0 -0.22955957279E+02 -0.33529672228E+02 -0.46742024439E+02  0.13958345118E+03  0.12509000000E+03 0.  0.
         25    1    3    3    0    0  0.81921613207E+02  0.41977431714E+01 -0.13819989192E+03  0.20365532152E+03  0.12509000000E+03 0.  0.
<mgrwt>
<rscale>  2 0.44361165E+03</rscale>
<asrwt>0</asrwt>
<pdfrwt beam="1">  1       21 0.21241056E-01 0.44361165E+03</pdfrwt>
<pdfrwt beam="2">  1       21 0.50090109E-01 0.44361165E+03</pdfrwt>
<totfact> 0.72686653E+04</totfact>
</mgrwt>
</event>
<event>
 7    0  0.4779893E-002  0.4448497E+03  0.7546771E-02  0.1029269E+00
         21   -1    0    0  502  501  0.00000000000E+00  0.00000000000E+00  0.67933548341E+02  0.67933548341E+02  0.00000000000E+00 0. -1.
         21   -1    0    0  501  502 -0.00000000000E+00 -0.00000000000E+00 -0.72825295785E+03  0.72825295785E+03  0.00000000000E+00 0. -1.
      99926    2    1    2    0    0  0.00000000000E+00  0.00000000000E+00 -0.66031940951E+03  0.79618650619E+03  0.44484967131E+03 0.  0.
      99925    2    3    3    0    0 -0.94862662500E+02 -0.40723325279E+02 -0.40929024529E+03  0.49732121321E+03  0.26296876290E+03 0.  0.
         25    1    3    3    0    0  0.94862662500E+02  0.40723325279E+02 -0.25102916421E+03  0.29886529297E+03  0.12509000000E+03 0.  0.
         25    1    4    4    0    0 -0.52722033192E+02 -0.67870243048E+01 -0.13785145298E+03  0.19358772604E+03  0.12509000000E+03 0.  0.
         25    1    4    4    0    0 -0.42140629307E+02 -0.33936300974E+02 -0.27143879231E+03  0.30373348718E+03  0.12509000000E+03 0.  0.
<mgrwt>
<rscale>  2 0.44484967E+03</rscale>
<asrwt>0</asrwt>
<pdfrwt beam="1">  1       21 0.99902280E-02 0.44484967E+03</pdfrwt>
<pdfrwt beam="2">  1       21 0.10709602E+00 0.44484967E+03</pdfrwt>
<totfact> 0.51967592E+04</totfact>
</mgrwt>
</event>
<event>
 7    0  0.4779893E-002  0.4524170E+03  0.7546771E-02  0.1027004E+00
         21   -1    0    0  502  501  0.00000000000E+00  0.00000000000E+00  0.10084578682E+03  0.10084578682E+03  0.00000000000E+00 0.  1.
         21   -1    0    0  501  502 -0.00000000000E+00 -0.00000000000E+00 -0.50741129016E+03  0.50741129016E+03  0.00000000000E+00 0.  1.
      99926    2    1    2    0    0 -0.14210854715E-13  0.22204460493E-14 -0.40656550334E+03  0.60825707698E+03  0.45241702354E+03 0.  0.
      99925    2    3    3    0    0 -0.76647802557E+02 -0.32698354349E+01 -0.36380446455E+03  0.45541208361E+03  0.26298460033E+03 0.  0.
         25    1    4    4    0    0 -0.74964910819E+02 -0.20562880342E+02 -0.18386721138E+03  0.23557849949E+03  0.12509000000E+03 0.  0.
         25    1    3    3    0    0  0.76647802557E+02  0.32698354349E+01 -0.42761038791E+02  0.15284499337E+03  0.12509000000E+03 0.  0.
         25    1    4    4    0    0 -0.16828917377E+01  0.17293044907E+02 -0.17993725317E+03  0.21983358412E+03  0.12509000000E+03 0.  0.
<mgrwt>
<rscale>  2 0.45241702E+03</rscale>
<asrwt>0</asrwt>
<pdfrwt beam="1">  1       21 0.14830263E-01 0.45241702E+03</pdfrwt>
<pdfrwt beam="2">  1       21 0.74619306E-01 0.45241702E+03</pdfrwt>
<totfact> 0.59375101E+04</totfact>
</mgrwt>
</event>
<event>
 7    0  0.4779893E-002  0.4573876E+03  0.7546771E-02  0.1025542E+00
         21   -1    0    0  502  501  0.00000000000E+00  0.00000000000E+00  0.13592295016E+03  0.13592295016E+03  0.00000000000E+00 0. -1.
         21   -1    0    0  501  502 -0.00000000000E+00 -0.00000000000E+00 -0.38478309303E+03  0.38478309303E+03  0.00000000000E+00 0. -1.
      99926    2    1    2    0    0  0.00000000000E+00  0.00000000000E+00 -0.24886014288E+03  0.52070604319E+03  0.45738759570E+03 0.  0.
      99925    2    3    3    0    0  0.10946419061E+03  0.30354924337E+02 -0.17925735324E+03  0.33796062770E+03  0.26302158985E+03 0.  0.
         25    1    4    4    0    0  0.82458730009E+02 -0.13740756032E+02 -0.82588226794E+02  0.17162917536E+03  0.12509000000E+03 0.  0.
         25    1    3    3    0    0 -0.10946419061E+03 -0.30354924337E+02 -0.69602789644E+02  0.18274541549E+03  0.12509000000E+03 0.  0.
         25    1    4    4    0    0  0.27005460597E+02  0.44095680369E+02 -0.96669126441E+02  0.16633145234E+03  0.12509000000E+03 0.  0.
<mgrwt>
<rscale>  2 0.45738760E+03</rscale>
<asrwt>0</asrwt>
<pdfrwt beam="1">  1       21 0.19988670E-01 0.45738760E+03</pdfrwt>
<pdfrwt beam="2">  1       21 0.56585747E-01 0.45738760E+03</pdfrwt>
<totfact> 0.62644077E+04</totfact>
</mgrwt>
</event>
<event>
 7    0  0.4779893E-002  0.4541683E+03  0.7546771E-02  0.1026486E+00
         21   -1    0    0  502  501  0.00000000000E+00  0.00000000000E+00  0.19628270250E+03  0.19628270250E+03  0.00000000000E+00 0.  1.
         21   -1    0    0  501  502 -0.00000000000E+00 -0.00000000000E+00 -0.26271913547E+03  0.26271913547E+03  0.00000000000E+00 0.  1.
      99926    2    1    2    0    0 -0.17763568394E-14  0.00000000000E+00 -0.66436432962E+02  0.45900183797E+03  0.45416834724E+03 0.  0.
      99925    2    3    3    0    0  0.87360583472E+01 -0.89570775700E+02 -0.10979961284E+03  0.29891712276E+03  0.26305179856E+03 0.  0.
         25    1    4    4    0    0  0.32668972054E+02 -0.63400274310E+02 -0.32369909650E+02  0.14758785746E+03  0.12509000000E+03 0.  0.
         25    1    3    3    0    0 -0.87360583472E+01  0.89570775700E+02  0.43363179876E+02  0.16008471521E+03  0.12509000000E+03 0.  0.
         25    1    4    4    0    0 -0.23932913707E+02 -0.26170501390E+02 -0.77429703189E+02  0.15132926530E+03  0.12509000000E+03 0.  0.
<mgrwt>
<rscale>  2 0.45416835E+03</rscale>
<asrwt>0</asrwt>
<pdfrwt beam="1">  1       21 0.28865103E-01 0.45416835E+03</pdfrwt>
<pdfrwt beam="2">  1       21 0.38635167E-01 0.45416835E+03</pdfrwt>
<totfact> 0.68707932E+04</totfact>
</mgrwt>
</event>
<event>
 7    0  0.4779893E-002  0.4569744E+03  0.7546771E-02  0.1025662E+00
         21   -1    0    0  502  501  0.00000000000E+00  0.00000000000E+00  0.22095156691E+03  0.22095156691E+03  0.00000000000E+00 0. -1.
         21   -1    0    0  501  502 -0.00000000000E+00 -0.00000000000E+00 -0.23627984334E+03  0.23627984334E+03  0.00000000000E+00 0. -1.
      99926    2    1    2    0    0  0.00000000000E+00 -0.14210854715E-13 -0.15328276427E+02  0.45723141025E+03  0.45697440460E+03 0.  0.
      99925    2    3    3    0    0 -0.59751033308E+02  0.90676471700E+02 -0.47863576009E+02  0.28841653437E+03  0.26287024724E+03 0.  0.
         25    1    4    4    0    0 -0.16309669606E+02  0.80053934666E+02 -0.43053763648E+02  0.15548560204E+03  0.12509000000E+03 0.  0.
         25    1    3    3    0    0  0.59751033308E+02 -0.90676471700E+02  0.32535299582E+02  0.16881487589E+03  0.12509000000E+03 0.  0.
         25    1    4    4    0    0 -0.43441363702E+02  0.10622537034E+02 -0.48098123605E+01  0.13293093232E+03  0.12509000000E+03 0.  0.
<mgrwt>
<rscale>  2 0.45697440E+03</rscale>
<asrwt>0</asrwt>
<pdfrwt beam="1">  1       21 0.32492877E-01 0.45697440E+03</pdfrwt>
<pdfrwt beam="2">  1       21 0.34747036E-01 0.45697440E+03</pdfrwt>
<totfact> 0.67315908E+04</totfact>
</mgrwt>
</event>
<event>
 7    0  0.4779893E-002  0.4623768E+03  0.7546771E-02  0.1024094E+00
         21   -1    0    0  502  501  0.00000000000E+00  0.00000000000E+00  0.21499579980E+03  0.21499579980E+03  0.00000000000E+00 0. -1.
         21   -1    0    0  501  502 -0.00000000000E+00 -0.00000000000E+00 -0.24860053174E+03  0.24860053174E+03  0.00000000000E+00 0. -1.
      99926    2    1    2    0    0  0.00000000000E+00  0.00000000000E+00 -0.33604731933E+02  0.46359633154E+03  0.46237677343E+03 0.  0.
      99925    2    3    3    0    0 -0.73163398287E+01 -0.79631160753E+02 -0.11050591989E+03  0.29639599840E+03  0.26314326696E+03 0.  0.
         25    1    4    4    0    0 -0.26918692698E+02 -0.75021003635E+02 -0.59458708297E+02  0.15979866425E+03  0.12509000000E+03 0.  0.
         25    1    4    4    0    0  0.19602352869E+02 -0.46101571181E+01 -0.51047211593E+02  0.13659733415E+03  0.12509000000E+03 0.  0.
         25    1    3    3    0    0  0.73163398287E+01  0.79631160753E+02  0.76901187958E+02  0.16720033314E+03  0.12509000000E+03 0.  0.
<mgrwt>
<rscale>  2 0.46237677E+03</rscale>
<asrwt>0</asrwt>
<pdfrwt beam="1">  1       21 0.31617030E-01 0.46237677E+03</pdfrwt>
<pdfrwt beam="2">  1       21 0.36558901E-01 0.46237677E+03</pdfrwt>
<totfact> 0.64065989E+04</totfact>
</mgrwt>
</event>
<event>
 7    0  0.4779893E-002  0.4524975E+03  0.7546771E-02  0.1026980E+00
         21   -1    0    0  502  501  0.00000000000E+00  0.00000000000E+00  0.32072746169E+02  0.32072746169E+02  0.00000000000E+00 0. -1.
         21   -1    0    0  501  502 -0.00000000000E+00 -0.00000000000E+00 -0.15960121744E+04  0.15960121744E+04  0.00000000000E+00 0. -1.
      99926    2    1    2    0    0  0.00000000000E+00  0.14210854715E-13 -0.15639394282E+04  0.16280849205E+04  0.45249748442E+03 0.  0.
      99925    2    3    3    0    0 -0.74718131869E+02 -0.78075237748E+02 -0.89921390189E+03  0.94311333324E+03  0.26305622213E+03 0.  0.
         25    1    4    4    0    0 -0.45503753722E+02 -0.79604821389E+02 -0.45581165073E+03  0.48147615542E+03  0.12509000000E+03 0.  0.
         25    1    3    3    0    0  0.74718131869E+02  0.78075237748E+02 -0.66472552631E+03  0.68497158730E+03  0.12509000000E+03 0.  0.
         25    1    4    4    0    0 -0.29214378147E+02  0.15295836409E+01 -0.44340225116E+03  0.46163717783E+03  0.12509000000E+03 0.  0.
<mgrwt>
<rscale>  2 0.45249748E+03</rscale>
<asrwt>0</asrwt>
<pdfrwt beam="1">  1       21 0.47165794E-02 0.45249748E+03</pdfrwt>
<pdfrwt beam="2">  1       21 0.23470772E+00 0.45249748E+03</pdfrwt>
<totfact> 0.21211675E+04</totfact>
</mgrwt>
</event>
<event>
 7    0  0.4779893E-002  0.4625853E+03  0.7546771E-02  0.1024034E+00
         21   -1    0    0  502  501  0.00000000000E+00  0.00000000000E+00  0.31895854554E+03  0.31895854554E+03  0.00000000000E+00 0.  1.
         21   -1    0    0  501  502 -0.00000000000E+00 -0.00000000000E+00 -0.16772173173E+03  0.16772173173E+03  0.00000000000E+00 0.  1.
      99926    2    1    2    0    0  0.00000000000E+00  0.00000000000E+00  0.15123681381E+03  0.48668027726E+03  0.46258525531E+03 0.  0.
      99925    2    3    3    0    0  0.86843887453E+02 -0.82518905785E+02  0.10598615370E+03  0.30766530320E+03  0.26281865119E+03 0.  0.
         25    1    4    4    0    0  0.48622169784E+02 -0.31772200099E+02  0.11246234148E+02  0.13837475917E+03  0.12509000000E+03 0.  0.
         25    1    3    3    0    0 -0.86843887453E+02  0.82518905785E+02  0.45250660112E+02  0.17901497407E+03  0.12509000000E+03 0.  0.
         25    1    4    4    0    0  0.38221717670E+02 -0.50746705686E+02  0.94739919548E+02  0.16929054402E+03  0.12509000000E+03 0.  0.
<mgrwt>
<rscale>  2 0.46258526E+03</rscale>
<asrwt>0</asrwt>
<pdfrwt beam="1">  1       21 0.46905668E-01 0.46258526E+03</pdfrwt>
<pdfrwt beam="2">  1       21 0.24664961E-01 0.46258526E+03</pdfrwt>
<totfact> 0.62375783E+04</totfact>
</mgrwt>
</event>
<event>
 7    0  0.4779893E-002  0.4596640E+03  0.7546771E-02  0.1024879E+00
         21   -1    0    0  502  501  0.00000000000E+00  0.00000000000E+00  0.87606856355E+02  0.87606856355E+02  0.00000000000E+00 0.  1.
         21   -1    0    0  501  502 -0.00000000000E+00 -0.00000000000E+00 -0.60295234087E+03  0.60295234087E+03  0.00000000000E+00 0.  1.
      99926    2    1    2    0    0  0.00000000000E+00 -0.35527136788E-14 -0.51534548452E+03  0.69055919723E+03  0.45966404739E+03 0.  0.
      99925    2    3    3    0    0  0.66128781276E+02 -0.19820323055E+02 -0.18026858928E+03  0.32629295567E+03  0.26306742048E+03 0.  0.
         25    1    4    4    0    0  0.65003678570E+02 -0.32727201468E+02 -0.79342137812E+02  0.16504311823E+03  0.12509000000E+03 0.  0.
         25    1    3    3    0    0 -0.66128781276E+02  0.19820323055E+02 -0.33507689523E+03  0.36426624156E+03  0.12509000000E+03 0.  0.
         25    1    4    4    0    0  0.11251027054E+01  0.12906878413E+02 -0.10092645147E+03  0.16124983744E+03  0.12509000000E+03 0.  0.
<mgrwt>
<rscale>  2 0.45966405E+03</rscale>
<asrwt>0</asrwt>
<pdfrwt beam="1">  1       21 0.12883361E-01 0.45966405E+03</pdfrwt>
<pdfrwt beam="2">  1       21 0.88669464E-01 0.45966405E+03</pdfrwt>
<totfact> 0.51501524E+04</totfact>
</mgrwt>
</event>
<event>
 7    0  0.4779893E-002  0.4576631E+03  0.7546771E-02  0.1025461E+00
         21   -1    0    0  502  501  0.00000000000E+00  0.00000000000E+00  0.53797568663E+03  0.53797568663E+03  0.00000000000E+00 0. -1.
         21   -1    0    0  501  502 -0.00000000000E+00 -0.00000000000E+00 -0.97335008540E+02  0.97335008540E+02  0.00000000000E+00 0. -1.
      99926    2    1    2    0    0  0.71054273576E-14  0.00000000000E+00  0.44064067809E+03  0.63531069517E+03  0.45766305533E+03 0.  0.
      99925    2    3    3    0    0 -0.37785293915E+02 -0.16544946413E+02  0.12663136892E+03  0.29479517712E+03  0.26299663338E+03 0.  0.
         25    1    4    4    0    0  0.19029671656E+02 -0.13612716081E+02  0.76698098452E+02  0.14858512997E+03  0.12509000000E+03 0.  0.
         25    1    3    3    0    0  0.37785293915E+02  0.16544946413E+02  0.31400930917E+03  0.34051551805E+03  0.12509000000E+03 0.  0.
         25    1    4    4    0    0 -0.56814965571E+02 -0.29322303321E+01  0.49933270471E+02  0.14621004715E+03  0.12509000000E+03 0.  0.
<mgrwt>
<rscale>  2 0.45766306E+03</rscale>
<asrwt>0</asrwt>
<pdfrwt beam="1">  1       21 0.79114070E-01 0.45766306E+03</pdfrwt>
<pdfrwt beam="2">  1       21 0.14313972E-01 0.45766306E+03</pdfrwt>
<totfact> 0.55382468E+04</totfact>
</mgrwt>
</event>
<event>
 7    0  0.4779893E-002  0.4545125E+03  0.7546771E-02  0.1026385E+00
         21   -1    0    0  502  501  0.00000000000E+00  0.00000000000E+00  0.11251029667E+04  0.11251029667E+04  0.00000000000E+00 0. -1.
         21   -1    0    0  501  502 -0.00000000000E+00 -0.00000000000E+00 -0.45902833028E+02  0.45902833028E+02  0.00000000000E+00 0. -1.
      99926    2    1    2    0    0 -0.17763568394E-14  0.00000000000E+00  0.10792001336E+04  0.11710057997E+04  0.45451254600E+03 0.  0.
      99925    2    3    3    0    0  0.15971839904E+02  0.64311592473E+02  0.44457741169E+03  0.52078692277E+03  0.26301875094E+03 0.  0.
         25    1    3    3    0    0 -0.15971839904E+02 -0.64311592473E+02  0.63462272194E+03  0.65021887691E+03  0.12509000000E+03 0.  0.
         25    1    4    4    0    0  0.36009345445E+02  0.62761594645E+02  0.24096696344E+03  0.28097735904E+03  0.12509000000E+03 0.  0.
         25    1    4    4    0    0 -0.20037505542E+02  0.15499978277E+01  0.20361044825E+03  0.23980956373E+03  0.12509000000E+03 0.  0.
<mgrwt>
<rscale>  2 0.45451255E+03</rscale>
<asrwt>0</asrwt>
<pdfrwt beam="1">  1       21 0.16545630E+00 0.45451255E+03</pdfrwt>
<pdfrwt beam="2">  1       21 0.67504174E-02 0.45451255E+03</pdfrwt>
<totfact> 0.33214701E+04</totfact>
</mgrwt>
</event>
<event>
 7    0  0.4779893E-002  0.4456910E+03  0.7546771E-02  0.1029015E+00
         21   -1    0    0  502  501  0.00000000000E+00  0.00000000000E+00  0.27408754213E+03  0.27408754213E+03  0.00000000000E+00 0.  1.
         21   -1    0    0  501  502 -0.00000000000E+00 -0.00000000000E+00 -0.18118340600E+03  0.18118340600E+03  0.00000000000E+00 0.  1.
      99926    2    1    2    0    0  0.14210854715E-13  0.35527136788E-14  0.92904136129E+02  0.45527094813E+03  0.44569098903E+03 0.  0.
      99925    2    3    3    0    0  0.86980851706E+02 -0.10875657158E+02  0.27501149671E+01  0.27790352127E+03  0.26370220992E+03 0.  0.
         25    1    3    3    0    0 -0.86980851706E+02  0.10875657158E+02  0.90154021161E+02  0.17736742687E+03  0.12509000000E+03 0.  0.
         25    1    4    4    0    0  0.65220717393E+02  0.27370674259E+02 -0.13371300196E+02  0.14432323290E+03  0.12509000000E+03 0.  0.
         25    1    4    4    0    0  0.21760134313E+02 -0.38246331417E+02  0.16121415164E+02  0.13358028836E+03  0.12509000000E+03 0.  0.
<mgrwt>
<rscale>  2 0.44569099E+03</rscale>
<asrwt>0</asrwt>
<pdfrwt beam="1">  1       21 0.40306992E-01 0.44569099E+03</pdfrwt>
<pdfrwt beam="2">  1       21 0.26644618E-01 0.44569099E+03</pdfrwt>
<totfact> 0.73851844E+04</totfact>
</mgrwt>
</event>
<event>
 7    0  0.4779893E-002  0.4571835E+03  0.7546771E-02  0.1025601E+00
         21   -1    0    0  502  501  0.00000000000E+00  0.00000000000E+00  0.29889784154E+02  0.29889784154E+02  0.00000000000E+00 0.  1.
         21   -1    0    0  501  502 -0.00000000000E+00 -0.00000000000E+00 -0.17482293693E+04  0.17482293693E+04  0.00000000000E+00 0.  1.
      99926    2    1    2    0    0  0.00000000000E+00  0.00000000000E+00 -0.17183395851E+04  0.17781191534E+04  0.45718354520E+03 0.  0.
      99925    2    3    3    0    0 -0.19633499075E+02  0.11315414542E+03 -0.10665346401E+04  0.11045565881E+04  0.26336245547E+03 0.  0.
         25    1    3    3    0    0  0.19633499075E+02 -0.11315414542E+03 -0.65180494504E+03  0.67356256531E+03  0.12509000000E+03 0.  0.
         25    1    4    4    0    0  0.12500775185E+01  0.80363169153E+02 -0.69147804244E+03  0.70728296525E+03  0.12509000000E+03 0.  0.
         25    1    4    4    0    0 -0.20883576594E+02  0.32790976266E+02 -0.37505659766E+03  0.39727362289E+03  0.12509000000E+03 0.  0.
<mgrwt>
<rscale>  2 0.45718355E+03</rscale>
<asrwt>0</asrwt>
<pdfrwt beam="1">  1       21 0.43955550E-02 0.45718355E+03</pdfrwt>
<pdfrwt beam="2">  1       21 0.25709264E+00 0.45718355E+03</pdfrwt>
<totfact> 0.17387061E+04</totfact>
</mgrwt>
</event>
<event>
 6    0  0.4779893E-002  0.4728212E+03  0.7546771E-02  0.1021127E+00
         21   -1    0    0  502  501  0.00000000000E+00  0.00000000000E+00  0.62175728705E+03  0.62175728705E+03  0.00000000000E+00 0.  1.
         21   -1    0    0  501  502 -0.00000000000E+00 -0.00000000000E+00 -0.89890330595E+02  0.89890330595E+02  0.00000000000E+00 0.  1.
      99926    2    1    2    0    0  0.00000000000E+00  0.00000000000E+00  0.53186695646E+03  0.71164761765E+03  0.47282118431E+03 0.  0.
         25    1    3    3    0    0 -0.24478978202E+02 -0.37502092741E+02  0.11584245113E+03  0.17627424349E+03  0.12509000000E+03 0.  0.
         25    1    3    3    0    0 -0.72920613439E+02 -0.53110231104E+02  0.19812850321E+03  0.25107872151E+03  0.12509000000E+03 0.  0.
         25    1    3    3    0    0  0.97399591641E+02  0.90612323845E+02  0.21789600211E+03  0.28429465264E+03  0.12509000000E+03 0.  0.
<mgrwt>
<rscale>  2 0.47282118E+03</rscale>
<asrwt>0</asrwt>
<pdfrwt beam="1">  1       21 0.91434893E-01 0.47282118E+03</pdfrwt>
<pdfrwt beam="2">  1       21 0.13219167E-01 0.47282118E+03</pdfrwt>
<totfact> 0.45543762E+04</totfact>
</mgrwt>
</event>
<event>
 6    0  0.4779893E-002  0.4488893E+03  0.7546771E-02  0.1028054E+00
         21   -1    0    0  502  501  0.00000000000E+00  0.00000000000E+00  0.10452349417E+04  0.10452349417E+04  0.00000000000E+00 0.  1.
         21   -1    0    0  501  502 -0.00000000000E+00 -0.00000000000E+00 -0.48195286684E+02  0.48195286684E+02  0.00000000000E+00 0.  1.
      99926    2    1    2    0    0  0.00000000000E+00  0.00000000000E+00  0.99703965497E+03  0.10934302283E+04  0.44888928553E+03 0.  0.
         25    1    3    3    0    0 -0.78580078782E+02  0.64055475507E+02  0.31452736859E+03  0.35334530762E+03  0.12509000000E+03 0.  0.
         25    1    3    3    0    0  0.55115967194E+02 -0.37323045921E+02  0.47040721108E+03  0.49128528569E+03  0.12509000000E+03 0.  0.
         25    1    3    3    0    0  0.23464111589E+02 -0.26732429585E+02  0.21210507530E+03  0.24879963503E+03  0.12509000000E+03 0.  0.
<mgrwt>
<rscale>  2 0.44888929E+03</rscale>
<asrwt>0</asrwt>
<pdfrwt beam="1">  1       21 0.15371101E+00 0.44888929E+03</pdfrwt>
<pdfrwt beam="2">  1       21 0.70875428E-02 0.44888929E+03</pdfrwt>
<totfact> 0.37477966E+04</totfact>
</mgrwt>
</event>
<event>
 7    0  0.4779893E-002  0.4460147E+03  0.7546771E-02  0.1028917E+00
         21   -1    0    0  502  501  0.00000000000E+00  0.00000000000E+00  0.17184338868E+04  0.17184338868E+04  0.00000000000E+00 0.  1.
         21   -1    0    0  501  502 -0.00000000000E+00 -0.00000000000E+00 -0.28940464957E+02  0.28940464957E+02  0.00000000000E+00 0.  1.
      99926    2    1    2    0    0 -0.35527136788E-14 -0.14210854715E-13  0.16894934219E+04  0.17473743518E+04  0.44601468892E+03 0.  0.
      99925    2    3    3    0    0  0.18197037082E+02 -0.73181900396E+02  0.13554425097E+04  0.13827865808E+04  0.26303537469E+03 0.  0.
         25    1    4    4    0    0 -0.32627926674E+01  0.22567413277E+01  0.67593868770E+03  0.68742734622E+03  0.12509000000E+03 0.  0.
         25    1    4    4    0    0  0.21459829750E+02 -0.75438641724E+02  0.67950382198E+03  0.69535923460E+03  0.12509000000E+03 0.  0.
         25    1    3    3    0    0 -0.18197037082E+02  0.73181900396E+02  0.33405091220E+03  0.36458777098E+03  0.12509000000E+03 0.  0.
<mgrwt>
<rscale>  2 0.44601469E+03</rscale>
<asrwt>0</asrwt>
<pdfrwt beam="1">  1       21 0.25271080E+00 0.44601469E+03</pdfrwt>
<pdfrwt beam="2">  1       21 0.42559519E-02 0.44601469E+03</pdfrwt>
<totfact> 0.19626779E+04</totfact>
</mgrwt>
</event>
<event>
 7    0  0.4779893E-002  0.4293260E+03  0.7546771E-02  0.1034073E+00
         21   -1    0    0  502  501  0.00000000000E+00  0.00000000000E+00  0.14239879855E+04  0.14239879855E+04  0.00000000000E+00 0.  1.
         21   -1    0    0  501  502 -0.00000000000E+00 -0.00000000000E+00 -0.32359967361E+02  0.32359967361E+02  0.00000000000E+00 0.  1.
      99926    2    1    2    0    0  0.00000000000E+00  0.00000000000E+00  0.13916280181E+04  0.14563479529E+04  0.42932600542E+03 0.  0.
      99925    2    3    3    0    0  0.33948053880E+01 -0.78093640653E+02  0.76822650883E+03  0.81573333289E+03  0.26294250341E+03 0.  0.
         25    1    4    4    0    0  0.40671648390E+02 -0.47321537581E+02  0.41466401472E+03  0.43759257775E+03  0.12509000000E+03 0.  0.
         25    1    3    3    0    0 -0.33948053880E+01  0.78093640653E+02  0.62340150930E+03  0.64061461997E+03  0.12509000000E+03 0.  0.
         25    1    4    4    0    0 -0.37276843002E+02 -0.30772103072E+02  0.35356249411E+03  0.37814075514E+03  0.12509000000E+03 0.  0.
<mgrwt>
<rscale>  2 0.42932601E+03</rscale>
<asrwt>0</asrwt>
<pdfrwt beam="1">  1       21 0.20940996E+00 0.42932601E+03</pdfrwt>
<pdfrwt beam="2">  1       21 0.47588197E-02 0.42932601E+03</pdfrwt>
<totfact> 0.30516852E+04</totfact>
</mgrwt>
</event>
<event>
 7    0  0.4779893E-002  0.4590644E+03  0.7546771E-02  0.1025053E+00
         21   -1    0    0  502  501  0.00000000000E+00  0.00000000000E+00  0.53601320847E+03  0.53601320847E+03  0.00000000000E+00 0. -1.
         21   -1    0    0  501  502 -0.00000000000E+00 -0.00000000000E+00 -0.98290531074E+02  0.98290531074E+02  0.00000000000E+00 0. -1.
      99926    2    1    2    0    0 -0.71054273576E-14 -0.71054273576E-14  0.43772267739E+03  0.63430373954E+03  0.45906436552E+03 0.  0.
      99925    2    3    3    0    0  0.34994910315E+02  0.61648607716E+02  0.40285606257E+03  0.48635650736E+03  0.26310539811E+03 0.  0.
         25    1    4    4    0    0  0.53859985864E+02  0.44459386117E+02  0.23879473010E+03  0.27847435486E+03  0.12509000000E+03 0.  0.
         25    1    3    3    0    0 -0.34994910315E+02 -0.61648607716E+02  0.34866614819E+02  0.14794723218E+03  0.12509000000E+03 0.  0.
         25    1    4    4    0    0 -0.18865075549E+02  0.17189221599E+02  0.16406133248E+03  0.20788215250E+03  0.12509000000E+03 0.  0.
<mgrwt>
<rscale>  2 0.45906437E+03</rscale>
<asrwt>0</asrwt>
<pdfrwt beam="1">  1       21 0.78825471E-01 0.45906437E+03</pdfrwt>
<pdfrwt beam="2">  1       21 0.14454490E-01 0.45906437E+03</pdfrwt>
<totfact> 0.54834505E+04</totfact>
</mgrwt>
</event>
<event>
 7    0  0.4779893E-002  0.3927297E+03  0.7546771E-02  0.1046327E+00
         21   -1    0    0  502  501  0.00000000000E+00  0.00000000000E+00  0.91980231506E+03  0.91980231506E+03  0.00000000000E+00 0.  1.
         21   -1    0    0  501  502 -0.00000000000E+00 -0.00000000000E+00 -0.41921136625E+02  0.41921136625E+02  0.00000000000E+00 0.  1.
      99926    2    1    2    0    0  0.00000000000E+00 -0.35527136788E-14  0.87788117843E+03  0.96172345168E+03  0.39272972140E+03 0.  0.
      99925    2    3    3    0    0 -0.12988800318E+02  0.19092864443E+02  0.62996600314E+03  0.68307907502E+03  0.26307149448E+03 0.  0.
         25    1    4    4    0    0 -0.54517274050E+01  0.43080501371E+02  0.26086303137E+03  0.29254517628E+03  0.12509000000E+03 0.  0.
         25    1    4    4    0    0 -0.75370729132E+01 -0.23987636928E+02  0.36910297176E+03  0.39053389873E+03  0.12509000000E+03 0.  0.
         25    1    3    3    0    0  0.12988800318E+02 -0.19092864443E+02  0.24791517529E+03  0.27864437667E+03  0.12509000000E+03 0.  0.
<mgrwt>
<rscale>  2 0.39272972E+03</rscale>
<asrwt>0</asrwt>
<pdfrwt beam="1">  1       21 0.13526503E+00 0.39272972E+03</pdfrwt>
<pdfrwt beam="2">  1       21 0.61648736E-02 0.39272972E+03</pdfrwt>
<totfact> 0.68375429E+04</totfact>
</mgrwt>
</event>
<event>
 7    0  0.4779893E-002  0.4412929E+03  0.7546771E-02  0.1030351E+00
         21   -1    0    0  502  501  0.00000000000E+00  0.00000000000E+00  0.46758231227E+02  0.46758231227E+02  0.00000000000E+00 0. -1.
         21   -1    0    0  501  502 -0.00000000000E+00 -0.00000000000E+00 -0.10412041770E+04  0.10412041770E+04  0.00000000000E+00 0. -1.
      99926    2    1    2    0    0 -0.42188474936E-14  0.00000000000E+00 -0.99444594581E+03  0.10879624083E+04  0.44129294426E+03 0.  0.
      99925    2    3    3    0    0  0.94330681878E+00 -0.15327224336E+02 -0.87709588577E+03  0.91575799971E+03  0.26283018770E+03 0.  0.
         25    1    3    3    0    0 -0.94330681879E+00  0.15327224336E+02 -0.11735006004E+03  0.17220440855E+03  0.12509000000E+03 0.  0.
         25    1    4    4    0    0 -0.36379893933E+02 -0.15999587537E+02 -0.48829875066E+03  0.50563095384E+03  0.12509000000E+03 0.  0.
         25    1    4    4    0    0  0.37323200752E+02  0.67236320116E+00 -0.38879713511E+03  0.41012704587E+03  0.12509000000E+03 0.  0.
<mgrwt>
<rscale>  2 0.44129294E+03</rscale>
<asrwt>0</asrwt>
<pdfrwt beam="1">  1       21 0.68762104E-02 0.44129294E+03</pdfrwt>
<pdfrwt beam="2">  1       21 0.15311826E+00 0.44129294E+03</pdfrwt>
<totfact> 0.40026711E+04</totfact>
</mgrwt>
</event>
<event>
 7    0  0.4779893E-002  0.4460330E+03  0.7546771E-02  0.1028912E+00
         21   -1    0    0  502  501  0.00000000000E+00  0.00000000000E+00  0.97777676429E+03  0.97777676429E+03  0.00000000000E+00 0.  1.
         21   -1    0    0  501  502 -0.00000000000E+00 -0.00000000000E+00 -0.50866789831E+02  0.50866789831E+02  0.00000000000E+00 0.  1.
      99926    2    1    2    0    0  0.00000000000E+00  0.00000000000E+00  0.92690997446E+03  0.10286435541E+04  0.44603302645E+03 0.  0.
      99925    2    3    3    0    0  0.80407524116E+02 -0.26979758078E+02  0.72893609148E+03  0.77957640711E+03  0.26305564387E+03 0.  0.
         25    1    3    3    0    0 -0.80407524116E+02  0.26979758078E+02  0.19797388298E+03  0.24906714701E+03  0.12509000000E+03 0.  0.
         25    1    4    4    0    0  0.97494274781E+00 -0.23762413024E+02  0.36739203360E+03  0.38883160524E+03  0.12509000000E+03 0.  0.
         25    1    4    4    0    0  0.79432581368E+02 -0.32173450541E+01  0.36154405789E+03  0.39074480186E+03  0.12509000000E+03 0.  0.
<mgrwt>
<rscale>  2 0.44603303E+03</rscale>
<asrwt>0</asrwt>
<pdfrwt beam="1">  1       21 0.14379069E+00 0.44603303E+03</pdfrwt>
<pdfrwt beam="2">  1       21 0.74804109E-02 0.44603303E+03</pdfrwt>
<totfact> 0.40857054E+04</totfact>
</mgrwt>
</event>
<event>
 6    0  0.4779893E-002  0.4547424E+03  0.7546771E-02  0.1026317E+00
         21   -1    0    0  502  501  0.00000000000E+00  0.00000000000E+00  0.22982943424E+03  0.22982943424E+03  0.00000000000E+00 0. -1.
         21   -1    0    0  501  502 -0.00000000000E+00 -0.00000000000E+00 -0.22493927291E+03  0.22493927291E+03  0.00000000000E+00 0. -1.
      99926    2    1    2    0    0  0.00000000000E+00  0.00000000000E+00  0.48901613301E+01  0.45476870716E+03  0.45474241427E+03 0.  0.
         25    1    3    3    0    0  0.74519876336E+02 -0.26708941424E+02  0.67695025499E+02  0.16277808236E+03  0.12509000000E+03 0.  0.
         25    1    3    3    0    0 -0.78368564560E+02  0.43677580058E+02 -0.61280891109E+02  0.16568711062E+03  0.12509000000E+03 0.  0.
         25    1    3    3    0    0  0.38486882240E+01 -0.16968638634E+02 -0.15239730598E+01  0.12630351417E+03  0.12509000000E+03 0.  0.
<mgrwt>
<rscale>  2 0.45474241E+03</rscale>
<asrwt>0</asrwt>
<pdfrwt beam="1">  1       21 0.33798446E-01 0.45474241E+03</pdfrwt>
<pdfrwt beam="2">  1       21 0.33079305E-01 0.45474241E+03</pdfrwt>
<totfact> 0.68703835E+04</totfact>
</mgrwt>
</event>
<event>
 7    0  0.4779893E-002  0.4527127E+03  0.7546771E-02  0.1026916E+00
         21   -1    0    0  502  501  0.00000000000E+00  0.00000000000E+00  0.27538228259E+02  0.27538228259E+02  0.00000000000E+00 0.  1.
         21   -1    0    0  501  502 -0.00000000000E+00 -0.00000000000E+00 -0.18605843413E+04  0.18605843413E+04  0.00000000000E+00 0.  1.
      99926    2    1    2    0    0  0.14210854715E-13  0.00000000000E+00 -0.18330461131E+04  0.18881225696E+04  0.45271269603E+03 0.  0.
      99925    2    3    3    0    0 -0.10390756190E+03  0.34074786947E+02 -0.10741090754E+04  0.11112115014E+04  0.26291219562E+03 0.  0.
         25    1    4    4    0    0 -0.88195533705E+01  0.15505695731E+02 -0.45793129249E+03  0.47504398519E+03  0.12509000000E+03 0.  0.
         25    1    3    3    0    0  0.10390756190E+03 -0.34074786947E+02 -0.75893703770E+03  0.77691106815E+03  0.12509000000E+03 0.  0.
         25    1    4    4    0    0 -0.95088008527E+02  0.18569091216E+02 -0.61617778287E+03  0.63616751624E+03  0.12509000000E+03 0.  0.
<mgrwt>
<rscale>  2 0.45271270E+03</rscale>
<asrwt>0</asrwt>
<pdfrwt beam="1">  1       21 0.40497376E-02 0.45271270E+03</pdfrwt>
<pdfrwt beam="2">  1       21 0.27361547E+00 0.45271270E+03</pdfrwt>
<totfact> 0.15903985E+04</totfact>
</mgrwt>
</event>
<event>
 7    0  0.4779893E-002  0.4632666E+03  0.7546771E-02  0.1023838E+00
         21   -1    0    0  502  501  0.00000000000E+00  0.00000000000E+00  0.11754913572E+03  0.11754913572E+03  0.00000000000E+00 0.  1.
         21   -1    0    0  501  502 -0.00000000000E+00 -0.00000000000E+00 -0.45643883724E+03  0.45643883724E+03  0.00000000000E+00 0.  1.
      99926    2    1    2    0    0  0.00000000000E+00  0.00000000000E+00 -0.33888970151E+03  0.57398797296E+03  0.46326662227E+03 0.  0.
      99925    2    3    3    0    0  0.56940399304E+02 -0.92728320161E+02 -0.27659933757E+03  0.39687685537E+03  0.26298915254E+03 0.  0.
         25    1    4    4    0    0  0.56887064142E+02 -0.71641966404E+02 -0.12426857796E+03  0.19864263638E+03  0.12509000000E+03 0.  0.
         25    1    3    3    0    0 -0.56940399304E+02  0.92728320161E+02 -0.62290363948E+02  0.17711111759E+03  0.12509000000E+03 0.  0.
         25    1    4    4    0    0  0.53335162450E-01 -0.21086353758E+02 -0.15233075960E+03  0.19823421899E+03  0.12509000000E+03 0.  0.
<mgrwt>
<rscale>  2 0.46326662E+03</rscale>
<asrwt>0</asrwt>
<pdfrwt beam="1">  1       21 0.17286638E-01 0.46326662E+03</pdfrwt>
<pdfrwt beam="2">  1       21 0.67123358E-01 0.46326662E+03</pdfrwt>
<totfact> 0.56522406E+04</totfact>
</mgrwt>
</event>
<event>
 7    0  0.4779893E-002  0.4588424E+03  0.7546771E-02  0.1025117E+00
         21   -1    0    0  502  501  0.00000000000E+00  0.00000000000E+00  0.27250289249E+03  0.27250289249E+03  0.00000000000E+00 0.  1.
         21   -1    0    0  501  502 -0.00000000000E+00 -0.00000000000E+00 -0.19315059994E+03  0.19315059994E+03  0.00000000000E+00 0.  1.
      99926    2    1    2    0    0  0.00000000000E+00 -0.14210854715E-13  0.79352292546E+02  0.46565349243E+03  0.45884244429E+03 0.  0.
      99925    2    3    3    0    0  0.54656467851E+02 -0.91177784862E+02  0.10622871350E+01  0.28378114440E+03  0.26311573791E+03 0.  0.
         25    1    4    4    0    0  0.25640437613E+02 -0.25838647141E+02  0.36721663878E+02  0.13535529700E+03  0.12509000000E+03 0.  0.
         25    1    3    3    0    0 -0.54656467851E+02  0.91177784862E+02  0.78290005411E+02  0.18187234803E+03  0.12509000000E+03 0.  0.
         25    1    4    4    0    0  0.29016030238E+02 -0.65339137720E+02 -0.35659376743E+02  0.14842584741E+03  0.12509000000E+03 0.  0.
<mgrwt>
<rscale>  2 0.45884244E+03</rscale>
<asrwt>0</asrwt>
<pdfrwt beam="1">  1       21 0.40073955E-01 0.45884244E+03</pdfrwt>
<pdfrwt beam="2">  1       21 0.28404500E-01 0.45884244E+03</pdfrwt>
<totfact> 0.65730821E+04</totfact>
</mgrwt>
</event>
<event>
 7    0  0.4779893E-002  0.4577539E+03  0.7546771E-02  0.1025435E+00
         21   -1    0    0  502  501  0.00000000000E+00  0.00000000000E+00  0.17583920203E+04  0.17583920203E+04  0.00000000000E+00 0. -1.
         21   -1    0    0  501  502 -0.00000000000E+00 -0.00000000000E+00 -0.29791223442E+02  0.29791223442E+02  0.00000000000E+00 0. -1.
      99926    2    1    2    0    0  0.00000000000E+00  0.14210854715E-13  0.17286007968E+04  0.17881832437E+04  0.45775386213E+03 0.  0.
      99925    2    3    3    0    0 -0.63600460392E+02  0.95021000155E+02  0.10142545038E+04  0.10540087797E+04  0.26296064407E+03 0.  0.
         25    1    4    4    0    0 -0.54542587698E+02  0.85082257692E+02  0.55395028750E+03  0.57682086783E+03  0.12509000000E+03 0.  0.
         25    1    4    4    0    0 -0.90578726933E+01  0.99387424635E+01  0.46030421626E+03  0.47718791191E+03  0.12509000000E+03 0.  0.
         25    1    3    3    0    0  0.63600460392E+02 -0.95021000155E+02  0.71434629305E+03  0.73417446396E+03  0.12509000000E+03 0.  0.
<mgrwt>
<rscale>  2 0.45775386E+03</rscale>
<asrwt>0</asrwt>
<pdfrwt beam="1">  1       21 0.25858699E+00 0.45775386E+03</pdfrwt>
<pdfrwt beam="2">  1       21 0.43810635E-02 0.45775386E+03</pdfrwt>
<totfact> 0.17118688E+04</totfact>
</mgrwt>
</event>
<event>
 7    0  0.4779893E-002  0.4532711E+03  0.7546771E-02  0.1026751E+00
         21   -1    0    0  502  501  0.00000000000E+00  0.00000000000E+00  0.46810065143E+03  0.46810065143E+03  0.00000000000E+00 0. -1.
         21   -1    0    0  501  502 -0.00000000000E+00 -0.00000000000E+00 -0.10972783760E+03  0.10972783760E+03  0.00000000000E+00 0. -1.
      99926    2    1    2    0    0 -0.17763568394E-14  0.14210854715E-13  0.35837281383E+03  0.57782848903E+03  0.45327109883E+03 0.  0.
      99925    2    3    3    0    0 -0.69434304081E+01  0.73829187982E+02  0.12100095562E+03  0.29945487786E+03  0.26369116858E+03 0.  0.
         25    1    3    3    0    0  0.69434304081E+01 -0.73829187982E+02  0.23737185821E+03  0.27837361117E+03  0.12509000000E+03 0.  0.
         25    1    4    4    0    0  0.22216511584E+02  0.14028915240E+02  0.30740587353E+02  0.13146435129E+03  0.12509000000E+03 0.  0.
         25    1    4    4    0    0 -0.29159941992E+02  0.59800272741E+02  0.90260368268E+02  0.16799052657E+03  0.12509000000E+03 0.  0.
<mgrwt>
<rscale>  2 0.45327110E+03</rscale>
<asrwt>0</asrwt>
<pdfrwt beam="1">  1       21 0.68838330E-01 0.45327110E+03</pdfrwt>
<pdfrwt beam="2">  1       21 0.16136447E-01 0.45327110E+03</pdfrwt>
<totfact> 0.60892238E+04</totfact>
</mgrwt>
</event>
<event>
 7    0  0.4779893E-002  0.4564924E+03  0.7546771E-02  0.1025803E+00
         21   -1    0    0  502  501  0.00000000000E+00  0.00000000000E+00  0.69098391412E+02  0.69098391412E+02  0.00000000000E+00 0.  1.
         21   -1    0    0  501  502 -0.00000000000E+00 -0.00000000000E+00 -0.75394402730E+03  0.75394402730E+03  0.00000000000E+00 0.  1.
      99926    2    1    2    0    0  0.00000000000E+00  0.00000000000E+00 -0.68484563589E+03  0.82304241871E+03  0.45649236358E+03 0.  0.
      99925    2    3    3    0    0  0.90858256694E+02 -0.45973857156E+02 -0.33574497194E+03  0.43848085014E+03  0.26300561098E+03 0.  0.
         25    1    4    4    0    0  0.64677884647E+02 -0.56742801146E+02 -0.20746936024E+03  0.25708756831E+03  0.12509000000E+03 0.  0.
         25    1    3    3    0    0 -0.90858256694E+02  0.45973857156E+02 -0.34910066395E+03  0.38456156857E+03  0.12509000000E+03 0.  0.
         25    1    4    4    0    0  0.26180372047E+02  0.10768943990E+02 -0.12827561171E+03  0.18139328183E+03  0.12509000000E+03 0.  0.
<mgrwt>
<rscale>  2 0.45649236E+03</rscale>
<asrwt>0</asrwt>
<pdfrwt beam="1">  1       21 0.10161528E-01 0.45649236E+03</pdfrwt>
<pdfrwt beam="2">  1       21 0.11087412E+00 0.45649236E+03</pdfrwt>
<totfact> 0.46127866E+04</totfact>
</mgrwt>
</event>
<event>
 7    0  0.4779893E-002  0.4533874E+03  0.7546771E-02  0.1026717E+00
         21   -1    0    0  502  501  0.00000000000E+00  0.00000000000E+00  0.62535612960E+02  0.62535612960E+02  0.00000000000E+00 0.  1.
         21   -1    0    0  501  502 -0.00000000000E+00 -0.00000000000E+00 -0.82177235649E+03  0.82177235649E+03  0.00000000000E+00 0.  1.
      99926    2    1    2    0    0  0.00000000000E+00  0.00000000000E+00 -0.75923674353E+03  0.88430796945E+03  0.45338741944E+03 0.  0.
      99925    2    3    3    0    0 -0.84522095616E+02  0.55281204182E+02 -0.38635999802E+03  0.47824815659E+03  0.26314873175E+03 0.  0.
         25    1    3    3    0    0  0.84522095616E+02 -0.55281204182E+02 -0.37287674551E+03  0.40605981286E+03  0.12509000000E+03 0.  0.
         25    1    4    4    0    0 -0.24512520291E+02  0.63301448676E+02 -0.21068507337E+03  0.25425114610E+03  0.12509000000E+03 0.  0.
         25    1    4    4    0    0 -0.60009575325E+02 -0.80202444945E+01 -0.17567492466E+03  0.22399701048E+03  0.12509000000E+03 0.  0.
<mgrwt>
<rscale>  2 0.45338742E+03</rscale>
<asrwt>0</asrwt>
<pdfrwt beam="1">  1       21 0.91964135E-02 0.45338742E+03</pdfrwt>
<pdfrwt beam="2">  1       21 0.12084888E+00 0.45338742E+03</pdfrwt>
<totfact> 0.44478174E+04</totfact>
</mgrwt>
</event>
<event>
 7    0  0.4779893E-002  0.4538789E+03  0.7546771E-02  0.1026572E+00
         21   -1    0    0  502  501  0.00000000000E+00  0.00000000000E+00  0.62616111541E+02  0.62616111541E+02  0.00000000000E+00 0.  1.
         21   -1    0    0  501  502 -0.00000000000E+00 -0.00000000000E+00 -0.82249622017E+03  0.82249622017E+03  0.00000000000E+00 0.  1.
      99926    2    1    2    0    0  0.00000000000E+00  0.00000000000E+00 -0.75988010863E+03  0.88511233171E+03  0.45387890484E+03 0.  0.
      99925    2    3    3    0    0  0.79728660274E+02 -0.72718037343E+02 -0.53714910599E+03  0.60780171190E+03  0.26315240203E+03 0.  0.
         25    1    4    4    0    0  0.67153248946E+02 -0.96995144949E+01 -0.30112198386E+03  0.33305494545E+03  0.12509000000E+03 0.  0.
         25    1    4    4    0    0  0.12575411328E+02 -0.63018522848E+02 -0.23602712213E+03  0.27474676645E+03  0.12509000000E+03 0.  0.
         25    1    3    3    0    0 -0.79728660274E+02  0.72718037343E+02 -0.22273100264E+03  0.27731061981E+03  0.12509000000E+03 0.  0.
<mgrwt>
<rscale>  2 0.45387890E+03</rscale>
<asrwt>0</asrwt>
<pdfrwt beam="1">  1       21 0.92082529E-02 0.45387890E+03</pdfrwt>
<pdfrwt beam="2">  1       21 0.12095531E+00 0.45387890E+03</pdfrwt>
<totfact> 0.44271062E+04</totfact>
</mgrwt>
</event>
<event>
 7    0  0.4779893E-002  0.4515428E+03  0.7546771E-02  0.1027263E+00
         21   -1    0    0  502  501  0.00000000000E+00  0.00000000000E+00  0.13841171929E+03  0.13841171929E+03  0.00000000000E+00 0.  1.
         21   -1    0    0  501  502 -0.00000000000E+00 -0.00000000000E+00 -0.36826880194E+03  0.36826880194E+03  0.00000000000E+00 0.  1.
      99926    2    1    2    0    0 -0.35527136788E-14  0.71054273576E-14 -0.22985708265E+03  0.50668052124E+03  0.45154276891E+03 0.  0.
      99925    2    3    3    0    0 -0.26420139719E+02 -0.32275831001E+02 -0.31012372917E+02  0.26808781444E+03  0.26300105689E+03 0.  0.
         25    1    4    4    0    0 -0.23500499054E+02  0.20749320235E+02 -0.12190680317E+01  0.12896434380E+03  0.12509000000E+03 0.  0.
         25    1    3    3    0    0  0.26420139719E+02  0.32275831001E+02 -0.19884470973E+03  0.23859270680E+03  0.12509000000E+03 0.  0.
         25    1    4    4    0    0 -0.29196406651E+01 -0.53025151236E+02 -0.29793304886E+02  0.13912347063E+03  0.12509000000E+03 0.  0.
<mgrwt>
<rscale>  2 0.45154277E+03</rscale>
<asrwt>0</asrwt>
<pdfrwt beam="1">  1       21 0.20354665E-01 0.45154277E+03</pdfrwt>
<pdfrwt beam="2">  1       21 0.54157176E-01 0.45154277E+03</pdfrwt>
<totfact> 0.66612921E+04</totfact>
</mgrwt>
</event>
<event>
 7    0  0.4779893E-002  0.4544949E+03  0.7546771E-02  0.1026390E+00
         21   -1    0    0  502  501  0.00000000000E+00  0.00000000000E+00  0.14298389002E+03  0.14298389002E+03  0.00000000000E+00 0.  1.
         21   -1    0    0  501  502 -0.00000000000E+00 -0.00000000000E+00 -0.36116938368E+03  0.36116938368E+03  0.00000000000E+00 0.  1.
      99926    2    1    2    0    0  0.00000000000E+00  0.00000000000E+00 -0.21818549366E+03  0.50415327370E+03  0.45449489958E+03 0.  0.
      99925    2    3    3    0    0  0.41519204187E+02  0.10434033392E+03 -0.12703737586E+03  0.31293027018E+03  0.26301351587E+03 0.  0.
         25    1    4    4    0    0 -0.40677723283E+01  0.31212658275E+02 -0.87830691324E+02  0.15605292451E+03  0.12509000000E+03 0.  0.
         25    1    3    3    0    0 -0.41519204187E+02 -0.10434033392E+03 -0.91148117797E+02  0.19122300352E+03  0.12509000000E+03 0.  0.
         25    1    4    4    0    0  0.45586976515E+02  0.73127675646E+02 -0.39206684538E+02  0.15687734567E+03  0.12509000000E+03 0.  0.
<mgrwt>
<rscale>  2 0.45449490E+03</rscale>
<asrwt>0</asrwt>
<pdfrwt beam="1">  1       21 0.21027043E-01 0.45449490E+03</pdfrwt>
<pdfrwt beam="2">  1       21 0.53113144E-01 0.45449490E+03</pdfrwt>
<totfact> 0.65241027E+04</totfact>
</mgrwt>
</event>
<event>
 7    0  0.4779893E-002  0.4714835E+03  0.7546771E-02  0.1021502E+00
         21   -1    0    0  502  501  0.00000000000E+00  0.00000000000E+00  0.41854121956E+03  0.41854121956E+03  0.00000000000E+00 0.  1.
         21   -1    0    0  501  502 -0.00000000000E+00 -0.00000000000E+00 -0.13278064018E+03  0.13278064018E+03  0.00000000000E+00 0.  1.
      99926    2    1    2    0    0  0.00000000000E+00 -0.71054273576E-14  0.28576057938E+03  0.55132185975E+03  0.47148349314E+03 0.  0.
      99925    2    3    3    0    0  0.48406719890E+02 -0.52502373458E+02  0.53047444643E+02  0.27763842779E+03  0.26300067576E+03 0.  0.
         25    1    4    4    0    0  0.33511270962E+02  0.23543856813E+01  0.53762019824E+02  0.14023698260E+03  0.12509000000E+03 0.  0.
         25    1    4    4    0    0  0.14895448927E+02 -0.54856759140E+02 -0.71457518090E+00  0.13740144519E+03  0.12509000000E+03 0.  0.
         25    1    3    3    0    0 -0.48406719890E+02  0.52502373458E+02  0.23271313474E+03  0.27368343196E+03  0.12509000000E+03 0.  0.
<mgrwt>
<rscale>  2 0.47148349E+03</rscale>
<asrwt>0</asrwt>
<pdfrwt beam="1">  1       21 0.61550179E-01 0.47148349E+03</pdfrwt>
<pdfrwt beam="2">  1       21 0.19526565E-01 0.47148349E+03</pdfrwt>
<totfact> 0.54334631E+04</totfact>
</mgrwt>
</event>
<event>
 7    0  0.4779893E-002  0.4584426E+03  0.7546771E-02  0.1025234E+00
         21   -1    0    0  502  501  0.00000000000E+00  0.00000000000E+00  0.11339287997E+03  0.11339287997E+03  0.00000000000E+00 0. -1.
         21   -1    0    0  501  502 -0.00000000000E+00 -0.00000000000E+00 -0.46336606484E+03  0.46336606484E+03  0.00000000000E+00 0. -1.
      99926    2    1    2    0    0 -0.88817841970E-15  0.00000000000E+00 -0.34997318488E+03  0.57675894481E+03  0.45844263577E+03 0.  0.
      99925    2    3    3    0    0 -0.43280484422E+01  0.83582088072E+02 -0.11778510450E+03  0.30005782407E+03  0.26297655693E+03 0.  0.
         25    1    4    4    0    0 -0.18070550318E+02  0.71079666804E+02 -0.35843613187E+02  0.14936912843E+03  0.12509000000E+03 0.  0.
         25    1    4    4    0    0  0.13742501876E+02  0.12502421268E+02 -0.81941491310E+02  0.15068869564E+03  0.12509000000E+03 0.  0.
         25    1    3    3    0    0  0.43280484422E+01 -0.83582088072E+02 -0.23218808038E+03  0.27670112074E+03  0.12509000000E+03 0.  0.
<mgrwt>
<rscale>  2 0.45844264E+03</rscale>
<asrwt>0</asrwt>
<pdfrwt beam="1">  1       21 0.16675423E-01 0.45844264E+03</pdfrwt>
<pdfrwt beam="2">  1       21 0.68142070E-01 0.45844264E+03</pdfrwt>
<totfact> 0.58522832E+04</totfact>
</mgrwt>
</event>
<event>
 7    0  0.4779893E-002  0.4520902E+03  0.7546771E-02  0.1027101E+00
         21   -1    0    0  502  501  0.00000000000E+00  0.00000000000E+00  0.58530321666E+03  0.58530321666E+03  0.00000000000E+00 0.  1.
         21   -1    0    0  501  502 -0.00000000000E+00 -0.00000000000E+00 -0.87298998982E+02  0.87298998982E+02  0.00000000000E+00 0.  1.
      99926    2    1    2    0    0 -0.17763568394E-14  0.00000000000E+00  0.49800421767E+03  0.67260221564E+03  0.45209018974E+03 0.  0.
      99925    2    3    3    0    0 -0.98931368141E+01 -0.34019918527E+02  0.46988463389E+03  0.53958549449E+03  0.26287964486E+03 0.  0.
         25    1    4    4    0    0 -0.10032334517E+02  0.16696959510E+02  0.18286874057E+03  0.22241384977E+03  0.12509000000E+03 0.  0.
         25    1    3    3    0    0  0.98931368141E+01  0.34019918527E+02  0.28119583781E+02  0.13301672115E+03  0.12509000000E+03 0.  0.
         25    1    4    4    0    0  0.13919770332E+00 -0.50716878037E+02  0.28701589333E+03  0.31717164472E+03  0.12509000000E+03 0.  0.
<mgrwt>
<rscale>  2 0.45209019E+03</rscale>
<asrwt>0</asrwt>
<pdfrwt beam="1">  1       21 0.86074001E-01 0.45209019E+03</pdfrwt>
<pdfrwt beam="2">  1       21 0.12838088E-01 0.45209019E+03</pdfrwt>
<totfact> 0.55681855E+04</totfact>
</mgrwt>
</event>
<event>
 7    0  0.4779893E-002  0.4503176E+03  0.7546771E-02  0.1027627E+00
         21   -1    0    0  502  501  0.00000000000E+00  0.00000000000E+00  0.76938968856E+02  0.76938968856E+02  0.00000000000E+00 0. -1.
         21   -1    0    0  501  502 -0.00000000000E+00 -0.00000000000E+00 -0.65891810131E+03  0.65891810131E+03  0.00000000000E+00 0. -1.
      99926    2    1    2    0    0  0.00000000000E+00 -0.17763568394E-14 -0.58197913246E+03  0.73585707017E+03  0.45031757361E+03 0.  0.
      99925    2    3    3    0    0 -0.90362059343E+02  0.13317234303E+02 -0.46444704948E+03  0.54142469342E+03  0.26284403432E+03 0.  0.
         25    1    4    4    0    0 -0.34106941527E+02  0.21404958384E+01 -0.30111087709E+03  0.32784620416E+03  0.12509000000E+03 0.  0.
         25    1    4    4    0    0 -0.56255117816E+02  0.11176738465E+02 -0.16333617239E+03  0.21357848926E+03  0.12509000000E+03 0.  0.
         25    1    3    3    0    0  0.90362059343E+02 -0.13317234303E+02 -0.11753208298E+03  0.19443237675E+03  0.12509000000E+03 0.  0.
<mgrwt>
<rscale>  2 0.45031757E+03</rscale>
<asrwt>0</asrwt>
<pdfrwt beam="1">  1       21 0.11314554E-01 0.45031757E+03</pdfrwt>
<pdfrwt beam="2">  1       21 0.96899721E-01 0.45031757E+03</pdfrwt>
<totfact> 0.52920530E+04</totfact>
</mgrwt>
</event>
<event>
 7    0  0.4779893E-002  0.4589532E+03  0.7546771E-02  0.1025085E+00
         21   -1    0    0  502  501  0.00000000000E+00  0.00000000000E+00  0.60401280427E+02  0.60401280427E+02  0.00000000000E+00 0.  1.
         21   -1    0    0  501  502 -0.00000000000E+00 -0.00000000000E+00 -0.87182773246E+03  0.87182773246E+03  0.00000000000E+00 0.  1.
      99926    2    1    2    0    0  0.00000000000E+00  0.00000000000E+00 -0.81142645203E+03  0.93222901289E+03  0.45895320612E+03 0.  0.
      99925    2    3    3    0    0 -0.46277276162E+02  0.10326189371E+03 -0.44980263619E+03  0.53320032060E+03  0.26301248143E+03 0.  0.
         25    1    3    3    0    0  0.46277276162E+02 -0.10326189371E+03 -0.36162381584E+03  0.39902869229E+03  0.12509000000E+03 0.  0.
         25    1    4    4    0    0 -0.35298230259E+02  0.71257668311E+02 -0.30348697317E+03  0.33775060523E+03  0.12509000000E+03 0.  0.
         25    1    4    4    0    0 -0.10979045903E+02  0.32004225399E+02 -0.14631566302E+03  0.19544971536E+03  0.12509000000E+03 0.  0.
<mgrwt>
<rscale>  2 0.45895321E+03</rscale>
<asrwt>0</asrwt>
<pdfrwt beam="1">  1       21 0.88825408E-02 0.45895321E+03</pdfrwt>
<pdfrwt beam="2">  1       21 0.12820997E+00 0.45895321E+03</pdfrwt>
<totfact> 0.40599007E+04</totfact>
</mgrwt>
</event>
<event>
 7    0  0.4779893E-002  0.4771109E+03  0.7546771E-02  0.1019932E+00
         21   -1    0    0  502  501  0.00000000000E+00  0.00000000000E+00  0.19279567491E+03  0.19279567491E+03  0.00000000000E+00 0. -1.
         21   -1    0    0  501  502 -0.00000000000E+00 -0.00000000000E+00 -0.29517628688E+03  0.29517628688E+03  0.00000000000E+00 0. -1.
      99926    2    1    2    0    0 -0.14210854715E-13  0.44408920985E-15 -0.10238061197E+03  0.48797196178E+03  0.47711093656E+03 0.  0.
      99925    2    3    3    0    0 -0.11540281937E+03 -0.18882195833E+01  0.40320604782E+01  0.28724194149E+03  0.26300247023E+03 0.  0.
         25    1    4    4    0    0 -0.50417700108E+02 -0.12630046029E+02  0.40236484578E+02  0.14130798045E+03  0.12509000000E+03 0.  0.
         25    1    4    4    0    0 -0.64985119259E+02  0.10741826446E+02 -0.36204424099E+02  0.14593396104E+03  0.12509000000E+03 0.  0.
         25    1    3    3    0    0  0.11540281937E+03  0.18882195833E+01 -0.10641267245E+03  0.20073002030E+03  0.12509000000E+03 0.  0.
<mgrwt>
<rscale>  2 0.47711094E+03</rscale>
<asrwt>0</asrwt>
<pdfrwt beam="1">  1       21 0.28352305E-01 0.47711094E+03</pdfrwt>
<pdfrwt beam="2">  1       21 0.43408277E-01 0.47711094E+03</pdfrwt>
<totfact> 0.55687873E+04</totfact>
</mgrwt>
</event>
<event>
 7    0  0.4779893E-002  0.4586135E+03  0.7546771E-02  0.1025184E+00
         21   -1    0    0  502  501  0.00000000000E+00  0.00000000000E+00  0.73220909160E+03  0.73220909160E+03  0.00000000000E+00 0. -1.
         21   -1    0    0  501  502 -0.00000000000E+00 -0.00000000000E+00 -0.71812240252E+02  0.71812240252E+02  0.00000000000E+00 0. -1.
      99926    2    1    2    0    0  0.00000000000E+00  0.00000000000E+00  0.66039685135E+03  0.80402133186E+03  0.45861345467E+03 0.  0.
      99925    2    3    3    0    0  0.49583067701E+02 -0.65364484130E+02  0.55928771008E+03  0.62346230290E+03  0.26300476062E+03 0.  0.
         25    1    4    4    0    0  0.58829071004E+02 -0.17831160682E+02  0.32231956530E+03  0.35116409293E+03  0.12509000000E+03 0.  0.
         25    1    4    4    0    0 -0.92460033031E+01 -0.47533323449E+02  0.23696814477E+03  0.27229820997E+03  0.12509000000E+03 0.  0.
         25    1    3    3    0    0 -0.49583067701E+02  0.65364484130E+02  0.10110914128E+03  0.18055902896E+03  0.12509000000E+03 0.  0.
<mgrwt>
<rscale>  2 0.45861345E+03</rscale>
<asrwt>0</asrwt>
<pdfrwt beam="1">  1       21 0.10767780E+00 0.45861345E+03</pdfrwt>
<pdfrwt beam="2">  1       21 0.10560624E-01 0.45861345E+03</pdfrwt>
<totfact> 0.46245530E+04</totfact>
</mgrwt>
</event>
<event>
 7    0  0.4779893E-002  0.4534508E+03  0.7546771E-02  0.1026698E+00
         21   -1    0    0  502  501  0.00000000000E+00  0.00000000000E+00  0.32326170047E+03  0.32326170047E+03  0.00000000000E+00 0.  1.
         21   -1    0    0  501  502 -0.00000000000E+00 -0.00000000000E+00 -0.15901794765E+03  0.15901794765E+03  0.00000000000E+00 0.  1.
      99926    2    1    2    0    0  0.14210854715E-13  0.35527136788E-14  0.16424375282E+03  0.48227964811E+03  0.45345082274E+03 0.  0.
      99925    2    3    3    0    0  0.79847995043E+02  0.24573054182E+02  0.18375687585E+03  0.33059640127E+03  0.26181645060E+03 0.  0.
         25    1    3    3    0    0 -0.79847995043E+02 -0.24573054182E+02 -0.19513123028E+02  0.15168324685E+03  0.12509000000E+03 0.  0.
         25    1    4    4    0    0  0.54601712263E+02 -0.23178392600E+02  0.87583732864E+02  0.16382003305E+03  0.12509000000E+03 0.  0.
         25    1    4    4    0    0  0.25246282780E+02  0.47751446782E+02  0.96173142986E+02  0.16677636822E+03  0.12509000000E+03 0.  0.
<mgrwt>
<rscale>  2 0.45345082E+03</rscale>
<asrwt>0</asrwt>
<pdfrwt beam="1">  1       21 0.47538485E-01 0.45345082E+03</pdfrwt>
<pdfrwt beam="2">  1       21 0.23384992E-01 0.45345082E+03</pdfrwt>
<totfact> 0.67359078E+04</totfact>
</mgrwt>
</event>
<event>
 6    0  0.4779893E-002  0.4548644E+03  0.7546771E-02  0.1026281E+00
         21   -1    0    0  502  501  0.00000000000E+00  0.00000000000E+00  0.25878488588E+03  0.25878488588E+03  0.00000000000E+00 0.  1.
         21   -1    0    0  501  502 -0.00000000000E+00 -0.00000000000E+00 -0.19987802395E+03  0.19987802395E+03  0.00000000000E+00 0.  1.
      99926    2    1    2    0    0  0.00000000000E+00  0.00000000000E+00  0.58906861933E+02  0.45866290984E+03  0.45486442648E+03 0.  0.
         25    1    3    3    0    0  0.28754322168E+02  0.90798031206E+02 -0.90718308354E+01  0.15748301410E+03  0.12509000000E+03 0.  0.
         25    1    3    3    0    0 -0.49088145030E+02  0.42488035579E+01  0.22030140416E+02  0.13623704893E+03  0.12509000000E+03 0.  0.
         25    1    3    3    0    0  0.20333822862E+02 -0.95046834764E+02  0.45948552352E+02  0.16494284681E+03  0.12509000000E+03 0.  0.
<mgrwt>
<rscale>  2 0.45486443E+03</rscale>
<asrwt>0</asrwt>
<pdfrwt beam="1">  1       21 0.38056601E-01 0.45486443E+03</pdfrwt>
<pdfrwt beam="2">  1       21 0.29393827E-01 0.45486443E+03</pdfrwt>
<totfact> 0.68351977E+04</totfact>
</mgrwt>
</event>
<event>
 7    0  0.4779893E-002  0.4590107E+03  0.7546771E-02  0.1025069E+00
         21   -1    0    0  502  501  0.00000000000E+00  0.00000000000E+00  0.19312702808E+03  0.19312702808E+03  0.00000000000E+00 0.  1.
         21   -1    0    0  501  502 -0.00000000000E+00 -0.00000000000E+00 -0.27273606904E+03  0.27273606904E+03  0.00000000000E+00 0.  1.
      99926    2    1    2    0    0  0.00000000000E+00 -0.71054273576E-14 -0.79609040963E+02  0.46586309712E+03  0.45901070342E+03 0.  0.
      99925    2    3    3    0    0 -0.99787233607E+02  0.60771695560E+02 -0.50467899218E+02  0.29223301558E+03  0.26306355805E+03 0.  0.
         25    1    4    4    0    0 -0.53503933535E+02  0.70200568780E+02 -0.39283517006E+02  0.15805534970E+03  0.12509000000E+03 0.  0.
         25    1    3    3    0    0  0.99787233607E+02 -0.60771695560E+02 -0.29141141745E+02  0.17363008154E+03  0.12509000000E+03 0.  0.
         25    1    4    4    0    0 -0.46283300072E+02 -0.94288732201E+01 -0.11184382212E+02  0.13417766588E+03  0.12509000000E+03 0.  0.
<mgrwt>
<rscale>  2 0.45901070E+03</rscale>
<asrwt>0</asrwt>
<pdfrwt beam="1">  1       21 0.28401034E-01 0.45901070E+03</pdfrwt>
<pdfrwt beam="2">  1       21 0.40108245E-01 0.45901070E+03</pdfrwt>
<totfact> 0.65628595E+04</totfact>
</mgrwt>
</event>
<event>
 7    0  0.4779893E-002  0.4611913E+03  0.7546771E-02  0.1024436E+00
         21   -1    0    0  502  501  0.00000000000E+00  0.00000000000E+00  0.78242533721E+02  0.78242533721E+02  0.00000000000E+00 0. -1.
         21   -1    0    0  501  502 -0.00000000000E+00 -0.00000000000E+00 -0.67960941483E+03  0.67960941483E+03  0.00000000000E+00 0. -1.
      99926    2    1    2    0    0 -0.71054273576E-14  0.00000000000E+00 -0.60136688111E+03  0.75785194856E+03  0.46119133798E+03 0.  0.
      99925    2    3    3    0    0  0.45835991546E+02  0.60533695108E+02 -0.22595013064E+03  0.35492452209E+03  0.26296898767E+03 0.  0.
         25    1    4    4    0    0  0.44303378884E+02 -0.12242872695E+01 -0.12866125126E+03  0.18483915693E+03  0.12509000000E+03 0.  0.
         25    1    3    3    0    0 -0.45835991546E+02 -0.60533695108E+02 -0.37541675047E+03  0.40292742647E+03  0.12509000000E+03 0.  0.
         25    1    4    4    0    0  0.15326126616E+01  0.61757982378E+02 -0.97288879387E+02  0.17008536516E+03  0.12509000000E+03 0.  0.
<mgrwt>
<rscale>  2 0.46119134E+03</rscale>
<asrwt>0</asrwt>
<pdfrwt beam="1">  1       21 0.11506255E-01 0.46119134E+03</pdfrwt>
<pdfrwt beam="2">  1       21 0.99942563E-01 0.46119134E+03</pdfrwt>
<totfact> 0.47517712E+04</totfact>
</mgrwt>
</event>
<event>
 7    0  0.4779893E-002  0.4537589E+03  0.7546771E-02  0.1026607E+00
         21   -1    0    0  502  501  0.00000000000E+00  0.00000000000E+00  0.80206962782E+02  0.80206962782E+02  0.00000000000E+00 0.  1.
         21   -1    0    0  501  502 -0.00000000000E+00 -0.00000000000E+00 -0.64176819417E+03  0.64176819417E+03  0.00000000000E+00 0.  1.
      99926    2    1    2    0    0  0.00000000000E+00  0.00000000000E+00 -0.56156123139E+03  0.72197515695E+03  0.45375886841E+03 0.  0.
      99925    2    3    3    0    0 -0.96018159830E+02  0.47079392783E+02 -0.40626620581E+03  0.49570096639E+03  0.26311834193E+03 0.  0.
         25    1    3    3    0    0  0.96018159830E+02 -0.47079392783E+02 -0.15529502558E+03  0.22627419056E+03  0.12509000000E+03 0.  0.
         25    1    4    4    0    0 -0.46162123746E+02  0.83518708308E+01 -0.26477867072E+03  0.29657368053E+03  0.12509000000E+03 0.  0.
         25    1    4    4    0    0 -0.49856036084E+02  0.38727521953E+02 -0.14148753508E+03  0.19912728586E+03  0.12509000000E+03 0.  0.
<mgrwt>
<rscale>  2 0.45375887E+03</rscale>
<asrwt>0</asrwt>
<pdfrwt beam="1">  1       21 0.11795142E-01 0.45375887E+03</pdfrwt>
<pdfrwt beam="2">  1       21 0.94377676E-01 0.45375887E+03</pdfrwt>
<totfact> 0.52234107E+04</totfact>
</mgrwt>
</event>
<event>
 7    0  0.4779893E-002  0.4548494E+03  0.7546771E-02  0.1026286E+00
         21   -1    0    0  502  501  0.00000000000E+00  0.00000000000E+00  0.16201846261E+03  0.16201846261E+03  0.00000000000E+00 0. -1.
         21   -1    0    0  501  502 -0.00000000000E+00 -0.00000000000E+00 -0.31923524958E+03  0.31923524958E+03  0.00000000000E+00 0. -1.
      99926    2    1    2    0    0  0.00000000000E+00  0.00000000000E+00 -0.15721678697E+03  0.48125371219E+03  0.45484944475E+03 0.  0.
      99925    2    3    3    0    0 -0.10031336077E+03 -0.45755641068E+02 -0.74464568796E+02  0.29510380821E+03  0.26341020591E+03 0.  0.
         25    1    3    3    0    0  0.10031336077E+03  0.45755641068E+02 -0.82752218171E+02  0.18614990398E+03  0.12509000000E+03 0.  0.
         25    1    4    4    0    0 -0.65336806815E+01 -0.14213864025E+02 -0.32763913494E+02  0.13025246655E+03  0.12509000000E+03 0.  0.
         25    1    4    4    0    0 -0.93779680089E+02 -0.31541777043E+02 -0.41700655302E+02  0.16485134167E+03  0.12509000000E+03 0.  0.
<mgrwt>
<rscale>  2 0.45484944E+03</rscale>
<asrwt>0</asrwt>
<pdfrwt beam="1">  1       21 0.23826245E-01 0.45484944E+03</pdfrwt>
<pdfrwt beam="2">  1       21 0.46946359E-01 0.45484944E+03</pdfrwt>
<totfact> 0.66688614E+04</totfact>
</mgrwt>
</event>
<event>
 7    0  0.4779893E-002  0.4547643E+03  0.7546771E-02  0.1026311E+00
         21   -1    0    0  502  501  0.00000000000E+00  0.00000000000E+00  0.69120871301E+03  0.69120871301E+03  0.00000000000E+00 0.  1.
         21   -1    0    0  501  502 -0.00000000000E+00 -0.00000000000E+00 -0.74800323674E+02  0.74800323674E+02  0.00000000000E+00 0.  1.
      99926    2    1    2    0    0 -0.17763568394E-14  0.00000000000E+00  0.61640838934E+03  0.76600903669E+03  0.45476427063E+03 0.  0.
      99925    2    3    3    0    0  0.54898504148E+01 -0.28552925638E+02  0.57181645393E+03  0.63006288255E+03  0.26298245372E+03 0.  0.
         25    1    3    3    0    0 -0.54898504148E+01  0.28552925638E+02  0.44591935410E+02  0.13594615413E+03  0.12509000000E+03 0.  0.
         25    1    4    4    0    0  0.41420186570E+02 -0.93476173873E+01  0.31284280439E+03  0.33958966145E+03  0.12509000000E+03 0.  0.
         25    1    4    4    0    0 -0.35930336155E+02 -0.19205308251E+02  0.25897364954E+03  0.29047322110E+03  0.12509000000E+03 0.  0.
<mgrwt>
<rscale>  2 0.45476427E+03</rscale>
<asrwt>0</asrwt>
<pdfrwt beam="1">  1       21 0.10164834E+00 0.45476427E+03</pdfrwt>
<pdfrwt beam="2">  1       21 0.11000048E-01 0.45476427E+03</pdfrwt>
<totfact> 0.49544317E+04</totfact>
</mgrwt>
</event>
<event>
 7    0  0.4779893E-002  0.4715742E+03  0.7546771E-02  0.1021477E+00
         21   -1    0    0  502  501  0.00000000000E+00  0.00000000000E+00  0.16272404960E+03  0.16272404960E+03  0.00000000000E+00 0. -1.
         21   -1    0    0  501  502 -0.00000000000E+00 -0.00000000000E+00 -0.34165549225E+03  0.34165549225E+03  0.00000000000E+00 0. -1.
      99926    2    1    2    0    0  0.00000000000E+00 -0.71054273576E-14 -0.17893144265E+03  0.50437954185E+03  0.47157423707E+03 0.  0.
      99925    2    3    3    0    0  0.68359810211E+01 -0.57081510644E+02  0.10193122731E+02  0.27045511212E+03  0.26407771285E+03 0.  0.
         25    1    4    4    0    0  0.22345822464E+01  0.13105997130E+02 -0.65933019601E+01  0.12596721895E+03  0.12509000000E+03 0.  0.
         25    1    4    4    0    0  0.46013987748E+01 -0.70187507774E+02  0.16786424691E+02  0.14448789317E+03  0.12509000000E+03 0.  0.
         25    1    3    3    0    0 -0.68359810211E+01  0.57081510644E+02 -0.18912456538E+03  0.23392442973E+03  0.12509000000E+03 0.  0.
<mgrwt>
<rscale>  2 0.47157424E+03</rscale>
<asrwt>0</asrwt>
<pdfrwt beam="1">  1       21 0.23930007E-01 0.47157424E+03</pdfrwt>
<pdfrwt beam="2">  1       21 0.50243455E-01 0.47157424E+03</pdfrwt>
<totfact> 0.57076510E+04</totfact>
</mgrwt>
</event>
<event>
 7    0  0.4779893E-002  0.4537634E+03  0.7546771E-02  0.1026606E+00
         21   -1    0    0  502  501  0.00000000000E+00  0.00000000000E+00  0.35380255033E+03  0.35380255033E+03  0.00000000000E+00 0.  1.
         21   -1    0    0  501  502 -0.00000000000E+00 -0.00000000000E+00 -0.14549160435E+03  0.14549160435E+03  0.00000000000E+00 0.  1.
      99926    2    1    2    0    0  0.00000000000E+00  0.00000000000E+00  0.20831094598E+03  0.49929415468E+03  0.45376337742E+03 0.  0.
      99925    2    3    3    0    0 -0.89049876589E+02 -0.66125263792E+02  0.11470923780E+03  0.30769243521E+03  0.26308552680E+03 0.  0.
         25    1    4    4    0    0 -0.42500121258E+02 -0.69054428285E+02  0.38473588751E+02  0.15395616098E+03  0.12509000000E+03 0.  0.
         25    1    4    4    0    0 -0.46549755331E+02  0.29291644930E+01  0.76235649053E+02  0.15373627422E+03  0.12509000000E+03 0.  0.
         25    1    3    3    0    0  0.89049876589E+02  0.66125263792E+02  0.93601708180E+02  0.19160171948E+03  0.12509000000E+03 0.  0.
<mgrwt>
<rscale>  2 0.45376338E+03</rscale>
<asrwt>0</asrwt>
<pdfrwt beam="1">  1       21 0.52029787E-01 0.45376338E+03</pdfrwt>
<pdfrwt beam="2">  1       21 0.21395824E-01 0.45376338E+03</pdfrwt>
<totfact> 0.65965444E+04</totfact>
</mgrwt>
</event>
<event>
 7    0  0.4779893E-002  0.4612015E+03  0.7546771E-02  0.1024433E+00
         21   -1    0    0  502  501  0.00000000000E+00  0.00000000000E+00  0.98800968704E+03  0.98800968704E+03  0.00000000000E+00 0. -1.
         21   -1    0    0  501  502 -0.00000000000E+00 -0.00000000000E+00 -0.53822059960E+02  0.53822059960E+02  0.00000000000E+00 0. -1.
      99926    2    1    2    0    0 -0.17763568394E-14 -0.14210854715E-13  0.93418762708E+03  0.10418317470E+04  0.46120154647E+03 0.  0.
      99925    2    3    3    0    0 -0.15605927511E+02 -0.93548423969E+02  0.74546502401E+03  0.79635551269E+03  0.26357000583E+03 0.  0.
         25    1    4    4    0    0  0.18295017610E+01 -0.21548733415E+02  0.25584643422E+03  0.28560917526E+03  0.12509000000E+03 0.  0.
         25    1    3    3    0    0  0.15605927511E+02  0.93548423969E+02  0.18872260307E+03  0.24547623431E+03  0.12509000000E+03 0.  0.
         25    1    4    4    0    0 -0.17435429272E+02 -0.71999690553E+02  0.48961858979E+03  0.51074633743E+03  0.12509000000E+03 0.  0.
<mgrwt>
<rscale>  2 0.46120155E+03</rscale>
<asrwt>0</asrwt>
<pdfrwt beam="1">  1       21 0.14529553E+00 0.46120155E+03</pdfrwt>
<pdfrwt beam="2">  1       21 0.79150095E-02 0.46120155E+03</pdfrwt>
<totfact> 0.35813193E+04</totfact>
</mgrwt>
</event>
<event>
 7    0  0.4779893E-002  0.4577131E+03  0.7546771E-02  0.1025447E+00
         21   -1    0    0  502  501  0.00000000000E+00  0.00000000000E+00  0.11832561177E+03  0.11832561177E+03  0.00000000000E+00 0. -1.
         21   -1    0    0  501  502 -0.00000000000E+00 -0.00000000000E+00 -0.44263719195E+03  0.44263719195E+03  0.00000000000E+00 0. -1.
      99926    2    1    2    0    0  0.71054273576E-14  0.00000000000E+00 -0.32431158018E+03  0.56096280373E+03  0.45771308276E+03 0.  0.
      99925    2    3    3    0    0 -0.48214665695E+02  0.91893467636E+02 -0.14112033547E+03  0.31606363341E+03  0.26308213147E+03 0.  0.
         25    1    4    4    0    0 -0.28562959713E+02  0.68563129946E+02 -0.36054624976E+02  0.14988058426E+03  0.12509000000E+03 0.  0.
         25    1    3    3    0    0  0.48214665695E+02 -0.91893467636E+02 -0.18319124471E+03  0.24489917032E+03  0.12509000000E+03 0.  0.
         25    1    4    4    0    0 -0.19651705982E+02  0.23330337690E+02 -0.10506571049E+03  0.16618304915E+03  0.12509000000E+03 0.  0.
<mgrwt>
<rscale>  2 0.45771308E+03</rscale>
<asrwt>0</asrwt>
<pdfrwt beam="1">  1       21 0.17400825E-01 0.45771308E+03</pdfrwt>
<pdfrwt beam="2">  1       21 0.65093705E-01 0.45771308E+03</pdfrwt>
<totfact> 0.59853031E+04</totfact>
</mgrwt>
</event>
<event>
 7    0  0.4779893E-002  0.4578620E+03  0.7546771E-02  0.1025403E+00
         21   -1    0    0  502  501  0.00000000000E+00  0.00000000000E+00  0.31970424594E+03  0.31970424594E+03  0.00000000000E+00 0.  1.
         21   -1    0    0  501  502 -0.00000000000E+00 -0.00000000000E+00 -0.16393087420E+03  0.16393087420E+03  0.00000000000E+00 0.  1.
      99926    2    1    2    0    0  0.00000000000E+00  0.14210854715E-13  0.15577337174E+03  0.48363512014E+03  0.45786197275E+03 0.  0.
      99925    2    3    3    0    0 -0.24371968356E+02 -0.86170754391E+02  0.21857407883E+02  0.27967339523E+03  0.26404558312E+03 0.  0.
         25    1    3    3    0    0  0.24371968356E+02  0.86170754391E+02  0.13391596385E+03  0.20396172491E+03  0.12509000000E+03 0.  0.
         25    1    4    4    0    0  0.10133317765E+02 -0.79576536837E+02  0.17983522392E+02  0.14968642063E+03  0.12509000000E+03 0.  0.
         25    1    4    4    0    0 -0.34505286121E+02 -0.65942175544E+01  0.38738854919E+01  0.12998697459E+03  0.12509000000E+03 0.  0.
<mgrwt>
<rscale>  2 0.45786197E+03</rscale>
<asrwt>0</asrwt>
<pdfrwt beam="1">  1       21 0.47015330E-01 0.45786197E+03</pdfrwt>
<pdfrwt beam="2">  1       21 0.24107481E-01 0.45786197E+03</pdfrwt>
<totfact> 0.64948344E+04</totfact>
</mgrwt>
</event>
<event>
 7    0  0.4779893E-002  0.4538478E+03  0.7546771E-02  0.1026581E+00
         21   -1    0    0  502  501  0.00000000000E+00  0.00000000000E+00  0.35184137761E+03  0.35184137761E+03  0.00000000000E+00 0.  1.
         21   -1    0    0  501  502 -0.00000000000E+00 -0.00000000000E+00 -0.14635703955E+03  0.14635703955E+03  0.00000000000E+00 0.  1.
      99926    2    1    2    0    0  0.13322676296E-14  0.00000000000E+00  0.20548433806E+03  0.49819841716E+03  0.45384782656E+03 0.  0.
      99925    2    3    3    0    0  0.23356394654E+01 -0.68992725924E+02  0.32647739125E+02  0.27395424338E+03  0.26309618232E+03 0.  0.
         25    1    4    4    0    0  0.27885757020E+02 -0.63440761203E+02  0.43703776272E+01  0.14306975196E+03  0.12509000000E+03 0.  0.
         25    1    4    4    0    0 -0.25550117555E+02 -0.55519647218E+01  0.28277361498E+02  0.13088449141E+03  0.12509000000E+03 0.  0.
         25    1    3    3    0    0 -0.23356394654E+01  0.68992725924E+02  0.17283659894E+03  0.22424417378E+03  0.12509000000E+03 0.  0.
<mgrwt>
<rscale>  2 0.45384783E+03</rscale>
<asrwt>0</asrwt>
<pdfrwt beam="1">  1       21 0.51741379E-01 0.45384783E+03</pdfrwt>
<pdfrwt beam="2">  1       21 0.21523094E-01 0.45384783E+03</pdfrwt>
<totfact> 0.65998988E+04</totfact>
</mgrwt>
</event>
<event>
 7    0  0.4779893E-002  0.4472176E+03  0.7546771E-02  0.1028555E+00
         21   -1    0    0  502  501  0.00000000000E+00  0.00000000000E+00  0.11422631251E+04  0.11422631251E+04  0.00000000000E+00 0. -1.
         21   -1    0    0  501  502 -0.00000000000E+00 -0.00000000000E+00 -0.43773541576E+02  0.43773541576E+02  0.00000000000E+00 0. -1.
      99926    2    1    2    0    0  0.14210854715E-13  0.17763568394E-14  0.10984895835E+04  0.11860366666E+04  0.44721763112E+03 0.  0.
      99925    2    3    3    0    0 -0.10420042529E+03 -0.62547689107E+01  0.73867522154E+03  0.79105472537E+03  0.26311526913E+03 0.  0.
         25    1    4    4    0    0 -0.14284385622E+02  0.70263793535E+01  0.28190287622E+03  0.30882058448E+03  0.12509000000E+03 0.  0.
         25    1    3    3    0    0  0.10420042529E+03  0.62547689107E+01  0.35981436195E+03  0.39498194127E+03  0.12509000000E+03 0.  0.
         25    1    4    4    0    0 -0.89916039667E+02 -0.13281148264E+02  0.45677234532E+03  0.48223414089E+03  0.12509000000E+03 0.  0.
<mgrwt>
<rscale>  2 0.44721763E+03</rscale>
<asrwt>0</asrwt>
<pdfrwt beam="1">  1       21 0.16797985E+00 0.44721763E+03</pdfrwt>
<pdfrwt beam="2">  1       21 0.64372863E-02 0.44721763E+03</pdfrwt>
<totfact> 0.34655712E+04</totfact>
</mgrwt>
</event>
<event>
 7    0  0.4779893E-002  0.4666075E+03  0.7546771E-02  0.1022882E+00
         21   -1    0    0  502  501  0.00000000000E+00  0.00000000000E+00  0.65083345134E+03  0.65083345134E+03  0.00000000000E+00 0. -1.
         21   -1    0    0  501  502 -0.00000000000E+00 -0.00000000000E+00 -0.83632219407E+02  0.83632219407E+02  0.00000000000E+00 0. -1.
      99926    2    1    2    0    0  0.00000000000E+00  0.00000000000E+00  0.56720123193E+03  0.73446567075E+03  0.46660752673E+03 0.  0.
      99925    2    3    3    0    0 -0.40154573962E+01  0.88944472955E+02  0.21783639278E+03  0.35284997125E+03  0.26291284682E+03 0.  0.
         25    1    4    4    0    0 -0.49658649273E+01  0.53213664005E+02  0.16129592947E+03  0.21099819623E+03  0.12509000000E+03 0.  0.
         25    1    4    4    0    0  0.95040753112E+00  0.35730808950E+02  0.56540463311E+02  0.14185177501E+03  0.12509000000E+03 0.  0.
         25    1    3    3    0    0  0.40154573962E+01 -0.88944472955E+02  0.34936483916E+03  0.38161569950E+03  0.12509000000E+03 0.  0.
<mgrwt>
<rscale>  2 0.46660753E+03</rscale>
<asrwt>0</asrwt>
<pdfrwt beam="1">  1       21 0.95710799E-01 0.46660753E+03</pdfrwt>
<pdfrwt beam="2">  1       21 0.12298856E-01 0.46660753E+03</pdfrwt>
<totfact> 0.46664298E+04</totfact>
</mgrwt>
</event>
<event>
 7    0  0.4779893E-002  0.4466572E+03  0.7546771E-02  0.1028724E+00
         21   -1    0    0  502  501  0.00000000000E+00  0.00000000000E+00  0.51612794041E+03  0.51612794041E+03  0.00000000000E+00 0. -1.
         21   -1    0    0  501  502 -0.00000000000E+00 -0.00000000000E+00 -0.96634289512E+02  0.96634289512E+02  0.00000000000E+00 0. -1.
      99926    2    1    2    0    0  0.71054273576E-14  0.00000000000E+00  0.41949365090E+03  0.61276222993E+03  0.44665716974E+03 0.  0.
      99925    2    3    3    0    0 -0.37448887599E+02 -0.73444279041E+02  0.17644089057E+03  0.32724754780E+03  0.26298876092E+03 0.  0.
         25    1    4    4    0    0 -0.44098242111E+02 -0.49118405991E+02  0.12799174407E+03  0.19075289621E+03  0.12509000000E+03 0.  0.
         25    1    3    3    0    0  0.37448887599E+02  0.73444279041E+02  0.24305276033E+03  0.28551468212E+03  0.12509000000E+03 0.  0.
         25    1    4    4    0    0  0.66493545119E+01 -0.24325873050E+02  0.48449146509E+02  0.13649465159E+03  0.12509000000E+03 0.  0.
<mgrwt>
<rscale>  2 0.44665717E+03</rscale>
<asrwt>0</asrwt>
<pdfrwt beam="1">  1       21 0.75901167E-01 0.44665717E+03</pdfrwt>
<pdfrwt beam="2">  1       21 0.14210925E-01 0.44665717E+03</pdfrwt>
<totfact> 0.61876953E+04</totfact>
</mgrwt>
</event>
<event>
 7    0  0.4779893E-002  0.4523173E+03  0.7546771E-02  0.1027033E+00
         21   -1    0    0  502  501  0.00000000000E+00  0.00000000000E+00  0.51310092576E+02  0.51310092576E+02  0.00000000000E+00 0. -1.
         21   -1    0    0  501  502 -0.00000000000E+00 -0.00000000000E+00 -0.99683570204E+03  0.99683570204E+03  0.00000000000E+00 0. -1.
      99926    2    1    2    0    0  0.00000000000E+00  0.35527136788E-14 -0.94552560947E+03  0.10481457946E+04  0.45231728755E+03 0.  0.
      99925    2    3    3    0    0 -0.60094816762E+02 -0.67025461712E+01 -0.38189185071E+03  0.46764012433E+03  0.26303913990E+03 0.  0.
         25    1    3    3    0    0  0.60094816762E+02  0.67025461712E+01 -0.56363375876E+03  0.58050567029E+03  0.12509000000E+03 0.  0.
         25    1    4    4    0    0 -0.49362947547E+02  0.27800722906E+02 -0.22687252026E+03  0.26519470080E+03  0.12509000000E+03 0.  0.
         25    1    4    4    0    0 -0.10731869215E+02 -0.34503269077E+02 -0.15501933045E+03  0.20244542353E+03  0.12509000000E+03 0.  0.
<mgrwt>
<rscale>  2 0.45231729E+03</rscale>
<asrwt>0</asrwt>
<pdfrwt beam="1">  1       21 0.75456025E-02 0.45231729E+03</pdfrwt>
<pdfrwt beam="2">  1       21 0.14659347E+00 0.45231729E+03</pdfrwt>
<totfact> 0.38137852E+04</totfact>
</mgrwt>
</event>
<event>
 7    0  0.4779893E-002  0.4546037E+03  0.7546771E-02  0.1026358E+00
         21   -1    0    0  502  501  0.00000000000E+00  0.00000000000E+00  0.33477146328E+03  0.33477146328E+03  0.00000000000E+00 0.  1.
         21   -1    0    0  501  502 -0.00000000000E+00 -0.00000000000E+00 -0.15433256645E+03  0.15433256645E+03  0.00000000000E+00 0.  1.
      99926    2    1    2    0    0  0.00000000000E+00  0.14210854715E-13  0.18043889683E+03  0.48910402973E+03  0.45460373559E+03 0.  0.
      99925    2    3    3    0    0  0.29360815192E+02 -0.94735698732E+02  0.55446714276E+02  0.28635427293E+03  0.26284505211E+03 0.  0.
         25    1    4    4    0    0  0.41419542705E+02 -0.16251876262E+02  0.25519952442E+02  0.13519792185E+03  0.12509000000E+03 0.  0.
         25    1    4    4    0    0 -0.12058727512E+02 -0.78483822470E+02  0.29926761834E+02  0.15115635108E+03  0.12509000000E+03 0.  0.
         25    1    3    3    0    0 -0.29360815192E+02  0.94735698732E+02  0.12499218256E+03  0.20274975680E+03  0.12509000000E+03 0.  0.
<mgrwt>
<rscale>  2 0.45460374E+03</rscale>
<asrwt>0</asrwt>
<pdfrwt beam="1">  1       21 0.49231098E-01 0.45460374E+03</pdfrwt>
<pdfrwt beam="2">  1       21 0.22695966E-01 0.45460374E+03</pdfrwt>
<totfact> 0.66251295E+04</totfact>
</mgrwt>
</event>
<event>
 7    0  0.4779893E-002  0.4661373E+03  0.7546771E-02  0.1023016E+00
         21   -1    0    0  502  501  0.00000000000E+00  0.00000000000E+00  0.89526347209E+03  0.89526347209E+03  0.00000000000E+00 0.  1.
         21   -1    0    0  501  502 -0.00000000000E+00 -0.00000000000E+00 -0.60675988374E+02  0.60675988374E+02  0.00000000000E+00 0.  1.
      99926    2    1    2    0    0 -0.17763568394E-14  0.14210854715E-13  0.83458748371E+03  0.95593946046E+03  0.46613730177E+03 0.  0.
      99925    2    3    3    0    0  0.13665280457E+02 -0.89023743459E+02  0.34668091523E+03  0.44426349419E+03  0.26281253489E+03 0.  0.
         25    1    3    3    0    0 -0.13665280457E+02  0.89023743459E+02  0.48790656848E+03  0.51167596627E+03  0.12509000000E+03 0.  0.
         25    1    4    4    0    0 -0.25605967615E+02 -0.54178359229E+02  0.14030213778E+03  0.19728952874E+03  0.12509000000E+03 0.  0.
         25    1    4    4    0    0  0.39271248073E+02 -0.34845384229E+02  0.20637877746E+03  0.24697396545E+03  0.12509000000E+03 0.  0.
<mgrwt>
<rscale>  2 0.46613730E+03</rscale>
<asrwt>0</asrwt>
<pdfrwt beam="1">  1       21 0.13165638E+00 0.46613730E+03</pdfrwt>
<pdfrwt beam="2">  1       21 0.89229400E-02 0.46613730E+03</pdfrwt>
<totfact> 0.37525009E+04</totfact>
</mgrwt>
</event>
<event>
 7    0  0.4779893E-002  0.4428462E+03  0.7546771E-02  0.1029877E+00
         21   -1    0    0  502  501  0.00000000000E+00  0.00000000000E+00  0.21342237975E+03  0.21342237975E+03  0.00000000000E+00 0. -1.
         21   -1    0    0  501  502 -0.00000000000E+00 -0.00000000000E+00 -0.22972375349E+03  0.22972375349E+03  0.00000000000E+00 0. -1.
      99926    2    1    2    0    0  0.35527136788E-14 -0.14210854715E-13 -0.16301373742E+02  0.44314613325E+03  0.44284620426E+03 0.  0.
      99925    2    3    3    0    0 -0.16349443253E+02  0.89671377118E+02 -0.54983206244E+02  0.28360913931E+03  0.26287398266E+03 0.  0.
         25    1    4    4    0    0  0.46267722503E+00  0.72439085610E+02  0.77816299642E+00  0.14455361923E+03  0.12509000000E+03 0.  0.
         25    1    4    4    0    0 -0.16812120478E+02  0.17232291508E+02 -0.55761369240E+02  0.13905552008E+03  0.12509000000E+03 0.  0.
         25    1    3    3    0    0  0.16349443253E+02 -0.89671377118E+02  0.38681832502E+02  0.15953699394E+03  0.12509000000E+03 0.  0.
<mgrwt>
<rscale>  2 0.44284620E+03</rscale>
<asrwt>0</asrwt>
<pdfrwt beam="1">  1       21 0.31385644E-01 0.44284620E+03</pdfrwt>
<pdfrwt beam="2">  1       21 0.33782905E-01 0.44284620E+03</pdfrwt>
<totfact> 0.76584691E+04</totfact>
</mgrwt>
</event>
<event>
 7    0  0.4779893E-002  0.4462236E+03  0.7546771E-02  0.1028854E+00
         21   -1    0    0  502  501  0.00000000000E+00  0.00000000000E+00  0.17776349991E+03  0.17776349991E+03  0.00000000000E+00 0. -1.
         21   -1    0    0  501  502 -0.00000000000E+00 -0.00000000000E+00 -0.28002861873E+03  0.28002861873E+03  0.00000000000E+00 0. -1.
      99926    2    1    2    0    0  0.00000000000E+00  0.00000000000E+00 -0.10226511882E+03  0.45779211864E+03  0.44622356433E+03 0.  0.
      99925    2    3    3    0    0 -0.70835347016E+02  0.46378914671E+02 -0.12820246902E+03  0.30453121577E+03  0.26293485543E+03 0.  0.
         25    1    3    3    0    0  0.70835347016E+02 -0.46378914671E+02  0.25937350204E+02  0.15326090287E+03  0.12509000000E+03 0.  0.
         25    1    4    4    0    0 -0.36124946367E+02  0.63841893142E+02 -0.73604439544E+02  0.16262201785E+03  0.12509000000E+03 0.  0.
         25    1    4    4    0    0 -0.34710400649E+02 -0.17462978471E+02 -0.54598029477E+02  0.14190919792E+03  0.12509000000E+03 0.  0.
<mgrwt>
<rscale>  2 0.44622356E+03</rscale>
<asrwt>0</asrwt>
<pdfrwt beam="1">  1       21 0.26141691E-01 0.44622356E+03</pdfrwt>
<pdfrwt beam="2">  1       21 0.41180679E-01 0.44622356E+03</pdfrwt>
<totfact> 0.73328078E+04</totfact>
</mgrwt>
</event>
<event>
 7    0  0.4779893E-002  0.4545691E+03  0.7546771E-02  0.1026368E+00
         21   -1    0    0  502  501  0.00000000000E+00  0.00000000000E+00  0.42774369002E+03  0.42774369002E+03  0.00000000000E+00 0. -1.
         21   -1    0    0  501  502 -0.00000000000E+00 -0.00000000000E+00 -0.12076923405E+03  0.12076923405E+03  0.00000000000E+00 0. -1.
      99926    2    1    2    0    0  0.00000000000E+00  0.14210854715E-13  0.30697445597E+03  0.54851292406E+03  0.45456914903E+03 0.  0.
      99925    2    3    3    0    0  0.59022334924E+01 -0.93953273555E+02  0.11824116076E+03  0.30329910147E+03  0.26295877791E+03 0.  0.
         25    1    4    4    0    0 -0.72990103277E+01 -0.60147878878E+01  0.61045884144E+02  0.13951186794E+03  0.12509000000E+03 0.  0.
         25    1    3    3    0    0 -0.59022334924E+01  0.93953273555E+02  0.18873329521E+03  0.24521382259E+03  0.12509000000E+03 0.  0.
         25    1    4    4    0    0  0.13201243820E+02 -0.87938485667E+02  0.57195276620E+02  0.16378723353E+03  0.12509000000E+03 0.  0.
<mgrwt>
<rscale>  2 0.45456915E+03</rscale>
<asrwt>0</asrwt>
<pdfrwt beam="1">  1       21 0.62903483E-01 0.45456915E+03</pdfrwt>
<pdfrwt beam="2">  1       21 0.17760182E-01 0.45456915E+03</pdfrwt>
<totfact> 0.62176574E+04</totfact>
</mgrwt>
</event>
<event>
 7    0  0.4779893E-002  0.4485978E+03  0.7546771E-02  0.1028141E+00
         21   -1    0    0  502  501  0.00000000000E+00  0.00000000000E+00  0.72738392808E+03  0.72738392808E+03  0.00000000000E+00 0. -1.
         21   -1    0    0  501  502 -0.00000000000E+00 -0.00000000000E+00 -0.69165668240E+02  0.69165668240E+02  0.00000000000E+00 0. -1.
      99926    2    1    2    0    0  0.35527136788E-14 -0.35527136788E-14  0.65821825984E+03  0.79654959632E+03  0.44859779515E+03 0.  0.
      99925    2    3    3    0    0  0.14412422328E+02 -0.28905805905E+02  0.59786680472E+03  0.65395552292E+03  0.26300160882E+03 0.  0.
         25    1    4    4    0    0  0.23463259216E+02 -0.27576292424E+02  0.39014168658E+03  0.41130161700E+03  0.12509000000E+03 0.  0.
         25    1    3    3    0    0 -0.14412422328E+02  0.28905805905E+02  0.60351455116E+02  0.14259407339E+03  0.12509000000E+03 0.  0.
         25    1    4    4    0    0 -0.90508368876E+01 -0.13295134813E+01  0.20772511814E+03  0.24265390592E+03  0.12509000000E+03 0.  0.
<mgrwt>
<rscale>  2 0.44859780E+03</rscale>
<asrwt>0</asrwt>
<pdfrwt beam="1">  1       21 0.10696822E+00 0.44859780E+03</pdfrwt>
<pdfrwt beam="2">  1       21 0.10171422E-01 0.44859780E+03</pdfrwt>
<totfact> 0.50418081E+04</totfact>
</mgrwt>
</event>
<event>
 7    0  0.4779893E-002  0.4567161E+03  0.7546771E-02  0.1025738E+00
         21   -1    0    0  502  501  0.00000000000E+00  0.00000000000E+00  0.68535223356E+02  0.68535223356E+02  0.00000000000E+00 0.  1.
         21   -1    0    0  501  502 -0.00000000000E+00 -0.00000000000E+00 -0.76088471582E+03  0.76088471582E+03  0.00000000000E+00 0.  1.
      99926    2    1    2    0    0  0.00000000000E+00 -0.14210854715E-13 -0.69234949247E+03  0.82941993918E+03  0.45671612166E+03 0.  0.
      99925    2    3    3    0    0  0.17772704538E+02  0.82259571676E+02 -0.29277587859E+03  0.40234958530E+03  0.26284019393E+03 0.  0.
         25    1    3    3    0    0 -0.17772704538E+02 -0.82259571676E+02 -0.39957361387E+03  0.42707035388E+03  0.12509000000E+03 0.  0.
         25    1    4    4    0    0  0.13419143439E+02  0.16370972192E+02 -0.18589351054E+03  0.22505996423E+03  0.12509000000E+03 0.  0.
         25    1    4    4    0    0  0.43535610990E+01  0.65888599485E+02 -0.10688236806E+03  0.17728962107E+03  0.12509000000E+03 0.  0.
<mgrwt>
<rscale>  2 0.45671612E+03</rscale>
<asrwt>0</asrwt>
<pdfrwt beam="1">  1       21 0.10078710E-01 0.45671612E+03</pdfrwt>
<pdfrwt beam="2">  1       21 0.11189480E+00 0.45671612E+03</pdfrwt>
<totfact> 0.45755289E+04</totfact>
</mgrwt>
</event>
<event>
 7    0  0.4779893E-002  0.4582488E+03  0.7546771E-02  0.1025290E+00
         21   -1    0    0  502  501  0.00000000000E+00  0.00000000000E+00  0.26559745015E+03  0.26559745015E+03  0.00000000000E+00 0. -1.
         21   -1    0    0  501  502 -0.00000000000E+00 -0.00000000000E+00 -0.19766001981E+03  0.19766001981E+03  0.00000000000E+00 0. -1.
      99926    2    1    2    0    0 -0.35527136788E-14  0.00000000000E+00  0.67937430347E+02  0.46325746996E+03  0.45824882873E+03 0.  0.
      99925    2    3    3    0    0  0.30544508951E+02  0.11191857810E+03  0.35572001098E+02  0.28960907733E+03  0.26296257388E+03 0.  0.
         25    1    4    4    0    0  0.16482110486E+02  0.64884957792E+02  0.58178963973E+02  0.15334281093E+03  0.12509000000E+03 0.  0.
         25    1    4    4    0    0  0.14062398465E+02  0.47033620310E+02 -0.22606962875E+02  0.13626626641E+03  0.12509000000E+03 0.  0.
         25    1    3    3    0    0 -0.30544508951E+02 -0.11191857810E+03  0.32365429248E+02  0.17364839263E+03  0.12509000000E+03 0.  0.
<mgrwt>
<rscale>  2 0.45824883E+03</rscale>
<asrwt>0</asrwt>
<pdfrwt beam="1">  1       21 0.39058448E-01 0.45824883E+03</pdfrwt>
<pdfrwt beam="2">  1       21 0.29067650E-01 0.45824883E+03</pdfrwt>
<totfact> 0.66211687E+04</totfact>
</mgrwt>
</event>
<event>
 7    0  0.4779893E-002  0.4552316E+03  0.7546771E-02  0.1026173E+00
         21   -1    0    0  502  501  0.00000000000E+00  0.00000000000E+00  0.15110394718E+03  0.15110394718E+03  0.00000000000E+00 0. -1.
         21   -1    0    0  501  502 -0.00000000000E+00 -0.00000000000E+00 -0.34286962044E+03  0.34286962044E+03  0.00000000000E+00 0. -1.
      99926    2    1    2    0    0 -0.35527136788E-14  0.00000000000E+00 -0.19176567326E+03  0.49397356762E+03  0.45523160266E+03 0.  0.
      99925    2    3    3    0    0  0.12173979998E+02 -0.96647490597E+02 -0.57330244747E+02  0.28610501356E+03  0.26283146423E+03 0.  0.
         25    1    4    4    0    0 -0.32922249043E+02 -0.38056246979E+02 -0.22716069617E+02  0.13673214814E+03  0.12509000000E+03 0.  0.
         25    1    4    4    0    0  0.45096229041E+02 -0.58591243617E+02 -0.34614175130E+02  0.14937286541E+03  0.12509000000E+03 0.  0.
         25    1    3    3    0    0 -0.12173979998E+02  0.96647490597E+02 -0.13443542851E+03  0.20786855406E+03  0.12509000000E+03 0.  0.
<mgrwt>
<rscale>  2 0.45523160E+03</rscale>
<asrwt>0</asrwt>
<pdfrwt beam="1">  1       21 0.22221169E-01 0.45523160E+03</pdfrwt>
<pdfrwt beam="2">  1       21 0.50422002E-01 0.45523160E+03</pdfrwt>
<totfact> 0.65575488E+04</totfact>
</mgrwt>
</event>
<event>
 7    0  0.4779893E-002  0.4338172E+03  0.7546771E-02  0.1032661E+00
         21   -1    0    0  502  501  0.00000000000E+00  0.00000000000E+00  0.57542953256E+02  0.57542953256E+02  0.00000000000E+00 0. -1.
         21   -1    0    0  501  502 -0.00000000000E+00 -0.00000000000E+00 -0.81763873110E+03  0.81763873110E+03  0.00000000000E+00 0. -1.
      99926    2    1    2    0    0 -0.71054273576E-14 -0.71054273576E-14 -0.76009577785E+03  0.87518168436E+03  0.43381723011E+03 0.  0.
      99925    2    3    3    0    0  0.44254580596E+02  0.47246635548E+02 -0.61962339662E+03  0.67625780328E+03  0.26306035504E+03 0.  0.
         25    1    4    4    0    0  0.60297896441E+02  0.21317521425E+02 -0.36054705345E+03  0.38695214030E+03  0.12509000000E+03 0.  0.
         25    1    4    4    0    0 -0.16043315845E+02  0.25929114123E+02 -0.25907634317E+03  0.28930566298E+03  0.12509000000E+03 0.  0.
         25    1    3    3    0    0 -0.44254580596E+02 -0.47246635548E+02 -0.14047238123E+03  0.19892388108E+03  0.12509000000E+03 0.  0.
<mgrwt>
<rscale>  2 0.43381723E+03</rscale>
<asrwt>0</asrwt>
<pdfrwt beam="1">  1       21 0.84621994E-02 0.43381723E+03</pdfrwt>
<pdfrwt beam="2">  1       21 0.12024098E+00 0.43381723E+03</pdfrwt>
<totfact> 0.52506282E+04</totfact>
</mgrwt>
</event>
<event>
 7    0  0.4779893E-002  0.4569399E+03  0.7546771E-02  0.1025672E+00
         21   -1    0    0  502  501  0.00000000000E+00  0.00000000000E+00  0.19754599044E+03  0.19754599044E+03  0.00000000000E+00 0. -1.
         21   -1    0    0  501  502 -0.00000000000E+00 -0.00000000000E+00 -0.26423473071E+03  0.26423473071E+03  0.00000000000E+00 0. -1.
      99926    2    1    2    0    0  0.00000000000E+00  0.00000000000E+00 -0.66688740273E+02  0.46178072116E+03  0.45693987170E+03 0.  0.
      99925    2    3    3    0    0 -0.10136960921E+03  0.54247361203E+02 -0.39943689002E+02  0.28978833837E+03  0.26298899007E+03 0.  0.
         25    1    3    3    0    0  0.10136960921E+03 -0.54247361203E+02 -0.26745051271E+02  0.17199238278E+03  0.12509000000E+03 0.  0.
         25    1    4    4    0    0 -0.42945149370E+02  0.35528180412E+02  0.19473510037E+02  0.13832303912E+03  0.12509000000E+03 0.  0.
         25    1    4    4    0    0 -0.58424459836E+02  0.18719180791E+02 -0.59417199039E+02  0.15146529925E+03  0.12509000000E+03 0.  0.
<mgrwt>
<rscale>  2 0.45693987E+03</rscale>
<asrwt>0</asrwt>
<pdfrwt beam="1">  1       21 0.29050881E-01 0.45693987E+03</pdfrwt>
<pdfrwt beam="2">  1       21 0.38858049E-01 0.45693987E+03</pdfrwt>
<totfact> 0.67008367E+04</totfact>
</mgrwt>
</event>
<event>
 7    0  0.4779893E-002  0.4498072E+03  0.7546771E-02  0.1027780E+00
         21   -1    0    0  502  501  0.00000000000E+00  0.00000000000E+00  0.12994079009E+03  0.12994079009E+03  0.00000000000E+00 0.  1.
         21   -1    0    0  501  502 -0.00000000000E+00 -0.00000000000E+00 -0.38926676685E+03  0.38926676685E+03  0.00000000000E+00 0.  1.
      99926    2    1    2    0    0  0.14210854715E-13  0.17763568394E-14 -0.25932597676E+03  0.51920755694E+03  0.44980720867E+03 0.  0.
      99925    2    3    3    0    0  0.10450022523E+03 -0.19873527758E+01 -0.13157617007E+03  0.31210427872E+03  0.26300674063E+03 0.  0.
         25    1    3    3    0    0 -0.10450022523E+03  0.19873527758E+01 -0.12774980668E+03  0.20710327823E+03  0.12509000000E+03 0.  0.
         25    1    4    4    0    0  0.83305355828E+02 -0.19797319742E+02 -0.47472958469E+02  0.15884868921E+03  0.12509000000E+03 0.  0.
         25    1    4    4    0    0  0.21194869405E+02  0.17809966967E+02 -0.84103211603E+02  0.15325558950E+03  0.12509000000E+03 0.  0.
<mgrwt>
<rscale>  2 0.44980721E+03</rscale>
<asrwt>0</asrwt>
<pdfrwt beam="1">  1       21 0.19108940E-01 0.44980721E+03</pdfrwt>
<pdfrwt beam="2">  1       21 0.57245113E-01 0.44980721E+03</pdfrwt>
<totfact> 0.66644623E+04</totfact>
</mgrwt>
</event>
<event>
 7    0  0.4779893E-002  0.4526632E+03  0.7546771E-02  0.1026931E+00
         21   -1    0    0  502  501  0.00000000000E+00  0.00000000000E+00  0.15358574854E+03  0.15358574854E+03  0.00000000000E+00 0.  1.
         21   -1    0    0  501  502 -0.00000000000E+00 -0.00000000000E+00 -0.33353352449E+03  0.33353352449E+03  0.00000000000E+00 0.  1.
      99926    2    1    2    0    0  0.00000000000E+00  0.71054273576E-14 -0.17994777594E+03  0.48711927303E+03  0.45266321265E+03 0.  0.
      99925    2    3    3    0    0 -0.78027945514E+02  0.55757082209E+02 -0.17350983723E+03  0.32936577021E+03  0.26301888615E+03 0.  0.
         25    1    4    4    0    0 -0.28247155177E+02  0.85252528424E+01 -0.12332440592E+03  0.17812074249E+03  0.12509000000E+03 0.  0.
         25    1    3    3    0    0  0.78027945514E+02 -0.55757082209E+02 -0.64379387077E+01  0.15775350282E+03  0.12509000000E+03 0.  0.
         25    1    4    4    0    0 -0.49780790337E+02  0.47231829367E+02 -0.50185431317E+02  0.15124502771E+03  0.12509000000E+03 0.  0.
<mgrwt>
<rscale>  2 0.45266321E+03</rscale>
<asrwt>0</asrwt>
<pdfrwt beam="1">  1       21 0.22586140E-01 0.45266321E+03</pdfrwt>
<pdfrwt beam="2">  1       21 0.49049048E-01 0.45266321E+03</pdfrwt>
<totfact> 0.67427597E+04</totfact>
</mgrwt>
</event>
<event>
 7    0  0.4779893E-002  0.4549323E+03  0.7546771E-02  0.1026261E+00
         21   -1    0    0  502  501  0.00000000000E+00  0.00000000000E+00  0.30407815306E+03  0.30407815306E+03  0.00000000000E+00 0. -1.
         21   -1    0    0  501  502 -0.00000000000E+00 -0.00000000000E+00 -0.17015645109E+03  0.17015645109E+03  0.00000000000E+00 0. -1.
      99926    2    1    2    0    0  0.00000000000E+00  0.00000000000E+00  0.13392170196E+03  0.47423460415E+03  0.45493234389E+03 0.  0.
      99925    2    3    3    0    0  0.80353423246E+01 -0.29028396457E+02 -0.29393810276E+02  0.26632433705E+03  0.26297802550E+03 0.  0.
         25    1    3    3    0    0 -0.80353423246E+01  0.29028396457E+02  0.16331551224E+03  0.20791026710E+03  0.12509000000E+03 0.  0.
         25    1    4    4    0    0  0.14626131319E+02  0.19933403161E+01 -0.50232542168E+02  0.13560499075E+03  0.12509000000E+03 0.  0.
         25    1    4    4    0    0 -0.65907889939E+01 -0.31021736773E+02  0.20838731892E+02  0.13071934631E+03  0.12509000000E+03 0.  0.
<mgrwt>
<rscale>  2 0.45493234E+03</rscale>
<asrwt>0</asrwt>
<pdfrwt beam="1">  1       21 0.44717375E-01 0.45493234E+03</pdfrwt>
<pdfrwt beam="2">  1       21 0.25023008E-01 0.45493234E+03</pdfrwt>
<totfact> 0.67158297E+04</totfact>
</mgrwt>
</event>
<event>
 7    0  0.4779893E-002  0.4586585E+03  0.7546771E-02  0.1025171E+00
         21   -1    0    0  502  501  0.00000000000E+00  0.00000000000E+00  0.66506242710E+03  0.66506242710E+03  0.00000000000E+00 0.  1.
         21   -1    0    0  501  502 -0.00000000000E+00 -0.00000000000E+00 -0.79078142757E+02  0.79078142757E+02  0.00000000000E+00 0.  1.
      99926    2    1    2    0    0  0.00000000000E+00  0.00000000000E+00  0.58598428435E+03  0.74414056986E+03  0.45865848538E+03 0.  0.
      99925    2    3    3    0    0  0.81124717138E+02  0.83148822886E+02  0.38380209045E+03  0.47952746719E+03  0.26295931372E+03 0.  0.
         25    1    4    4    0    0  0.46193581994E+02  0.69458498315E+02  0.15410300227E+03  0.21529880031E+03  0.12509000000E+03 0.  0.
         25    1    3    3    0    0 -0.81124717138E+02 -0.83148822886E+02  0.20218219390E+03  0.26461310267E+03  0.12509000000E+03 0.  0.
         25    1    4    4    0    0  0.34931135144E+02  0.13690324571E+02  0.22969908818E+03  0.26422866688E+03  0.12509000000E+03 0.  0.
<mgrwt>
<rscale>  2 0.45865849E+03</rscale>
<asrwt>0</asrwt>
<pdfrwt beam="1">  1       21 0.97803295E-01 0.45865849E+03</pdfrwt>
<pdfrwt beam="2">  1       21 0.11629139E-01 0.45865849E+03</pdfrwt>
<totfact> 0.49142486E+04</totfact>
</mgrwt>
</event>
<event>
 7    0  0.4779893E-002  0.4544773E+03  0.7546771E-02  0.1026395E+00
         21   -1    0    0  502  501  0.00000000000E+00  0.00000000000E+00  0.63557459408E+02  0.63557459408E+02  0.00000000000E+00 0.  1.
         21   -1    0    0  501  502 -0.00000000000E+00 -0.00000000000E+00 -0.81245224570E+03  0.81245224570E+03  0.00000000000E+00 0.  1.
      99926    2    1    2    0    0  0.71054273576E-14  0.35527136788E-14 -0.74889478629E+03  0.87600970511E+03  0.45447728492E+03 0.  0.
      99925    2    3    3    0    0  0.48491683433E+02  0.25348191082E+02 -0.66132859208E+03  0.71380822354E+03  0.26300703250E+03 0.  0.
         25    1    3    3    0    0 -0.48491683433E+02 -0.25348191082E+02 -0.87566194216E+02  0.16220148157E+03  0.12509000000E+03 0.  0.
         25    1    4    4    0    0  0.47444857221E+02 -0.11602359977E+02 -0.39602650914E+03  0.41817476404E+03  0.12509000000E+03 0.  0.
         25    1    4    4    0    0  0.10468262113E+01  0.36950551059E+02 -0.26530208293E+03  0.29563345950E+03  0.12509000000E+03 0.  0.
<mgrwt>
<rscale>  2 0.45447728E+03</rscale>
<asrwt>0</asrwt>
<pdfrwt beam="1">  1       21 0.93466855E-02 0.45447728E+03</pdfrwt>
<pdfrwt beam="2">  1       21 0.11947827E+00 0.45447728E+03</pdfrwt>
<totfact> 0.44469016E+04</totfact>
</mgrwt>
</event>
<event>
 7    0  0.4779893E-002  0.4574961E+03  0.7546771E-02  0.1025510E+00
         21   -1    0    0  502  501  0.00000000000E+00  0.00000000000E+00  0.22848145149E+04  0.22848145149E+04  0.00000000000E+00 0.  1.
         21   -1    0    0  501  502 -0.00000000000E+00 -0.00000000000E+00 -0.22901500817E+02  0.22901500817E+02  0.00000000000E+00 0.  1.
      99926    2    1    2    0    0  0.14210854715E-13 -0.35527136788E-14  0.22619130141E+04  0.23077160157E+04  0.45749614853E+03 0.  0.
      99925    2    3    3    0    0  0.70350107624E+02 -0.17410687993E+02  0.18737819264E+04  0.18935354766E+04  0.26299358082E+03 0.  0.
         25    1    3    3    0    0 -0.70350107624E+02  0.17410687993E+02  0.38813108767E+03  0.41418053916E+03  0.12509000000E+03 0.  0.
         25    1    4    4    0    0  0.74166646905E+02 -0.23866641401E+02  0.98554844721E+03  0.99650567383E+03  0.12509000000E+03 0.  0.
         25    1    4    4    0    0 -0.38165392811E+01  0.64559534086E+01  0.88823347924E+03  0.89702980276E+03  0.12509000000E+03 0.  0.
<mgrwt>
<rscale>  2 0.45749615E+03</rscale>
<asrwt>0</asrwt>
<pdfrwt beam="1">  1       21 0.33600198E+00 0.45749615E+03</pdfrwt>
<pdfrwt beam="2">  1       21 0.33678693E-02 0.45749615E+03</pdfrwt>
<totfact> 0.91266861E+03</totfact>
</mgrwt>
</event>
<event>
 7    0  0.4779893E-002  0.4504975E+03  0.7546771E-02  0.1027574E+00
         21   -1    0    0  502  501  0.00000000000E+00  0.00000000000E+00  0.65180135361E+03  0.65180135361E+03  0.00000000000E+00 0.  1.
         21   -1    0    0  501  502 -0.00000000000E+00 -0.00000000000E+00 -0.77841182503E+02  0.77841182503E+02  0.00000000000E+00 0.  1.
      99926    2    1    2    0    0 -0.88817841970E-15  0.00000000000E+00  0.57396017111E+03  0.72964253611E+03  0.45049745004E+03 0.  0.
      99925    2    3    3    0    0 -0.61583708573E+01  0.10596998703E+03  0.40223104636E+03  0.49214313807E+03  0.26295910332E+03 0.  0.
         25    1    3    3    0    0  0.61583708573E+01 -0.10596998703E+03  0.17172912475E+03  0.23749939804E+03  0.12509000000E+03 0.  0.
         25    1    4    4    0    0 -0.26492185482E+02  0.48902699720E+02  0.25658977470E+03  0.29082491384E+03  0.12509000000E+03 0.  0.
         25    1    4    4    0    0  0.20333814625E+02  0.57067287305E+02  0.14564127166E+03  0.20131822423E+03  0.12509000000E+03 0.  0.
<mgrwt>
<rscale>  2 0.45049745E+03</rscale>
<asrwt>0</asrwt>
<pdfrwt beam="1">  1       21 0.95853138E-01 0.45049745E+03</pdfrwt>
<pdfrwt beam="2">  1       21 0.11447233E-01 0.45049745E+03</pdfrwt>
<totfact> 0.53181033E+04</totfact>
</mgrwt>
</event>
<event>
 7    0  0.4779893E-002  0.4427145E+03  0.7546771E-02  0.1029917E+00
         21   -1    0    0  502  501  0.00000000000E+00  0.00000000000E+00  0.30897202152E+03  0.30897202152E+03  0.00000000000E+00 0. -1.
         21   -1    0    0  501  502 -0.00000000000E+00 -0.00000000000E+00 -0.15858728791E+03  0.15858728791E+03  0.00000000000E+00 0. -1.
      99926    2    1    2    0    0  0.00000000000E+00  0.71054273576E-14  0.15038473361E+03  0.46755930943E+03  0.44271451267E+03 0.  0.
      99925    2    3    3    0    0 -0.70653305652E+01  0.59337917592E+02  0.18204792583E+03  0.32535884107E+03  0.26295630968E+03 0.  0.
         25    1    4    4    0    0 -0.63752642338E+01  0.71066125104E+02  0.98717907787E+02  0.17459602386E+03  0.12509000000E+03 0.  0.
         25    1    4    4    0    0 -0.69006633143E+00 -0.11728207512E+02  0.83330018046E+02  0.15076281720E+03  0.12509000000E+03 0.  0.
         25    1    3    3    0    0  0.70653305652E+01 -0.59337917592E+02 -0.31663192222E+02  0.14220046836E+03  0.12509000000E+03 0.  0.
<mgrwt>
<rscale>  2 0.44271451E+03</rscale>
<asrwt>0</asrwt>
<pdfrwt beam="1">  1       21 0.45437062E-01 0.44271451E+03</pdfrwt>
<pdfrwt beam="2">  1       21 0.23321660E-01 0.44271451E+03</pdfrwt>
<totfact> 0.74632512E+04</totfact>
</mgrwt>
</event>
<event>
 7    0  0.4779893E-002  0.4357590E+03  0.7546771E-02  0.1032056E+00
         21   -1    0    0  502  501  0.00000000000E+00  0.00000000000E+00  0.39241500388E+03  0.39241500388E+03  0.00000000000E+00 0. -1.
         21   -1    0    0  501  502 -0.00000000000E+00 -0.00000000000E+00 -0.12097263913E+03  0.12097263913E+03  0.00000000000E+00 0. -1.
      99926    2    1    2    0    0 -0.44408920985E-15  0.35527136788E-14  0.27144236475E+03  0.51338764301E+03  0.43575900979E+03 0.  0.
      99925    2    3    3    0    0  0.23841825491E+01  0.12084250542E+02  0.63863092296E+02  0.27071837036E+03  0.26278932256E+03 0.  0.
         25    1    3    3    0    0 -0.23841825491E+01 -0.12084250542E+02  0.20757927246E+03  0.24266927265E+03  0.12509000000E+03 0.  0.
         25    1    4    4    0    0  0.16379357695E+02  0.43293060159E+02  0.30860448252E+02  0.13690305980E+03  0.12509000000E+03 0.  0.
         25    1    4    4    0    0 -0.13995175146E+02 -0.31208809617E+02  0.33002644044E+02  0.13381531056E+03  0.12509000000E+03 0.  0.
<mgrwt>
<rscale>  2 0.43575901E+03</rscale>
<asrwt>0</asrwt>
<pdfrwt beam="1">  1       21 0.57708088E-01 0.43575901E+03</pdfrwt>
<pdfrwt beam="2">  1       21 0.17790094E-01 0.43575901E+03</pdfrwt>
<totfact> 0.75167977E+04</totfact>
</mgrwt>
</event>
<event>
 7    0  0.4779893E-002  0.4522263E+03  0.7546771E-02  0.1027060E+00
         21   -1    0    0  502  501  0.00000000000E+00  0.00000000000E+00  0.45353796699E+02  0.45353796699E+02  0.00000000000E+00 0. -1.
         21   -1    0    0  501  502 -0.00000000000E+00 -0.00000000000E+00 -0.11272962690E+04  0.11272962690E+04  0.00000000000E+00 0. -1.
      99926    2    1    2    0    0  0.88817841970E-15 -0.14210854715E-13 -0.10819424723E+04  0.11726500657E+04  0.45222634069E+03 0.  0.
      99925    2    3    3    0    0 -0.58596800204E+01  0.11032051291E+03 -0.67943956832E+03  0.73691959025E+03  0.26307300142E+03 0.  0.
         25    1    4    4    0    0  0.12188066846E+02  0.89776150241E+02 -0.31929732355E+03  0.35469225401E+03  0.12509000000E+03 0.  0.
         25    1    4    4    0    0 -0.18047746867E+02  0.20544362673E+02 -0.36014224477E+03  0.38222733624E+03  0.12509000000E+03 0.  0.
         25    1    3    3    0    0  0.58596800204E+01 -0.11032051291E+03 -0.40250290395E+03  0.43573047542E+03  0.12509000000E+03 0.  0.
<mgrwt>
<rscale>  2 0.45222634E+03</rscale>
<asrwt>0</asrwt>
<pdfrwt beam="1">  1       21 0.66696767E-02 0.45222634E+03</pdfrwt>
<pdfrwt beam="2">  1       21 0.16577885E+00 0.45222634E+03</pdfrwt>
<totfact> 0.33758790E+04</totfact>
</mgrwt>
</event>
<event>
 7    0  0.4779893E-002  0.4532445E+03  0.7546771E-02  0.1026759E+00
         21   -1    0    0  502  501  0.00000000000E+00  0.00000000000E+00  0.37940545338E+03  0.37940545338E+03  0.00000000000E+00 0. -1.
         21   -1    0    0  501  502 -0.00000000000E+00 -0.00000000000E+00 -0.13536345966E+03  0.13536345966E+03  0.00000000000E+00 0. -1.
      99926    2    1    2    0    0  0.17763568394E-14 -0.14210854715E-13  0.24404199372E+03  0.51476891305E+03  0.45324445848E+03 0.  0.
      99925    2    3    3    0    0 -0.12101861620E+02 -0.91030924417E+02  0.81471438537E+02  0.29002510831E+03  0.26276202903E+03 0.  0.
         25    1    4    4    0    0 -0.18035324567E+02 -0.79153447477E+02  0.66723227237E+02  0.16337086133E+03  0.12509000000E+03 0.  0.
         25    1    4    4    0    0  0.59334629474E+01 -0.11877476940E+02  0.14748211301E+02  0.12665424698E+03  0.12509000000E+03 0.  0.
         25    1    3    3    0    0  0.12101861620E+02  0.91030924417E+02  0.16257055518E+03  0.22474380473E+03  0.12509000000E+03 0.  0.
<mgrwt>
<rscale>  2 0.45324446E+03</rscale>
<asrwt>0</asrwt>
<pdfrwt beam="1">  1       21 0.55794919E-01 0.45324446E+03</pdfrwt>
<pdfrwt beam="2">  1       21 0.19906391E-01 0.45324446E+03</pdfrwt>
<totfact> 0.65147859E+04</totfact>
</mgrwt>
</event>
<event>
 7    0  0.4779893E-002  0.4559139E+03  0.7546771E-02  0.1025973E+00
         21   -1    0    0  502  501  0.00000000000E+00  0.00000000000E+00  0.61360421473E+03  0.61360421473E+03  0.00000000000E+00 0.  1.
         21   -1    0    0  501  502 -0.00000000000E+00 -0.00000000000E+00 -0.84687133147E+02  0.84687133147E+02  0.00000000000E+00 0.  1.
      99926    2    1    2    0    0  0.00000000000E+00  0.00000000000E+00  0.52891708159E+03  0.69829134788E+03  0.45591394729E+03 0.  0.
      99925    2    3    3    0    0  0.68128438605E+02  0.50840314831E+02  0.21613459701E+03  0.35086277606E+03  0.26299106799E+03 0.  0.
         25    1    3    3    0    0 -0.68128438605E+02 -0.50840314831E+02  0.31278248458E+03  0.34742857183E+03  0.12509000000E+03 0.  0.
         25    1    4    4    0    0  0.14629480267E+02  0.12529386379E+02  0.59399200044E+02  0.13980980038E+03  0.12509000000E+03 0.  0.
         25    1    4    4    0    0  0.53498958339E+02  0.38310928452E+02  0.15673539696E+03  0.21105297568E+03  0.12509000000E+03 0.  0.
<mgrwt>
<rscale>  2 0.45591395E+03</rscale>
<asrwt>0</asrwt>
<pdfrwt beam="1">  1       21 0.90235912E-01 0.45591395E+03</pdfrwt>
<pdfrwt beam="2">  1       21 0.12453990E-01 0.45591395E+03</pdfrwt>
<totfact> 0.52616342E+04</totfact>
</mgrwt>
</event>
<event>
 7    0  0.4779893E-002  0.4544955E+03  0.7546771E-02  0.1026390E+00
         21   -1    0    0  502  501  0.00000000000E+00  0.00000000000E+00  0.14353160527E+03  0.14353160527E+03  0.00000000000E+00 0.  1.
         21   -1    0    0  501  502 -0.00000000000E+00 -0.00000000000E+00 -0.35979209059E+03  0.35979209059E+03  0.00000000000E+00 0.  1.
      99926    2    1    2    0    0  0.00000000000E+00  0.00000000000E+00 -0.21626048532E+03  0.50332369586E+03  0.45449548436E+03 0.  0.
      99925    2    3    3    0    0  0.10269068112E+03  0.45273731614E+01 -0.84948204914E+02  0.29486195793E+03  0.26298574794E+03 0.  0.
         25    1    4    4    0    0  0.47806883639E+02  0.27410829621E+02 -0.75210473126E+02  0.15601594493E+03  0.12509000000E+03 0.  0.
         25    1    4    4    0    0  0.54883797479E+02 -0.22883456460E+02 -0.97377317885E+01  0.13884601300E+03  0.12509000000E+03 0.  0.
         25    1    3    3    0    0 -0.10269068112E+03 -0.45273731614E+01 -0.13131228041E+03  0.20846173793E+03  0.12509000000E+03 0.  0.
<mgrwt>
<rscale>  2 0.45449548E+03</rscale>
<asrwt>0</asrwt>
<pdfrwt beam="1">  1       21 0.21107589E-01 0.45449548E+03</pdfrwt>
<pdfrwt beam="2">  1       21 0.52910601E-01 0.45449548E+03</pdfrwt>
<totfact> 0.65298893E+04</totfact>
</mgrwt>
</event>
<event>
 7    0  0.4779893E-002  0.4567900E+03  0.7546771E-02  0.1025716E+00
         21   -1    0    0  502  501  0.00000000000E+00  0.00000000000E+00  0.24832989128E+04  0.24832989128E+04  0.00000000000E+00 0.  1.
         21   -1    0    0  501  502 -0.00000000000E+00 -0.00000000000E+00 -0.21006044164E+02  0.21006044164E+02  0.00000000000E+00 0.  1.
      99926    2    1    2    0    0  0.35527136788E-14  0.00000000000E+00  0.24622928686E+04  0.25043049569E+04  0.45679004645E+03 0.  0.
      99925    2    3    3    0    0 -0.19544114490E+02  0.10697678043E+03  0.17546184474E+04  0.17774785688E+04  0.26252268972E+03 0.  0.
         25    1    4    4    0    0  0.23929559979E+02  0.29630327833E+02  0.82111568182E+03  0.83146199625E+03  0.12509000000E+03 0.  0.
         25    1    3    3    0    0  0.19544114490E+02 -0.10697678043E+03  0.70767442115E+03  0.72682638808E+03  0.12509000000E+03 0.  0.
         25    1    4    4    0    0 -0.43473674470E+02  0.77346452592E+02  0.93350276563E+03  0.94601657260E+03  0.12509000000E+03 0.  0.
<mgrwt>
<rscale>  2 0.45679005E+03</rscale>
<asrwt>0</asrwt>
<pdfrwt beam="1">  1       21 0.36519081E+00 0.45679005E+03</pdfrwt>
<pdfrwt beam="2">  1       21 0.30891259E-02 0.45679005E+03</pdfrwt>
<totfact> 0.69900570E+03</totfact>
</mgrwt>
</event>
<event>
 7    0  0.4779893E-002  0.4524241E+03  0.7546771E-02  0.1027002E+00
         21   -1    0    0  502  501  0.00000000000E+00  0.00000000000E+00  0.23744253396E+03  0.23744253396E+03  0.00000000000E+00 0. -1.
         21   -1    0    0  501  502 -0.00000000000E+00 -0.00000000000E+00 -0.21551270983E+03  0.21551270983E+03  0.00000000000E+00 0. -1.
      99926    2    1    2    0    0  0.14210854715E-13  0.71054273576E-14  0.21929824129E+02  0.45295524378E+03  0.45242406621E+03 0.  0.
      99925    2    3    3    0    0 -0.88198056991E+02 -0.54096435732E+02 -0.25457380843E+02  0.28384469736E+03  0.26308632113E+03 0.  0.
         25    1    4    4    0    0 -0.16602770677E+02 -0.15449878870E+02  0.18064371150E+02  0.12840630964E+03  0.12509000000E+03 0.  0.
         25    1    3    3    0    0  0.88198056991E+02  0.54096435732E+02  0.47387204973E+02  0.16911054642E+03  0.12509000000E+03 0.  0.
         25    1    4    4    0    0 -0.71595286313E+02 -0.38646556862E+02 -0.43521751994E+02  0.15543838772E+03  0.12509000000E+03 0.  0.
<mgrwt>
<rscale>  2 0.45242407E+03</rscale>
<asrwt>0</asrwt>
<pdfrwt beam="1">  1       21 0.34918020E-01 0.45242407E+03</pdfrwt>
<pdfrwt beam="2">  1       21 0.31693045E-01 0.45242407E+03</pdfrwt>
<totfact> 0.70126135E+04</totfact>
</mgrwt>
</event>
<event>
 7    0  0.4779893E-002  0.4564292E+03  0.7546771E-02  0.1025822E+00
         21   -1    0    0  502  501  0.00000000000E+00  0.00000000000E+00  0.95676737816E+03  0.95676737816E+03  0.00000000000E+00 0. -1.
         21   -1    0    0  501  502 -0.00000000000E+00 -0.00000000000E+00 -0.54435275653E+02  0.54435275653E+02  0.00000000000E+00 0. -1.
      99926    2    1    2    0    0 -0.71054273576E-14  0.17763568394E-14  0.90233210251E+03  0.10112026538E+04  0.45642916632E+03 0.  0.
      99925    2    3    3    0    0  0.56716671345E+02 -0.14182535884E+02  0.78508461944E+03  0.83006070528E+03  0.26310642265E+03 0.  0.
         25    1    4    4    0    0  0.33523713512E+02 -0.26221684413E+02  0.28886783233E+03  0.31765318943E+03  0.12509000000E+03 0.  0.
         25    1    4    4    0    0  0.23192957833E+02  0.12039148528E+02  0.49621678710E+03  0.51240751585E+03  0.12509000000E+03 0.  0.
         25    1    3    3    0    0 -0.56716671345E+02  0.14182535884E+02  0.11724748307E+03  0.18114194854E+03  0.12509000000E+03 0.  0.
<mgrwt>
<rscale>  2 0.45642917E+03</rscale>
<asrwt>0</asrwt>
<pdfrwt beam="1">  1       21 0.14070108E+00 0.45642917E+03</pdfrwt>
<pdfrwt beam="2">  1       21 0.80051882E-02 0.45642917E+03</pdfrwt>
<totfact> 0.38304594E+04</totfact>
</mgrwt>
</event>
<event>
 7    0  0.4779893E-002  0.4529580E+03  0.7546771E-02  0.1026844E+00
         21   -1    0    0  502  501  0.00000000000E+00  0.00000000000E+00  0.76215920208E+02  0.76215920208E+02  0.00000000000E+00 0.  1.
         21   -1    0    0  501  502 -0.00000000000E+00 -0.00000000000E+00 -0.67299253670E+03  0.67299253670E+03  0.00000000000E+00 0.  1.
      99926    2    1    2    0    0  0.14210854715E-13 -0.35527136788E-14 -0.59677661649E+03  0.74920845691E+03  0.45295803549E+03 0.  0.
      99925    2    3    3    0    0 -0.71392319736E+02  0.23697478648E+02 -0.24039825694E+03  0.36409616540E+03  0.26289971835E+03 0.  0.
         25    1    4    4    0    0 -0.34915613895E+00  0.32185975014E+02 -0.12019701382E+03  0.17643947724E+03  0.12509000000E+03 0.  0.
         25    1    3    3    0    0  0.71392319736E+02 -0.23697478648E+02 -0.35637835955E+03  0.38511229151E+03  0.12509000000E+03 0.  0.
         25    1    4    4    0    0 -0.71043163597E+02 -0.84884963658E+01 -0.12020124312E+03  0.18765668816E+03  0.12509000000E+03 0.  0.
<mgrwt>
<rscale>  2 0.45295804E+03</rscale>
<asrwt>0</asrwt>
<pdfrwt beam="1">  1       21 0.11208224E-01 0.45295804E+03</pdfrwt>
<pdfrwt beam="2">  1       21 0.98969489E-01 0.45295804E+03</pdfrwt>
<totfact> 0.51126960E+04</totfact>
</mgrwt>
</event>
<event>
 7    0  0.4779893E-002  0.4583673E+03  0.7546771E-02  0.1025256E+00
         21   -1    0    0  502  501  0.00000000000E+00  0.00000000000E+00  0.71642407237E+02  0.71642407237E+02  0.00000000000E+00 0.  1.
         21   -1    0    0  501  502 -0.00000000000E+00 -0.00000000000E+00 -0.73315716894E+03  0.73315716894E+03  0.00000000000E+00 0.  1.
      99926    2    1    2    0    0  0.00000000000E+00  0.14210854715E-13 -0.66151476170E+03  0.80479957617E+03  0.45836729580E+03 0.  0.
      99925    2    3    3    0    0 -0.40286558653E+02 -0.64279844130E+02 -0.57012971817E+03  0.63230714315E+03  0.26269663600E+03 0.  0.
         25    1    4    4    0    0 -0.10038511158E+02 -0.45765480631E+02 -0.20462084623E+03  0.24436130982E+03  0.12509000000E+03 0.  0.
         25    1    3    3    0    0  0.40286558653E+02  0.64279844130E+02 -0.91385043528E+02  0.17249243302E+03  0.12509000000E+03 0.  0.
         25    1    4    4    0    0 -0.30248047494E+02 -0.18514363499E+02 -0.36550887194E+03  0.38794583333E+03  0.12509000000E+03 0.  0.
<mgrwt>
<rscale>  2 0.45836730E+03</rscale>
<asrwt>0</asrwt>
<pdfrwt beam="1">  1       21 0.10535649E-01 0.45836730E+03</pdfrwt>
<pdfrwt beam="2">  1       21 0.10781722E+00 0.45836730E+03</pdfrwt>
<totfact> 0.46297940E+04</totfact>
</mgrwt>
</event>
<event>
 7    0  0.4779893E-002  0.4542169E+03  0.7546771E-02  0.1026472E+00
         21   -1    0    0  502  501  0.00000000000E+00  0.00000000000E+00  0.15577728528E+03  0.15577728528E+03  0.00000000000E+00 0. -1.
         21   -1    0    0  501  502 -0.00000000000E+00 -0.00000000000E+00 -0.33110246470E+03  0.33110246470E+03  0.00000000000E+00 0. -1.
      99926    2    1    2    0    0 -0.88817841970E-15  0.35527136788E-14 -0.17532517942E+03  0.48687974999E+03  0.45421687816E+03 0.  0.
      99925    2    3    3    0    0  0.24925968949E+01  0.23848117637E+02  0.75224514010E+01  0.26404413804E+03  0.26284553221E+03 0.  0.
         25    1    3    3    0    0 -0.24925968949E+01 -0.23848117637E+02 -0.18284763082E+03  0.22283561195E+03  0.12509000000E+03 0.  0.
         25    1    4    4    0    0  0.18190658400E+02  0.48632878933E+02  0.24904226469E+01  0.13546131282E+03  0.12509000000E+03 0.  0.
         25    1    4    4    0    0 -0.15698061505E+02 -0.24784761296E+02  0.50320287540E+01  0.12858282522E+03  0.12509000000E+03 0.  0.
<mgrwt>
<rscale>  2 0.45421688E+03</rscale>
<asrwt>0</asrwt>
<pdfrwt beam="1">  1       21 0.22908425E-01 0.45421688E+03</pdfrwt>
<pdfrwt beam="2">  1       21 0.48691538E-01 0.45421688E+03</pdfrwt>
<totfact> 0.66615795E+04</totfact>
</mgrwt>
</event>
<event>
 7    0  0.4779893E-002  0.4461798E+03  0.7546771E-02  0.1028867E+00
         21   -1    0    0  502  501  0.00000000000E+00  0.00000000000E+00  0.16281991462E+03  0.16281991462E+03  0.00000000000E+00 0.  1.
         21   -1    0    0  501  502 -0.00000000000E+00 -0.00000000000E+00 -0.30566957708E+03  0.30566957708E+03  0.00000000000E+00 0.  1.
      99926    2    1    2    0    0  0.71054273576E-14  0.00000000000E+00 -0.14284966246E+03  0.46848949170E+03  0.44617975948E+03 0.  0.
      99925    2    3    3    0    0 -0.47541328012E+02  0.84894246619E+02 -0.49370262471E+02  0.28449732529E+03  0.26274340012E+03 0.  0.
         25    1    3    3    0    0  0.47541328012E+02 -0.84894246619E+02 -0.93479399989E+02  0.18399216641E+03  0.12509000000E+03 0.  0.
         25    1    4    4    0    0 -0.55809882966E+02  0.18575805696E+02 -0.28663581122E+02  0.14116980051E+03  0.12509000000E+03 0.  0.
         25    1    4    4    0    0  0.82685549542E+01  0.66318440924E+02 -0.20706681349E+02  0.14332752478E+03  0.12509000000E+03 0.  0.
<mgrwt>
<rscale>  2 0.44617976E+03</rscale>
<asrwt>0</asrwt>
<pdfrwt beam="1">  1       21 0.23944105E-01 0.44617976E+03</pdfrwt>
<pdfrwt beam="2">  1       21 0.44951408E-01 0.44617976E+03</pdfrwt>
<totfact> 0.72490373E+04</totfact>
</mgrwt>
</event>
<event>
 7    0  0.4779893E-002  0.4648848E+03  0.7546771E-02  0.1023374E+00
         21   -1    0    0  502  501  0.00000000000E+00  0.00000000000E+00  0.24254677979E+03  0.24254677979E+03  0.00000000000E+00 0. -1.
         21   -1    0    0  501  502 -0.00000000000E+00 -0.00000000000E+00 -0.22275899659E+03  0.22275899659E+03  0.00000000000E+00 0. -1.
      99926    2    1    2    0    0  0.14210854715E-13 -0.71054273576E-14  0.19787783204E+02  0.46530577638E+03  0.46488483431E+03 0.  0.
      99925    2    3    3    0    0 -0.71485464635E+02  0.24017597609E+02  0.10745146421E+03  0.29495482770E+03  0.26413162736E+03 0.  0.
         25    1    4    4    0    0 -0.18565826202E+02 -0.17454859926E+02  0.22960763172E+02  0.12970762037E+03  0.12509000000E+03 0.  0.
         25    1    3    3    0    0  0.71485464635E+02 -0.24017597609E+02 -0.87663681008E+02  0.17035094868E+03  0.12509000000E+03 0.  0.
         25    1    4    4    0    0 -0.52919638433E+02  0.41472457534E+02  0.84490701040E+02  0.16524720732E+03  0.12509000000E+03 0.  0.
<mgrwt>
<rscale>  2 0.46488483E+03</rscale>
<asrwt>0</asrwt>
<pdfrwt beam="1">  1       21 0.35668645E-01 0.46488483E+03</pdfrwt>
<pdfrwt beam="2">  1       21 0.32758676E-01 0.46488483E+03</pdfrwt>
<totfact> 0.62703999E+04</totfact>
</mgrwt>
</event>
<event>
 7    0  0.4779893E-002  0.4506094E+03  0.7546771E-02  0.1027540E+00
         21   -1    0    0  502  501  0.00000000000E+00  0.00000000000E+00  0.70604353135E+03  0.70604353135E+03  0.00000000000E+00 0. -1.
         21   -1    0    0  501  502 -0.00000000000E+00 -0.00000000000E+00 -0.71896719538E+02  0.71896719538E+02  0.00000000000E+00 0. -1.
      99926    2    1    2    0    0  0.17763568394E-14  0.00000000000E+00  0.63414681181E+03  0.77794025089E+03  0.45060942625E+03 0.  0.
      99925    2    3    3    0    0  0.84818505858E+01  0.76937050390E+02  0.26938332275E+03  0.38463227670E+03  0.26340721742E+03 0.  0.
         25    1    3    3    0    0 -0.84818505858E+01 -0.76937050390E+02  0.36476348906E+03  0.39330797419E+03  0.12509000000E+03 0.  0.
         25    1    4    4    0    0  0.29672445956E+00  0.19590316492E+02  0.77797577487E+02  0.14860632459E+03  0.12509000000E+03 0.  0.
         25    1    4    4    0    0  0.81851261262E+01  0.57346733898E+02  0.19158574527E+03  0.23602595211E+03  0.12509000000E+03 0.  0.
<mgrwt>
<rscale>  2 0.45060943E+03</rscale>
<asrwt>0</asrwt>
<pdfrwt beam="1">  1       21 0.10382993E+00 0.45060943E+03</pdfrwt>
<pdfrwt beam="2">  1       21 0.10573047E-01 0.45060943E+03</pdfrwt>
<totfact> 0.50570810E+04</totfact>
</mgrwt>
</event>
<event>
 7    0  0.4779893E-002  0.4553407E+03  0.7546771E-02  0.1026141E+00
         21   -1    0    0  502  501  0.00000000000E+00  0.00000000000E+00  0.54499264796E+02  0.54499264796E+02  0.00000000000E+00 0.  1.
         21   -1    0    0  501  502 -0.00000000000E+00 -0.00000000000E+00 -0.95109139928E+03  0.95109139928E+03  0.00000000000E+00 0.  1.
      99926    2    1    2    0    0  0.00000000000E+00  0.00000000000E+00 -0.89659213449E+03  0.10055906641E+04  0.45534067253E+03 0.  0.
      99925    2    3    3    0    0  0.10215931383E+03 -0.44948115835E+02 -0.51784759665E+03  0.59140255275E+03  0.26293342794E+03 0.  0.
         25    1    4    4    0    0  0.87145925017E+02 -0.12801423567E+02 -0.31943378569E+03  0.35418037810E+03  0.12509000000E+03 0.  0.
         25    1    4    4    0    0  0.15013388816E+02 -0.32146692268E+02 -0.19841381096E+03  0.23722217465E+03  0.12509000000E+03 0.  0.
         25    1    3    3    0    0 -0.10215931383E+03  0.44948115835E+02 -0.37874453784E+03  0.41418811132E+03  0.12509000000E+03 0.  0.
<mgrwt>
<rscale>  2 0.45534067E+03</rscale>
<asrwt>0</asrwt>
<pdfrwt beam="1">  1       21 0.80145978E-02 0.45534067E+03</pdfrwt>
<pdfrwt beam="2">  1       21 0.13986638E+00 0.45534067E+03</pdfrwt>
<totfact> 0.38846592E+04</totfact>
</mgrwt>
</event>
<event>
 7    0  0.4779893E-002  0.4529130E+03  0.7546771E-02  0.1026857E+00
         21   -1    0    0  502  501  0.00000000000E+00  0.00000000000E+00  0.20554192153E+03  0.20554192153E+03  0.00000000000E+00 0. -1.
         21   -1    0    0  501  502 -0.00000000000E+00 -0.00000000000E+00 -0.24949925321E+03  0.24949925321E+03  0.00000000000E+00 0. -1.
      99926    2    1    2    0    0  0.00000000000E+00 -0.14210854715E-13 -0.43957331681E+02  0.45504117473E+03  0.45291304209E+03 0.  0.
      99925    2    3    3    0    0  0.84287571363E+02  0.70698762850E+02 -0.44240432749E+02  0.28845696780E+03  0.26295911588E+03 0.  0.
         25    1    4    4    0    0  0.37975616725E+02  0.67675878648E+02  0.20860914387E+01  0.14722103075E+03  0.12509000000E+03 0.  0.
         25    1    4    4    0    0  0.46311954638E+02  0.30228842027E+01 -0.46326524187E+02  0.14123593705E+03  0.12509000000E+03 0.  0.
         25    1    3    3    0    0 -0.84287571363E+02 -0.70698762850E+02  0.28310106794E+00  0.16658420694E+03  0.12509000000E+03 0.  0.
<mgrwt>
<rscale>  2 0.45291304E+03</rscale>
<asrwt>0</asrwt>
<pdfrwt beam="1">  1       21 0.30226753E-01 0.45291304E+03</pdfrwt>
<pdfrwt beam="2">  1       21 0.36691067E-01 0.45291304E+03</pdfrwt>
<totfact> 0.69696074E+04</totfact>
</mgrwt>
</event>
<event>
 7    0  0.4779893E-002  0.4536589E+03  0.7546771E-02  0.1026637E+00
         21   -1    0    0  502  501  0.00000000000E+00  0.00000000000E+00  0.46150879336E+03  0.46150879336E+03  0.00000000000E+00 0.  1.
         21   -1    0    0  501  502 -0.00000000000E+00 -0.00000000000E+00 -0.11148564492E+03  0.11148564492E+03  0.00000000000E+00 0.  1.
      99926    2    1    2    0    0  0.00000000000E+00  0.14210854715E-13  0.35002314843E+03  0.57299443828E+03  0.45365892679E+03 0.  0.
      99925    2    3    3    0    0 -0.66867654595E+02  0.78389380861E+02  0.16540466734E+03  0.32733681083E+03  0.26301046649E+03 0.  0.
         25    1    4    4    0    0 -0.15944095067E+02  0.68480383123E+02  0.59164383801E+02  0.15521504260E+03  0.12509000000E+03 0.  0.
         25    1    3    3    0    0  0.66867654595E+02 -0.78389380861E+02  0.18461848109E+03  0.24565762745E+03  0.12509000000E+03 0.  0.
         25    1    4    4    0    0 -0.50923559528E+02  0.99089977383E+01  0.10624028354E+03  0.17212176823E+03  0.12509000000E+03 0.  0.
<mgrwt>
<rscale>  2 0.45365893E+03</rscale>
<asrwt>0</asrwt>
<pdfrwt beam="1">  1       21 0.67868940E-01 0.45365893E+03</pdfrwt>
<pdfrwt beam="2">  1       21 0.16394948E-01 0.45365893E+03</pdfrwt>
<totfact> 0.61016560E+04</totfact>
</mgrwt>
</event>
<event>
 7    0  0.4779893E-002  0.4463199E+03  0.7546771E-02  0.1028825E+00
         21   -1    0    0  502  501  0.00000000000E+00  0.00000000000E+00  0.40341499355E+02  0.40341499355E+02  0.00000000000E+00 0. -1.
         21   -1    0    0  501  502 -0.00000000000E+00 -0.00000000000E+00 -0.12344697240E+04  0.12344697240E+04  0.00000000000E+00 0. -1.
      99926    2    1    2    0    0  0.71054273576E-14  0.14210854715E-13 -0.11941282246E+04  0.12748112233E+04  0.44631988337E+03 0.  0.
      99925    2    3    3    0    0  0.47461144996E+02  0.85306450703E+02 -0.86661822797E+03  0.91088807647E+03  0.26298323898E+03 0.  0.
         25    1    4    4    0    0  0.23008969233E+02  0.67883400266E+02 -0.56247852304E+03  0.58066097310E+03  0.12509000000E+03 0.  0.
         25    1    4    4    0    0  0.24452175763E+02  0.17423050437E+02 -0.30413970493E+03  0.33022710337E+03  0.12509000000E+03 0.  0.
         25    1    3    3    0    0 -0.47461144996E+02 -0.85306450703E+02 -0.32750999665E+03  0.36392314686E+03  0.12509000000E+03 0.  0.
<mgrwt>
<rscale>  2 0.44631988E+03</rscale>
<asrwt>0</asrwt>
<pdfrwt beam="1">  1       21 0.59325738E-02 0.44631988E+03</pdfrwt>
<pdfrwt beam="2">  1       21 0.18153965E+00 0.44631988E+03</pdfrwt>
<totfact> 0.31959274E+04</totfact>
</mgrwt>
</event>
<event>
 7    0  0.4779893E-002  0.4439157E+03  0.7546771E-02  0.1029552E+00
         21   -1    0    0  502  501  0.00000000000E+00  0.00000000000E+00  0.39192251752E+02  0.39192251752E+02  0.00000000000E+00 0.  1.
         21   -1    0    0  501  502 -0.00000000000E+00 -0.00000000000E+00 -0.12570157979E+04  0.12570157979E+04  0.00000000000E+00 0.  1.
      99926    2    1    2    0    0  0.00000000000E+00 -0.71054273576E-14 -0.12178235461E+04  0.12962080496E+04  0.44391566590E+03 0.  0.
      99925    2    3    3    0    0 -0.57802925615E+02  0.58993902899E+02 -0.95101958814E+03  0.99017975211E+03  0.26305175473E+03 0.  0.
         25    1    4    4    0    0 -0.40302787475E+02 -0.70165773824E+01 -0.40381413230E+03  0.42471980008E+03  0.12509000000E+03 0.  0.
         25    1    4    4    0    0 -0.17500138141E+02  0.66010480281E+02 -0.54720545584E+03  0.56545995203E+03  0.12509000000E+03 0.  0.
         25    1    3    3    0    0  0.57802925615E+02 -0.58993902899E+02 -0.26680395799E+03  0.30602829753E+03  0.12509000000E+03 0.  0.
<mgrwt>
<rscale>  2 0.44391567E+03</rscale>
<asrwt>0</asrwt>
<pdfrwt beam="1">  1       21 0.57635665E-02 0.44391567E+03</pdfrwt>
<pdfrwt beam="2">  1       21 0.18485526E+00 0.44391567E+03</pdfrwt>
<totfact> 0.31886501E+04</totfact>
</mgrwt>
</event>
<event>
 7    0  0.4779893E-002  0.4571491E+03  0.7546771E-02  0.1025611E+00
         21   -1    0    0  502  501  0.00000000000E+00  0.00000000000E+00  0.18743734983E+04  0.18743734983E+04  0.00000000000E+00 0.  1.
         21   -1    0    0  501  502 -0.00000000000E+00 -0.00000000000E+00 -0.27874019863E+02  0.27874019863E+02  0.00000000000E+00 0.  1.
      99926    2    1    2    0    0  0.14210854715E-13  0.00000000000E+00  0.18464994784E+04  0.19022475182E+04  0.45714909657E+03 0.  0.
      99925    2    3    3    0    0  0.64543018327E+02  0.69542207498E+02  0.88811366811E+03  0.93108698078E+03  0.26301170782E+03 0.  0.
         25    1    3    3    0    0 -0.64543018327E+02 -0.69542207498E+02  0.95838581032E+03  0.97116053737E+03  0.12509000000E+03 0.  0.
         25    1    4    4    0    0  0.36952548682E+02  0.63151877199E+02  0.37083656393E+03  0.39814685192E+03  0.12509000000E+03 0.  0.
         25    1    4    4    0    0  0.27590469645E+02  0.63903302995E+01  0.51727710419E+03  0.53294012886E+03  0.12509000000E+03 0.  0.
<mgrwt>
<rscale>  2 0.45714910E+03</rscale>
<asrwt>0</asrwt>
<pdfrwt beam="1">  1       21 0.27564308E+00 0.45714910E+03</pdfrwt>
<pdfrwt beam="2">  1       21 0.40991218E-02 0.45714910E+03</pdfrwt>
<totfact> 0.15118345E+04</totfact>
</mgrwt>
</event>
<event>
 7    0  0.4779893E-002  0.4301088E+03  0.7546771E-02  0.1033826E+00
         21   -1    0    0  502  501  0.00000000000E+00  0.00000000000E+00  0.70300445937E+02  0.70300445937E+02  0.00000000000E+00 0. -1.
         21   -1    0    0  501  502 -0.00000000000E+00 -0.00000000000E+00 -0.65786770864E+03  0.65786770864E+03  0.00000000000E+00 0. -1.
      99926    2    1    2    0    0  0.71054273576E-14  0.00000000000E+00 -0.58756726270E+03  0.72816815458E+03  0.43010879222E+03 0.  0.
      99925    2    3    3    0    0 -0.60956447871E+02 -0.40797482616E+02 -0.29665997616E+03  0.40312249534E+03  0.26290774365E+03 0.  0.
         25    1    4    4    0    0 -0.12875575547E+02 -0.23126057098E+02 -0.90684216882E+02  0.15675372485E+03  0.12509000000E+03 0.  0.
         25    1    3    3    0    0  0.60956447871E+02  0.40797482616E+02 -0.29090728655E+03  0.32504565924E+03  0.12509000000E+03 0.  0.
         25    1    4    4    0    0 -0.48080872324E+02 -0.17671425517E+02 -0.20597575927E+03  0.24636877049E+03  0.12509000000E+03 0.  0.
<mgrwt>
<rscale>  2 0.43010879E+03</rscale>
<asrwt>0</asrwt>
<pdfrwt beam="1">  1       21 0.10338301E-01 0.43010879E+03</pdfrwt>
<pdfrwt beam="2">  1       21 0.96745254E-01 0.43010879E+03</pdfrwt>
<totfact> 0.62823466E+04</totfact>
</mgrwt>
</event>
<event>
 7    0  0.4779893E-002  0.4545174E+03  0.7546771E-02  0.1026383E+00
         21   -1    0    0  502  501  0.00000000000E+00  0.00000000000E+00  0.25856200017E+03  0.25856200017E+03  0.00000000000E+00 0.  1.
         21   -1    0    0  501  502 -0.00000000000E+00 -0.00000000000E+00 -0.19974521247E+03  0.19974521247E+03  0.00000000000E+00 0.  1.
      99926    2    1    2    0    0  0.35527136788E-14  0.00000000000E+00  0.58816787700E+02  0.45830721265E+03  0.45451742172E+03 0.  0.
      99925    2    3    3    0    0 -0.27374782625E+02 -0.10719309475E+03  0.57318694205E+02  0.29130574359E+03  0.26331324550E+03 0.  0.
         25    1    4    4    0    0  0.20663398348E+02 -0.76719696512E+02  0.30308388359E+02  0.15125803902E+03  0.12509000000E+03 0.  0.
         25    1    3    3    0    0  0.27374782625E+02  0.10719309475E+03  0.14980934953E+01  0.16700146906E+03  0.12509000000E+03 0.  0.
         25    1    4    4    0    0 -0.48038180973E+02 -0.30473398235E+02  0.27010305846E+02  0.14004770456E+03  0.12509000000E+03 0.  0.
<mgrwt>
<rscale>  2 0.45451742E+03</rscale>
<asrwt>0</asrwt>
<pdfrwt beam="1">  1       21 0.38023824E-01 0.45451742E+03</pdfrwt>
<pdfrwt beam="2">  1       21 0.29374296E-01 0.45451742E+03</pdfrwt>
<totfact> 0.68567597E+04</totfact>
</mgrwt>
</event>
<event>
 7    0  0.4779893E-002  0.4111999E+03  0.7546771E-02  0.1039969E+00
         21   -1    0    0  502  501  0.00000000000E+00  0.00000000000E+00  0.37529596007E+03  0.37529596007E+03  0.00000000000E+00 0. -1.
         21   -1    0    0  501  502 -0.00000000000E+00 -0.00000000000E+00 -0.11263468657E+03  0.11263468657E+03  0.00000000000E+00 0. -1.
      99926    2    1    2    0    0  0.00000000000E+00  0.00000000000E+00  0.26266127350E+03  0.48793064665E+03  0.41119991652E+03 0.  0.
      99925    2    3    3    0    0 -0.47451631972E+02  0.24516850884E+02  0.21489438484E+03  0.34377130042E+03  0.26295698697E+03 0.  0.
         25    1    4    4    0    0 -0.28486854699E+02 -0.69222569108E+01  0.15200227599E+03  0.19902667795E+03  0.12509000000E+03 0.  0.
         25    1    4    4    0    0 -0.18964777273E+02  0.31439107794E+02  0.62892108854E+02  0.14474462246E+03  0.12509000000E+03 0.  0.
         25    1    3    3    0    0  0.47451631972E+02 -0.24516850884E+02  0.47766888656E+02  0.14415934623E+03  0.12509000000E+03 0.  0.
<mgrwt>
<rscale>  2 0.41119992E+03</rscale>
<asrwt>0</asrwt>
<pdfrwt beam="1">  1       21 0.55190582E-01 0.41119992E+03</pdfrwt>
<pdfrwt beam="2">  1       21 0.16563925E-01 0.41119992E+03</pdfrwt>
<totfact> 0.95121222E+04</totfact>
</mgrwt>
</event>
<event>
 7    0  0.4779893E-002  0.4581179E+03  0.7546771E-02  0.1025329E+00
         21   -1    0    0  502  501  0.00000000000E+00  0.00000000000E+00  0.72976318108E+03  0.72976318108E+03  0.00000000000E+00 0.  1.
         21   -1    0    0  501  502 -0.00000000000E+00 -0.00000000000E+00 -0.71897290788E+02  0.71897290788E+02  0.00000000000E+00 0.  1.
      99926    2    1    2    0    0  0.00000000000E+00  0.00000000000E+00  0.65786589029E+03  0.80166047186E+03  0.45811786971E+03 0.  0.
      99925    2    3    3    0    0 -0.11280932128E+03 -0.23146926560E+02  0.43834391488E+03  0.52399317281E+03  0.26298618646E+03 0.  0.
         25    1    4    4    0    0 -0.15732732688E+02  0.18071472990E+01  0.21144199675E+03  0.24618288070E+03  0.12509000000E+03 0.  0.
         25    1    4    4    0    0 -0.97076588587E+02 -0.24954073859E+02  0.22690191813E+03  0.27781029211E+03  0.12509000000E+03 0.  0.
         25    1    3    3    0    0  0.11280932128E+03  0.23146926560E+02  0.21952197541E+03  0.27766729905E+03  0.12509000000E+03 0.  0.
<mgrwt>
<rscale>  2 0.45811787E+03</rscale>
<asrwt>0</asrwt>
<pdfrwt beam="1">  1       21 0.10731811E+00 0.45811787E+03</pdfrwt>
<pdfrwt beam="2">  1       21 0.10573131E-01 0.45811787E+03</pdfrwt>
<totfact> 0.46535474E+04</totfact>
</mgrwt>
</event>
<event>
 7    0  0.4779893E-002  0.4549946E+03  0.7546771E-02  0.1026243E+00
         21   -1    0    0  502  501  0.00000000000E+00  0.00000000000E+00  0.80924699272E+02  0.80924699272E+02  0.00000000000E+00 0.  1.
         21   -1    0    0  501  502 -0.00000000000E+00 -0.00000000000E+00 -0.63954550755E+03  0.63954550755E+03  0.00000000000E+00 0.  1.
      99926    2    1    2    0    0  0.00000000000E+00  0.00000000000E+00 -0.55862080828E+03  0.72047020683E+03  0.45499462797E+03 0.  0.
      99925    2    3    3    0    0  0.10689375337E+03 -0.28685373920E+02 -0.38901979054E+03  0.48243420429E+03  0.26297763944E+03 0.  0.
         25    1    4    4    0    0  0.80898237423E+02 -0.47030831754E+02 -0.20968209638E+03  0.26147755849E+03  0.12509000000E+03 0.  0.
         25    1    3    3    0    0 -0.10689375337E+03  0.28685373920E+02 -0.16960101774E+03  0.23803600254E+03  0.12509000000E+03 0.  0.
         25    1    4    4    0    0  0.25995515949E+02  0.18345457834E+02 -0.17933769416E+03  0.22095664579E+03  0.12509000000E+03 0.  0.
<mgrwt>
<rscale>  2 0.45499463E+03</rscale>
<asrwt>0</asrwt>
<pdfrwt beam="1">  1       21 0.11900691E-01 0.45499463E+03</pdfrwt>
<pdfrwt beam="2">  1       21 0.94050810E-01 0.45499463E+03</pdfrwt>
<totfact> 0.51807840E+04</totfact>
</mgrwt>
</event>
<event>
 7    0  0.4779893E-002  0.4399274E+03  0.7546771E-02  0.1030769E+00
         21   -1    0    0  502  501  0.00000000000E+00  0.00000000000E+00  0.46000601891E+02  0.46000601891E+02  0.00000000000E+00 0.  1.
         21   -1    0    0  501  502 -0.00000000000E+00 -0.00000000000E+00 -0.10518131553E+04  0.10518131553E+04  0.00000000000E+00 0.  1.
      99926    2    1    2    0    0  0.00000000000E+00 -0.35527136788E-14 -0.10058125534E+04  0.10978137572E+04  0.43992744048E+03 0.  0.
      99925    2    3    3    0    0  0.73406713709E+02  0.30226380524E+02 -0.78687218598E+03  0.83345685396E+03  0.26302150225E+03 0.  0.
         25    1    3    3    0    0 -0.73406713709E+02 -0.30226380524E+02 -0.21894036744E+03  0.26435690324E+03  0.12509000000E+03 0.  0.
         25    1    4    4    0    0  0.78089986314E+02  0.23696206008E+02 -0.42095960597E+03  0.44666996105E+03  0.12509000000E+03 0.  0.
         25    1    4    4    0    0 -0.46832726050E+01  0.65301745155E+01 -0.36591258001E+03  0.38678689291E+03  0.12509000000E+03 0.  0.
<mgrwt>
<rscale>  2 0.43992744E+03</rscale>
<asrwt>0</asrwt>
<pdfrwt beam="1">  1       21 0.67647944E-02 0.43992744E+03</pdfrwt>
<pdfrwt beam="2">  1       21 0.15467841E+00 0.43992744E+03</pdfrwt>
<totfact> 0.40079424E+04</totfact>
</mgrwt>
</event>
<event>
 7    0  0.4779893E-002  0.4576453E+03  0.7546771E-02  0.1025466E+00
         21   -1    0    0  502  501  0.00000000000E+00  0.00000000000E+00  0.27983400522E+02  0.27983400522E+02  0.00000000000E+00 0.  1.
         21   -1    0    0  501  502 -0.00000000000E+00 -0.00000000000E+00 -0.18711024659E+04  0.18711024659E+04  0.00000000000E+00 0.  1.
      99926    2    1    2    0    0  0.00000000000E+00  0.00000000000E+00 -0.18431190654E+04  0.18990858664E+04  0.45764531997E+03 0.  0.
      99925    2    3    3    0    0 -0.10144325403E+03  0.38647402457E+02 -0.13221573815E+04  0.13524297225E+04  0.26302406235E+03 0.  0.
         25    1    4    4    0    0 -0.55439782952E+02  0.54541186245E+02 -0.78935541271E+03  0.80298056403E+03  0.12509000000E+03 0.  0.
         25    1    3    3    0    0  0.10144325403E+03 -0.38647402457E+02 -0.52096168389E+03  0.54665614392E+03  0.12509000000E+03 0.  0.
         25    1    4    4    0    0 -0.46003471082E+02 -0.15893783788E+02 -0.53280196881E+03  0.54944915850E+03  0.12509000000E+03 0.  0.
<mgrwt>
<rscale>  2 0.45764532E+03</rscale>
<asrwt>0</asrwt>
<pdfrwt beam="1">  1       21 0.41152039E-02 0.45764532E+03</pdfrwt>
<pdfrwt beam="2">  1       21 0.27516226E+00 0.45764532E+03</pdfrwt>
<totfact> 0.15115387E+04</totfact>
</mgrwt>
</event>
<event>
 7    0  0.4779893E-002  0.4540760E+03  0.7546771E-02  0.1026513E+00
         21   -1    0    0  502  501  0.00000000000E+00  0.00000000000E+00  0.72041099125E+02  0.72041099125E+02  0.00000000000E+00 0.  1.
         21   -1    0    0  501  502 -0.00000000000E+00 -0.00000000000E+00 -0.71551188062E+03  0.71551188062E+03  0.00000000000E+00 0.  1.
      99926    2    1    2    0    0  0.00000000000E+00  0.00000000000E+00 -0.64347078150E+03  0.78755297975E+03  0.45407603908E+03 0.  0.
      99925    2    3    3    0    0 -0.48895516416E+02 -0.45942223404E+02 -0.56140883582E+03  0.62359222089E+03  0.26303216077E+03 0.  0.
         25    1    4    4    0    0 -0.49541101214E+02 -0.52830874373E+02 -0.33452640255E+03  0.36441850131E+03  0.12509000000E+03 0.  0.
         25    1    4    4    0    0  0.64558479802E+00  0.68886509690E+01 -0.22688243327E+03  0.25917371957E+03  0.12509000000E+03 0.  0.
         25    1    3    3    0    0  0.48895516416E+02  0.45942223404E+02 -0.82061945677E+02  0.16396075886E+03  0.12509000000E+03 0.  0.
<mgrwt>
<rscale>  2 0.45407604E+03</rscale>
<asrwt>0</asrwt>
<pdfrwt beam="1">  1       21 0.10594280E-01 0.45407604E+03</pdfrwt>
<pdfrwt beam="2">  1       21 0.10522233E+00 0.45407604E+03</pdfrwt>
<totfact> 0.48725165E+04</totfact>
</mgrwt>
</event>
<event>
 6    0  0.4779893E-002  0.4642431E+03  0.7546771E-02  0.1023558E+00
         21   -1    0    0  502  501  0.00000000000E+00  0.00000000000E+00  0.12340763495E+03  0.12340763495E+03  0.00000000000E+00 0.  1.
         21   -1    0    0  501  502 -0.00000000000E+00 -0.00000000000E+00 -0.43660515902E+03  0.43660515902E+03  0.00000000000E+00 0.  1.
      99926    2    1    2    0    0  0.14210854715E-13  0.00000000000E+00 -0.31319752407E+03  0.56001279397E+03  0.46424308323E+03 0.  0.
         25    1    3    3    0    0 -0.78569704485E+02 -0.48372587990E+02 -0.10890654838E+03  0.18979265031E+03  0.12509000000E+03 0.  0.
         25    1    3    3    0    0  0.10840414947E+03  0.28933180670E+02 -0.66427357049E+02  0.18068948622E+03  0.12509000000E+03 0.  0.
         25    1    3    3    0    0 -0.29834444988E+02  0.19439407320E+02 -0.13786361864E+03  0.18953065744E+03  0.12509000000E+03 0.  0.
<mgrwt>
<rscale>  2 0.46424308E+03</rscale>
<asrwt>0</asrwt>
<pdfrwt beam="1">  1       21 0.18148182E-01 0.46424308E+03</pdfrwt>
<pdfrwt beam="2">  1       21 0.64206639E-01 0.46424308E+03</pdfrwt>
<totfact> 0.56931609E+04</totfact>
</mgrwt>
</event>
<event>
 7    0  0.4779893E-002  0.4573234E+03  0.7546771E-02  0.1025560E+00
         21   -1    0    0  502  501  0.00000000000E+00  0.00000000000E+00  0.12798363832E+03  0.12798363832E+03  0.00000000000E+00 0. -1.
         21   -1    0    0  501  502 -0.00000000000E+00 -0.00000000000E+00 -0.40853796077E+03  0.40853796077E+03  0.00000000000E+00 0. -1.
      99926    2    1    2    0    0 -0.35527136788E-14  0.00000000000E+00 -0.28055432246E+03  0.53652159909E+03  0.45732340683E+03 0.  0.
      99925    2    3    3    0    0  0.29820156187E+02  0.93583316000E+02 -0.10569337137E+03  0.30015125605E+03  0.26319690160E+03 0.  0.
         25    1    3    3    0    0 -0.29820156187E+02 -0.93583316000E+02 -0.17486095109E+03  0.23637034303E+03  0.12509000000E+03 0.  0.
         25    1    4    4    0    0  0.53622235823E+02  0.33687172654E+02 -0.53383376272E+02  0.15002487373E+03  0.12509000000E+03 0.  0.
         25    1    4    4    0    0 -0.23802079636E+02  0.59896143346E+02 -0.52309995093E+02  0.15012638232E+03  0.12509000000E+03 0.  0.
<mgrwt>
<rscale>  2 0.45732341E+03</rscale>
<asrwt>0</asrwt>
<pdfrwt beam="1">  1       21 0.18821123E-01 0.45732341E+03</pdfrwt>
<pdfrwt beam="2">  1       21 0.60079112E-01 0.45732341E+03</pdfrwt>
<totfact> 0.61624582E+04</totfact>
</mgrwt>
</event>
<event>
 7    0  0.4779893E-002  0.4551966E+03  0.7546771E-02  0.1026184E+00
         21   -1    0    0  502  501  0.00000000000E+00  0.00000000000E+00  0.23941984126E+03  0.23941984126E+03  0.00000000000E+00 0. -1.
         21   -1    0    0  501  502 -0.00000000000E+00 -0.00000000000E+00 -0.21636047124E+03  0.21636047124E+03  0.00000000000E+00 0. -1.
      99926    2    1    2    0    0  0.00000000000E+00  0.00000000000E+00  0.23059370019E+02  0.45578031250E+03  0.45519661545E+03 0.  0.
      99925    2    3    3    0    0 -0.98508275938E+02 -0.55254888647E+02  0.45965322545E+01  0.28623572360E+03  0.26296915828E+03 0.  0.
         25    1    3    3    0    0  0.98508275938E+02  0.55254888647E+02  0.18462837765E+02  0.16954458890E+03  0.12509000000E+03 0.  0.
         25    1    4    4    0    0 -0.34168308488E+02 -0.26183996919E+02 -0.35754401152E+02  0.13703634664E+03  0.12509000000E+03 0.  0.
         25    1    4    4    0    0 -0.64339967450E+02 -0.29070891728E+02  0.40350933406E+02  0.14919937696E+03  0.12509000000E+03 0.  0.
<mgrwt>
<rscale>  2 0.45519662E+03</rscale>
<asrwt>0</asrwt>
<pdfrwt beam="1">  1       21 0.35208800E-01 0.45519662E+03</pdfrwt>
<pdfrwt beam="2">  1       21 0.31817716E-01 0.45519662E+03</pdfrwt>
<totfact> 0.68381356E+04</totfact>
</mgrwt>
</event>
<event>
 7    0  0.4779893E-002  0.4841686E+03  0.7546771E-02  0.1017996E+00
         21   -1    0    0  502  501  0.00000000000E+00  0.00000000000E+00  0.36657491783E+03  0.36657491783E+03  0.00000000000E+00 0.  1.
         21   -1    0    0  501  502 -0.00000000000E+00 -0.00000000000E+00 -0.15987129008E+03  0.15987129008E+03  0.00000000000E+00 0.  1.
      99926    2    1    2    0    0  0.00000000000E+00  0.00000000000E+00  0.20670362774E+03  0.52644620791E+03  0.48416858645E+03 0.  0.
      99925    2    3    3    0    0 -0.65436823556E+01 -0.13039551942E+03  0.17780331451E+03  0.34333818660E+03  0.26309937374E+03 0.  0.
         25    1    4    4    0    0 -0.25652437163E+02 -0.57727914276E+02  0.12612531183E+03  0.18853557225E+03  0.12509000000E+03 0.  0.
         25    1    4    4    0    0  0.19108754808E+02 -0.72667605149E+02  0.51678002681E+02  0.15480261435E+03  0.12509000000E+03 0.  0.
         25    1    3    3    0    0  0.65436823556E+01  0.13039551942E+03  0.28900313236E+02  0.18310802131E+03  0.12509000000E+03 0.  0.
<mgrwt>
<rscale>  2 0.48416859E+03</rscale>
<asrwt>0</asrwt>
<pdfrwt beam="1">  1       21 0.53908076E-01 0.48416859E+03</pdfrwt>
<pdfrwt beam="2">  1       21 0.23510484E-01 0.48416859E+03</pdfrwt>
<totfact> 0.50666022E+04</totfact>
</mgrwt>
</event>
<event>
 7    0  0.4779893E-002  0.4393313E+03  0.7546771E-02  0.1030952E+00
         21   -1    0    0  502  501  0.00000000000E+00  0.00000000000E+00  0.21104487798E+02  0.21104487798E+02  0.00000000000E+00 0. -1.
         21   -1    0    0  501  502 -0.00000000000E+00 -0.00000000000E+00 -0.22863851374E+04  0.22863851374E+04  0.00000000000E+00 0. -1.
      99926    2    1    2    0    0  0.00000000000E+00  0.17763568394E-14 -0.22652806496E+04  0.23074896252E+04  0.43933125195E+03 0.  0.
      99925    2    3    3    0    0 -0.91043454690E+02  0.10715168039E+02 -0.16240509305E+04  0.16477724235E+04  0.26307567219E+03 0.  0.
         25    1    4    4    0    0 -0.77047770845E+02 -0.95344322983E+01 -0.73210555035E+03  0.74676188263E+03  0.12509000000E+03 0.  0.
         25    1    4    4    0    0 -0.13995683845E+02  0.20249600337E+02 -0.89194538010E+03  0.90101054082E+03  0.12509000000E+03 0.  0.
         25    1    3    3    0    0  0.91043454690E+02 -0.10715168039E+02 -0.64122971914E+03  0.65971720174E+03  0.12509000000E+03 0.  0.
<mgrwt>
<rscale>  2 0.43933125E+03</rscale>
<asrwt>0</asrwt>
<pdfrwt beam="1">  1       21 0.31036026E-02 0.43933125E+03</pdfrwt>
<pdfrwt beam="2">  1       21 0.33623295E+00 0.43933125E+03</pdfrwt>
<totfact> 0.10532970E+04</totfact>
</mgrwt>
</event>
<event>
 7    0  0.4779893E-002  0.4550154E+03  0.7546771E-02  0.1026237E+00
         21   -1    0    0  502  501  0.00000000000E+00  0.00000000000E+00  0.37748684888E+03  0.37748684888E+03  0.00000000000E+00 0.  1.
         21   -1    0    0  501  502 -0.00000000000E+00 -0.00000000000E+00 -0.13711669030E+03  0.13711669030E+03  0.00000000000E+00 0.  1.
      99926    2    1    2    0    0  0.00000000000E+00  0.14210854715E-13  0.24037015858E+03  0.51460353918E+03  0.45501537271E+03 0.  0.
      99925    2    3    3    0    0 -0.89189319912E+02 -0.67511907873E+02  0.13754080559E+03  0.31779404646E+03  0.26374796733E+03 0.  0.
         25    1    4    4    0    0 -0.23333945773E+02  0.38086310345E+01  0.49217835607E+02  0.13648766295E+03  0.12509000000E+03 0.  0.
         25    1    4    4    0    0 -0.65855374139E+02 -0.71320538908E+02  0.88322969987E+02  0.18130638351E+03  0.12509000000E+03 0.  0.
         25    1    3    3    0    0  0.89189319912E+02  0.67511907873E+02  0.10282935298E+03  0.19680949272E+03  0.12509000000E+03 0.  0.
<mgrwt>
<rscale>  2 0.45501537E+03</rscale>
<asrwt>0</asrwt>
<pdfrwt beam="1">  1       21 0.55512772E-01 0.45501537E+03</pdfrwt>
<pdfrwt beam="2">  1       21 0.20164219E-01 0.45501537E+03</pdfrwt>
<totfact> 0.64248586E+04</totfact>
</mgrwt>
</event>
<event>
 7    0  0.4779893E-002  0.4583515E+03  0.7546771E-02  0.1025260E+00
         21   -1    0    0  502  501  0.00000000000E+00  0.00000000000E+00  0.10116416477E+04  0.10116416477E+04  0.00000000000E+00 0.  1.
         21   -1    0    0  501  502 -0.00000000000E+00 -0.00000000000E+00 -0.51917132152E+02  0.51917132152E+02  0.00000000000E+00 0.  1.
      99926    2    1    2    0    0  0.00000000000E+00  0.00000000000E+00  0.95972451551E+03  0.10635587798E+04  0.45835153807E+03 0.  0.
      99925    2    3    3    0    0 -0.79454642433E+02  0.37300662229E+02  0.77878897036E+03  0.82672643573E+03  0.26317287013E+03 0.  0.
         25    1    3    3    0    0  0.79454642433E+02 -0.37300662229E+02  0.18093554516E+03  0.23683234409E+03  0.12509000000E+03 0.  0.
         25    1    4    4    0    0 -0.17122280666E+02  0.50955524372E+02  0.35112374378E+03  0.37659664032E+03  0.12509000000E+03 0.  0.
         25    1    4    4    0    0 -0.62332361767E+02 -0.13654862144E+02  0.42766522658E+03  0.45012979540E+03  0.12509000000E+03 0.  0.
<mgrwt>
<rscale>  2 0.45835154E+03</rscale>
<asrwt>0</asrwt>
<pdfrwt beam="1">  1       21 0.14877082E+00 0.45835154E+03</pdfrwt>
<pdfrwt beam="2">  1       21 0.76348730E-02 0.45835154E+03</pdfrwt>
<totfact> 0.35837210E+04</totfact>
</mgrwt>
</event>
<event>
 7    0  0.4779893E-002  0.4559311E+03  0.7546771E-02  0.1025968E+00
         21   -1    0    0  502  501  0.00000000000E+00  0.00000000000E+00  0.47475518512E+03  0.47475518512E+03  0.00000000000E+00 0.  1.
         21   -1    0    0  501  502 -0.00000000000E+00 -0.00000000000E+00 -0.10946336519E+03  0.10946336519E+03  0.00000000000E+00 0.  1.
      99926    2    1    2    0    0 -0.14210854715E-13  0.00000000000E+00  0.36529181993E+03  0.58421855031E+03  0.45593113605E+03 0.  0.
      99925    2    3    3    0    0  0.91024482668E+02 -0.68484706129E+02  0.21612343687E+03  0.35866517298E+03  0.26259427817E+03 0.  0.
         25    1    4    4    0    0  0.72789315572E+02 -0.57677708157E+02  0.90766406096E+02  0.18030821128E+03  0.12509000000E+03 0.  0.
         25    1    3    3    0    0 -0.91024482668E+02  0.68484706129E+02  0.14916838307E+03  0.22555337733E+03  0.12509000000E+03 0.  0.
         25    1    4    4    0    0  0.18235167096E+02 -0.10806997972E+02  0.12535703077E+03  0.17835696170E+03  0.12509000000E+03 0.  0.
<mgrwt>
<rscale>  2 0.45593114E+03</rscale>
<asrwt>0</asrwt>
<pdfrwt beam="1">  1       21 0.69816938E-01 0.45593114E+03</pdfrwt>
<pdfrwt beam="2">  1       21 0.16097554E-01 0.45593114E+03</pdfrwt>
<totfact> 0.59223209E+04</totfact>
</mgrwt>
</event>
<event>
 7    0  0.4779893E-002  0.4544809E+03  0.7546771E-02  0.1026394E+00
         21   -1    0    0  502  501  0.00000000000E+00  0.00000000000E+00  0.12700010986E+03  0.12700010986E+03  0.00000000000E+00 0. -1.
         21   -1    0    0  501  502 -0.00000000000E+00 -0.00000000000E+00 -0.40659987408E+03  0.40659987408E+03  0.00000000000E+00 0. -1.
      99926    2    1    2    0    0  0.00000000000E+00 -0.14210854715E-13 -0.27959976421E+03  0.53359998394E+03  0.45448092888E+03 0.  0.
      99925    2    3    3    0    0  0.34501604784E+02  0.77205276044E+02 -0.88888218638E+02  0.29035233833E+03  0.26315841156E+03 0.  0.
         25    1    4    4    0    0  0.16279258209E+02  0.73350214006E+02 -0.22911516241E+02  0.14770820498E+03  0.12509000000E+03 0.  0.
         25    1    3    3    0    0 -0.34501604784E+02 -0.77205276044E+02 -0.19071154557E+03  0.24324764561E+03  0.12509000000E+03 0.  0.
         25    1    4    4    0    0  0.18222346575E+02  0.38550620375E+01 -0.65976702398E+02  0.14264413334E+03  0.12509000000E+03 0.  0.
<mgrwt>
<rscale>  2 0.45448093E+03</rscale>
<asrwt>0</asrwt>
<pdfrwt beam="1">  1       21 0.18676487E-01 0.45448093E+03</pdfrwt>
<pdfrwt beam="2">  1       21 0.59794098E-01 0.45448093E+03</pdfrwt>
<totfact> 0.63222773E+04</totfact>
</mgrwt>
</event>
<event>
 7    0  0.4779893E-002  0.4557101E+03  0.7546771E-02  0.1026033E+00
         21   -1    0    0  502  501  0.00000000000E+00  0.00000000000E+00  0.32232776847E+03  0.32232776847E+03  0.00000000000E+00 0. -1.
         21   -1    0    0  501  502 -0.00000000000E+00 -0.00000000000E+00 -0.16107180693E+03  0.16107180693E+03  0.00000000000E+00 0. -1.
      99926    2    1    2    0    0  0.00000000000E+00  0.00000000000E+00  0.16125596154E+03  0.48339957541E+03  0.45571006613E+03 0.  0.
      99925    2    3    3    0    0  0.98661122250E+02 -0.32940540410E+02  0.15005760601E+03  0.32032901549E+03  0.26320010789E+03 0.  0.
         25    1    3    3    0    0 -0.98661122250E+02  0.32940540410E+02  0.11198355534E+02  0.16307055992E+03  0.12509000000E+03 0.  0.
         25    1    4    4    0    0  0.67168491174E+02  0.19430039324E+02  0.66762819467E+02  0.15809463874E+03  0.12509000000E+03 0.  0.
         25    1    4    4    0    0  0.31492631076E+02 -0.52370579734E+02  0.83294786541E+02  0.16223437675E+03  0.12509000000E+03 0.  0.
<mgrwt>
<rscale>  2 0.45571007E+03</rscale>
<asrwt>0</asrwt>
<pdfrwt beam="1">  1       21 0.47401142E-01 0.45571007E+03</pdfrwt>
<pdfrwt beam="2">  1       21 0.23687030E-01 0.45571007E+03</pdfrwt>
<totfact> 0.66080209E+04</totfact>
</mgrwt>
</event>
<event>
 7    0  0.4779893E-002  0.4699493E+03  0.7546771E-02  0.1021935E+00
         21   -1    0    0  502  501  0.00000000000E+00  0.00000000000E+00  0.19660582229E+03  0.19660582229E+03  0.00000000000E+00 0. -1.
         21   -1    0    0  501  502 -0.00000000000E+00 -0.00000000000E+00 -0.28083140502E+03  0.28083140502E+03  0.00000000000E+00 0. -1.
      99926    2    1    2    0    0  0.71054273576E-14  0.00000000000E+00 -0.84225582725E+02  0.47743722731E+03  0.46994931348E+03 0.  0.
      99925    2    3    3    0    0 -0.42577483817E+02  0.67783214158E+02  0.47326667171E+02  0.27904138864E+03  0.26309100497E+03 0.  0.
         25    1    4    4    0    0  0.17018887794E+02  0.21608682485E+02  0.33173141729E+02  0.13230473587E+03  0.12509000000E+03 0.  0.
         25    1    3    3    0    0  0.42577483817E+02 -0.67783214158E+02 -0.13155224990E+03  0.19839583867E+03  0.12509000000E+03 0.  0.
         25    1    4    4    0    0 -0.59596371611E+02  0.46174531673E+02  0.14153525442E+02  0.14673665277E+03  0.12509000000E+03 0.  0.
<mgrwt>
<rscale>  2 0.46994931E+03</rscale>
<asrwt>0</asrwt>
<pdfrwt beam="1">  1       21 0.28912621E-01 0.46994931E+03</pdfrwt>
<pdfrwt beam="2">  1       21 0.41298736E-01 0.46994931E+03</pdfrwt>
<totfact> 0.59504756E+04</totfact>
</mgrwt>
</event>
<event>
 7    0  0.4779893E-002  0.4641717E+03  0.7546771E-02  0.1023578E+00
         21   -1    0    0  502  501  0.00000000000E+00  0.00000000000E+00  0.11026438117E+03  0.11026438117E+03  0.00000000000E+00 0. -1.
         21   -1    0    0  501  502 -0.00000000000E+00 -0.00000000000E+00 -0.48849728029E+03  0.48849728029E+03  0.00000000000E+00 0. -1.
      99926    2    1    2    0    0  0.00000000000E+00  0.00000000000E+00 -0.37823289913E+03  0.59876166146E+03  0.46417173681E+03 0.  0.
      99925    2    3    3    0    0 -0.10280635497E+03 -0.38973269088E+02 -0.30326074364E+03  0.41612433087E+03  0.26287700124E+03 0.  0.
         25    1    4    4    0    0 -0.66907685007E+02 -0.21890562707E+02 -0.10295142811E+03  0.17664184017E+03  0.12509000000E+03 0.  0.
         25    1    4    4    0    0 -0.35898669968E+02 -0.17082706381E+02 -0.20030931554E+03  0.23948249070E+03  0.12509000000E+03 0.  0.
         25    1    3    3    0    0  0.10280635497E+03  0.38973269088E+02 -0.74972155487E+02  0.18263733059E+03  0.12509000000E+03 0.  0.
<mgrwt>
<rscale>  2 0.46417174E+03</rscale>
<asrwt>0</asrwt>
<pdfrwt beam="1">  1       21 0.16215350E-01 0.46417174E+03</pdfrwt>
<pdfrwt beam="2">  1       21 0.71837834E-01 0.46417174E+03</pdfrwt>
<totfact> 0.54682424E+04</totfact>
</mgrwt>
</event>
<event>
 7    0  0.4779893E-002  0.4482164E+03  0.7546771E-02  0.1028255E+00
         21   -1    0    0  502  501  0.00000000000E+00  0.00000000000E+00  0.58902461965E+03  0.58902461965E+03  0.00000000000E+00 0.  1.
         21   -1    0    0  501  502 -0.00000000000E+00 -0.00000000000E+00 -0.85267221342E+02  0.85267221342E+02  0.00000000000E+00 0.  1.
      99926    2    1    2    0    0  0.00000000000E+00  0.14210854715E-13  0.50375739831E+03  0.67429184099E+03  0.44821643263E+03 0.  0.
      99925    2    3    3    0    0  0.59632372575E+02 -0.87765609521E+02  0.30307214457E+03  0.41509905320E+03  0.26305071200E+03 0.  0.
         25    1    4    4    0    0  0.17707101457E+02 -0.45554583257E+02  0.20616281268E+03  0.24604750543E+03  0.12509000000E+03 0.  0.
         25    1    3    3    0    0 -0.59632372575E+02  0.87765609521E+02  0.20068525374E+03  0.25919278779E+03  0.12509000000E+03 0.  0.
         25    1    4    4    0    0  0.41925271118E+02 -0.42211026264E+02  0.96909331893E+02  0.16905154777E+03  0.12509000000E+03 0.  0.
<mgrwt>
<rscale>  2 0.44821643E+03</rscale>
<asrwt>0</asrwt>
<pdfrwt beam="1">  1       21 0.86621265E-01 0.44821643E+03</pdfrwt>
<pdfrwt beam="2">  1       21 0.12539298E-01 0.44821643E+03</pdfrwt>
<totfact> 0.57323352E+04</totfact>
</mgrwt>
</event>
<event>
 7    0  0.4779893E-002  0.3961699E+03  0.7546771E-02  0.1045114E+00
         21   -1    0    0  502  501  0.00000000000E+00  0.00000000000E+00  0.10862503807E+03  0.10862503807E+03  0.00000000000E+00 0.  1.
         21   -1    0    0  501  502 -0.00000000000E+00 -0.00000000000E+00 -0.36122104207E+03  0.36122104207E+03  0.00000000000E+00 0.  1.
      99926    2    1    2    0    0  0.00000000000E+00 -0.35527136788E-14 -0.25259600400E+03  0.46984608014E+03  0.39616991025E+03 0.  0.
      99925    2    3    3    0    0 -0.18997962864E+02  0.28584306746E+02 -0.18668158860E+03  0.32434624013E+03  0.26300662117E+03 0.  0.
         25    1    4    4    0    0 -0.13846818569E+01  0.44184810947E+02 -0.12739464985E+03  0.18393237826E+03  0.12509000000E+03 0.  0.
         25    1    3    3    0    0  0.18997962864E+02 -0.28584306746E+02 -0.65914415400E+02  0.14549984001E+03  0.12509000000E+03 0.  0.
         25    1    4    4    0    0 -0.17613281007E+02 -0.15600504201E+02 -0.59286938755E+02  0.14041386187E+03  0.12509000000E+03 0.  0.
<mgrwt>
<rscale>  2 0.39616991E+03</rscale>
<asrwt>0</asrwt>
<pdfrwt beam="1">  1       21 0.15974271E-01 0.39616991E+03</pdfrwt>
<pdfrwt beam="2">  1       21 0.53120740E-01 0.39616991E+03</pdfrwt>
<totfact> 0.11081952E+05</totfact>
</mgrwt>
</event>
<event>
 7    0  0.4779893E-002  0.4611524E+03  0.7546771E-02  0.1024448E+00
         21   -1    0    0  502  501  0.00000000000E+00  0.00000000000E+00  0.32016858340E+03  0.32016858340E+03  0.00000000000E+00 0.  1.
         21   -1    0    0  501  502 -0.00000000000E+00 -0.00000000000E+00 -0.16605434343E+03  0.16605434343E+03  0.00000000000E+00 0.  1.
      99926    2    1    2    0    0  0.00000000000E+00  0.44408920985E-15  0.15411423997E+03  0.48622292683E+03  0.46115239956E+03 0.  0.
      99925    2    3    3    0    0  0.74553744685E+02 -0.34990232845E+01  0.19395284819E+03  0.33520926250E+03  0.26301528156E+03 0.  0.
         25    1    3    3    0    0 -0.74553744685E+02  0.34990232845E+01 -0.39838608228E+02  0.15101366434E+03  0.12509000000E+03 0.  0.
         25    1    4    4    0    0  0.30626442824E+02 -0.36520767281E+02  0.12038435421E+03  0.18003234788E+03  0.12509000000E+03 0.  0.
         25    1    4    4    0    0  0.43927301861E+02  0.33021743996E+02  0.73568493981E+02  0.15517691462E+03  0.12509000000E+03 0.  0.
<mgrwt>
<rscale>  2 0.46115240E+03</rscale>
<asrwt>0</asrwt>
<pdfrwt beam="1">  1       21 0.47083615E-01 0.46115240E+03</pdfrwt>
<pdfrwt beam="2">  1       21 0.24419756E-01 0.46115240E+03</pdfrwt>
<totfact> 0.63110871E+04</totfact>
</mgrwt>
</event>
<event>
 7    0  0.4779893E-002  0.4809032E+03  0.7546771E-02  0.1018887E+00
         21   -1    0    0  502  501  0.00000000000E+00  0.00000000000E+00  0.44986351627E+03  0.44986351627E+03  0.00000000000E+00 0.  1.
         21   -1    0    0  501  502 -0.00000000000E+00 -0.00000000000E+00 -0.12852115871E+03  0.12852115871E+03  0.00000000000E+00 0.  1.
      99926    2    1    2    0    0  0.71054273576E-14  0.00000000000E+00  0.32134235757E+03  0.57838467498E+03  0.48090323505E+03 0.  0.
      99925    2    3    3    0    0  0.41605986694E+02  0.12897522574E+03  0.21188851050E+03  0.36392414313E+03  0.26301782086E+03 0.  0.
         25    1    4    4    0    0  0.47668632144E+02  0.45201780081E+02  0.73140359858E+02  0.15909908784E+03  0.12509000000E+03 0.  0.
         25    1    3    3    0    0 -0.41605986694E+02 -0.12897522574E+03  0.10945384707E+03  0.21446053185E+03  0.12509000000E+03 0.  0.
         25    1    4    4    0    0 -0.60626454501E+01  0.83773445655E+02  0.13874815064E+03  0.20482505529E+03  0.12509000000E+03 0.  0.
<mgrwt>
<rscale>  2 0.48090324E+03</rscale>
<asrwt>0</asrwt>
<pdfrwt beam="1">  1       21 0.66156399E-01 0.48090324E+03</pdfrwt>
<pdfrwt beam="2">  1       21 0.18900171E-01 0.48090324E+03</pdfrwt>
<totfact> 0.49158965E+04</totfact>
</mgrwt>
</event>
<event>
 7    0  0.4779893E-002  0.4588396E+03  0.7546771E-02  0.1025118E+00
         21   -1    0    0  502  501  0.00000000000E+00  0.00000000000E+00  0.88683198998E+03  0.88683198998E+03  0.00000000000E+00 0.  1.
         21   -1    0    0  501  502 -0.00000000000E+00 -0.00000000000E+00 -0.59349971486E+02  0.59349971486E+02  0.00000000000E+00 0.  1.
      99926    2    1    2    0    0  0.14210854715E-13 -0.71054273576E-14  0.82748201849E+03  0.94618196146E+03  0.45883963786E+03 0.  0.
      99925    2    3    3    0    0 -0.10677894266E+03  0.41344934467E+02  0.56550613231E+03  0.63410822139E+03  0.26303023505E+03 0.  0.
         25    1    4    4    0    0 -0.95423397485E+02  0.33373668965E+02  0.32846737265E+03  0.36572906579E+03  0.12509000000E+03 0.  0.
         25    1    3    3    0    0  0.10677894266E+03 -0.41344934467E+02  0.26197588618E+03  0.31207374007E+03  0.12509000000E+03 0.  0.
         25    1    4    4    0    0 -0.11355545179E+02  0.79712655022E+01  0.23703875966E+03  0.26837915560E+03  0.12509000000E+03 0.  0.
<mgrwt>
<rscale>  2 0.45883964E+03</rscale>
<asrwt>0</asrwt>
<pdfrwt beam="1">  1       21 0.13041646E+00 0.45883964E+03</pdfrwt>
<pdfrwt beam="2">  1       21 0.87279375E-02 0.45883964E+03</pdfrwt>
<totfact> 0.40078760E+04</totfact>
</mgrwt>
</event>
<event>
 7    0  0.4779893E-002  0.4571872E+03  0.7546771E-02  0.1025600E+00
         21   -1    0    0  502  501  0.00000000000E+00  0.00000000000E+00  0.17718181080E+03  0.17718181080E+03  0.00000000000E+00 0.  1.
         21   -1    0    0  501  502 -0.00000000000E+00 -0.00000000000E+00 -0.29492322453E+03  0.29492322453E+03  0.00000000000E+00 0.  1.
      99926    2    1    2    0    0  0.17763568394E-14  0.00000000000E+00 -0.11774141372E+03  0.47210503533E+03  0.45718718691E+03 0.  0.
      99925    2    3    3    0    0  0.11721841779E+02  0.78620433714E+02  0.12061664602E+02  0.27509000693E+03  0.26307879806E+03 0.  0.
         25    1    3    3    0    0 -0.11721841779E+02 -0.78620433714E+02 -0.12980307833E+03  0.19701502840E+03  0.12509000000E+03 0.  0.
         25    1    4    4    0    0 -0.22007124119E+02  0.54924156495E+02 -0.19255035195E+02  0.13971127714E+03  0.12509000000E+03 0.  0.
         25    1    4    4    0    0  0.33728965899E+02  0.23696277219E+02  0.31316699798E+02  0.13537872979E+03  0.12509000000E+03 0.  0.
<mgrwt>
<rscale>  2 0.45718719E+03</rscale>
<asrwt>0</asrwt>
<pdfrwt beam="1">  1       21 0.26056149E-01 0.45718719E+03</pdfrwt>
<pdfrwt beam="2">  1       21 0.43371062E-01 0.45718719E+03</pdfrwt>
<totfact> 0.66124650E+04</totfact>
</mgrwt>
</event>
<event>
 7    0  0.4814690E-002  0.4050730E+03  0.7546771E-02  0.1042037E+00
         21   -1    0    0  502  501  0.00000000000E+00  0.00000000000E+00  0.11217050190E+03  0.11217050190E+03  0.00000000000E+00 0. -1.
         21   -1    0    0  501  502 -0.00000000000E+00 -0.00000000000E+00 -0.36570248813E+03  0.36570248813E+03  0.00000000000E+00 0. -1.
      99926    2    1    2    0    0  0.00000000000E+00  0.00000000000E+00 -0.25353198623E+03  0.47787299003E+03  0.40507298917E+03 0.  0.
      99925    2    3    3    0    0 -0.40278453042E+02 -0.36340402496E+02 -0.16946586961E+03  0.31769309523E+03  0.26318670780E+03 0.  0.
         25    1    4    4    0    0 -0.53085045441E+02  0.29710440738E+01 -0.71993491799E+02  0.15380968797E+03  0.12509000000E+03 0.  0.
         25    1    4    4    0    0  0.12806592398E+02 -0.39311446570E+02 -0.97472377807E+02  0.16388340726E+03  0.12509000000E+03 0.  0.
         25    1    3    3    0    0  0.40278453042E+02  0.36340402496E+02 -0.84066116620E+02  0.16017989480E+03  0.12509000000E+03 0.  0.
<mgrwt>
<rscale>  2 0.40507299E+03</rscale>
<asrwt>0</asrwt>
<pdfrwt beam="1">  1       21 0.16495662E-01 0.40507299E+03</pdfrwt>
<pdfrwt beam="2">  1       21 0.53779777E-01 0.40507299E+03</pdfrwt>
<totfact> 0.10147526E+05</totfact>
</mgrwt>
</event>
<event>
 7    0  0.4779893E-002  0.4652039E+03  0.7546771E-02  0.1023283E+00
         21   -1    0    0  502  501  0.00000000000E+00  0.00000000000E+00  0.81581041539E+02  0.81581041539E+02  0.00000000000E+00 0.  1.
         21   -1    0    0  501  502 -0.00000000000E+00 -0.00000000000E+00 -0.66318920111E+03  0.66318920111E+03  0.00000000000E+00 0.  1.
      99926    2    1    2    0    0 -0.71054273576E-14  0.00000000000E+00 -0.58160815957E+03  0.74477024265E+03  0.46520389407E+03 0.  0.
      99925    2    3    3    0    0  0.63985107054E+02  0.10146463786E+03 -0.40237366873E+03  0.49544780589E+03  0.26301101197E+03 0.  0.
         25    1    3    3    0    0 -0.63985107054E+02 -0.10146463786E+03 -0.17923449084E+03  0.24932243675E+03  0.12509000000E+03 0.  0.
         25    1    4    4    0    0  0.72678593494E+02  0.63328766433E+02 -0.21382904277E+03  0.26582527766E+03  0.12509000000E+03 0.  0.
         25    1    4    4    0    0 -0.86934864404E+01  0.38135871429E+02 -0.18854462596E+03  0.22962252824E+03  0.12509000000E+03 0.  0.
<mgrwt>
<rscale>  2 0.46520389E+03</rscale>
<asrwt>0</asrwt>
<pdfrwt beam="1">  1       21 0.11997212E-01 0.46520389E+03</pdfrwt>
<pdfrwt beam="2">  1       21 0.97527821E-01 0.46520389E+03</pdfrwt>
<totfact> 0.46680292E+04</totfact>
</mgrwt>
</event>
<event>
 7    0  0.4779893E-002  0.4499909E+03  0.7546771E-02  0.1027725E+00
         21   -1    0    0  502  501  0.00000000000E+00  0.00000000000E+00  0.78899940672E+02  0.78899940672E+02  0.00000000000E+00 0. -1.
         21   -1    0    0  501  502 -0.00000000000E+00 -0.00000000000E+00 -0.64160960227E+03  0.64160960227E+03  0.00000000000E+00 0. -1.
      99926    2    1    2    0    0  0.00000000000E+00  0.00000000000E+00 -0.56270966160E+03  0.72050954294E+03  0.44999093126E+03 0.  0.
      99925    2    3    3    0    0  0.48664914785E+02 -0.96791428445E+02 -0.36390095114E+03  0.46184128821E+03  0.26293843140E+03 0.  0.
         25    1    3    3    0    0 -0.48664914785E+02  0.96791428445E+02 -0.19880871046E+03  0.25866825473E+03  0.12509000000E+03 0.  0.
         25    1    4    4    0    0  0.45937528458E+02 -0.86433466196E+02 -0.20313562466E+03  0.25786157276E+03  0.12509000000E+03 0.  0.
         25    1    4    4    0    0  0.27273863264E+01 -0.10357962250E+02 -0.16076532648E+03  0.20397971545E+03  0.12509000000E+03 0.  0.
<mgrwt>
<rscale>  2 0.44999093E+03</rscale>
<asrwt>0</asrwt>
<pdfrwt beam="1">  1       21 0.11602932E-01 0.44999093E+03</pdfrwt>
<pdfrwt beam="2">  1       21 0.94354356E-01 0.44999093E+03</pdfrwt>
<totfact> 0.53895793E+04</totfact>
</mgrwt>
</event>
<event>
 7    0  0.4779893E-002  0.4572155E+03  0.7546771E-02  0.1025592E+00
         21   -1    0    0  502  501  0.00000000000E+00  0.00000000000E+00  0.59827165952E+03  0.59827165952E+03  0.00000000000E+00 0. -1.
         21   -1    0    0  501  502 -0.00000000000E+00 -0.00000000000E+00 -0.87354117747E+02  0.87354117747E+02  0.00000000000E+00 0. -1.
      99926    2    1    2    0    0  0.00000000000E+00 -0.14210854715E-13  0.51091754177E+03  0.68562577726E+03  0.45721545464E+03 0.  0.
      99925    2    3    3    0    0  0.50418833491E+02 -0.85580905111E+02  0.40828323125E+03  0.49576409106E+03  0.26309824587E+03 0.  0.
         25    1    3    3    0    0 -0.50418833491E+02  0.85580905111E+02  0.10263431052E+03  0.18986168620E+03  0.12509000000E+03 0.  0.
         25    1    4    4    0    0 -0.89616532134E+01 -0.19187902554E+02  0.16632617097E+03  0.20918984220E+03  0.12509000000E+03 0.  0.
         25    1    4    4    0    0  0.59380486705E+02 -0.66393002557E+02  0.24195706028E+03  0.28657424886E+03  0.12509000000E+03 0.  0.
<mgrwt>
<rscale>  2 0.45721545E+03</rscale>
<asrwt>0</asrwt>
<pdfrwt beam="1">  1       21 0.87981124E-01 0.45721545E+03</pdfrwt>
<pdfrwt beam="2">  1       21 0.12846194E-01 0.45721545E+03</pdfrwt>
<totfact> 0.52764198E+04</totfact>
</mgrwt>
</event>
<event>
 7    0  0.4779893E-002  0.4578053E+03  0.7546771E-02  0.1025420E+00
         21   -1    0    0  502  501  0.00000000000E+00  0.00000000000E+00  0.15021704902E+04  0.15021704902E+04  0.00000000000E+00 0.  1.
         21   -1    0    0  501  502 -0.00000000000E+00 -0.00000000000E+00 -0.34880479437E+02  0.34880479437E+02  0.00000000000E+00 0.  1.
      99926    2    1    2    0    0  0.00000000000E+00  0.00000000000E+00  0.14672900108E+04  0.15370509696E+04  0.45780531624E+03 0.  0.
      99925    2    3    3    0    0 -0.78709342324E+02  0.57693712467E+02  0.71203325799E+03  0.76531008324E+03  0.26302934817E+03 0.  0.
         25    1    4    4    0    0 -0.75892245342E+02  0.39466435830E+02  0.33614547732E+03  0.36872553815E+03  0.12509000000E+03 0.  0.
         25    1    3    3    0    0  0.78709342324E+02 -0.57693712467E+02  0.75525675277E+03  0.77174088639E+03  0.12509000000E+03 0.  0.
         25    1    4    4    0    0 -0.28170969820E+01  0.18227276638E+02  0.37588778067E+03  0.39658454509E+03  0.12509000000E+03 0.  0.
<mgrwt>
<rscale>  2 0.45780532E+03</rscale>
<asrwt>0</asrwt>
<pdfrwt beam="1">  1       21 0.22090738E+00 0.45780532E+03</pdfrwt>
<pdfrwt beam="2">  1       21 0.51294833E-02 0.45780532E+03</pdfrwt>
<totfact> 0.22393623E+04</totfact>
</mgrwt>
</event>
<event>
 7    0  0.4779893E-002  0.4466270E+03  0.7546771E-02  0.1028733E+00
         21   -1    0    0  502  501  0.00000000000E+00  0.00000000000E+00  0.26833878893E+03  0.26833878893E+03  0.00000000000E+00 0.  1.
         21   -1    0    0  501  502 -0.00000000000E+00 -0.00000000000E+00 -0.18584312029E+03  0.18584312029E+03  0.00000000000E+00 0.  1.
      99926    2    1    2    0    0  0.00000000000E+00 -0.35527136788E-14  0.82495668640E+02  0.45418190922E+03  0.44662699350E+03 0.  0.
      99925    2    3    3    0    0  0.17697133359E+02 -0.29906862389E+02  0.15322374061E+03  0.30633882615E+03  0.26297975735E+03 0.  0.
         25    1    3    3    0    0 -0.17697133359E+02  0.29906862389E+02 -0.70728071971E+02  0.14784308307E+03  0.12509000000E+03 0.  0.
         25    1    4    4    0    0  0.36807028211E+02 -0.44666736748E+02  0.77114713731E+02  0.15793689205E+03  0.12509000000E+03 0.  0.
         25    1    4    4    0    0 -0.19109894852E+02  0.14759874359E+02  0.76109026879E+02  0.14840193410E+03  0.12509000000E+03 0.  0.
<mgrwt>
<rscale>  2 0.44662699E+03</rscale>
<asrwt>0</asrwt>
<pdfrwt beam="1">  1       21 0.39461587E-01 0.44662699E+03</pdfrwt>
<pdfrwt beam="2">  1       21 0.27329870E-01 0.44662699E+03</pdfrwt>
<totfact> 0.73385045E+04</totfact>
</mgrwt>
</event>
<event>
 7    0  0.4779893E-002  0.4551316E+03  0.7546771E-02  0.1026203E+00
         21   -1    0    0  502  501  0.00000000000E+00  0.00000000000E+00  0.36373606402E+03  0.36373606402E+03  0.00000000000E+00 0.  1.
         21   -1    0    0  501  502 -0.00000000000E+00 -0.00000000000E+00 -0.14237298359E+03  0.14237298359E+03  0.00000000000E+00 0.  1.
      99926    2    1    2    0    0  0.00000000000E+00 -0.17763568394E-14  0.22136308044E+03  0.50610904761E+03  0.45513157954E+03 0.  0.
      99925    2    3    3    0    0 -0.92531558837E+02 -0.13421677913E+02  0.21048198167E+03  0.34955829792E+03  0.26295647590E+03 0.  0.
         25    1    4    4    0    0 -0.81545276251E+02 -0.15572955544E+02  0.87438710499E+02  0.17373884199E+03  0.12509000000E+03 0.  0.
         25    1    4    4    0    0 -0.10986282586E+02  0.21512776304E+01  0.12304327118E+03  0.17581945593E+03  0.12509000000E+03 0.  0.
         25    1    3    3    0    0  0.92531558837E+02  0.13421677913E+02  0.10881098765E+02  0.15655074969E+03  0.12509000000E+03 0.  0.
<mgrwt>
<rscale>  2 0.45513158E+03</rscale>
<asrwt>0</asrwt>
<pdfrwt beam="1">  1       21 0.53490598E-01 0.45513158E+03</pdfrwt>
<pdfrwt beam="2">  1       21 0.20937204E-01 0.45513158E+03</pdfrwt>
<totfact> 0.64775903E+04</totfact>
</mgrwt>
</event>
<event>
 7    0  0.4779893E-002  0.4603751E+03  0.7546771E-02  0.1024672E+00
         21   -1    0    0  502  501  0.00000000000E+00  0.00000000000E+00  0.58460747143E+02  0.58460747143E+02  0.00000000000E+00 0.  1.
         21   -1    0    0  501  502 -0.00000000000E+00 -0.00000000000E+00 -0.90635691374E+03  0.90635691374E+03  0.00000000000E+00 0.  1.
      99926    2    1    2    0    0  0.00000000000E+00  0.00000000000E+00 -0.84789616659E+03  0.96481766088E+03  0.46037507472E+03 0.  0.
      99925    2    3    3    0    0 -0.78909531898E+02  0.24670880367E+02 -0.35536221023E+03  0.44996566969E+03  0.26334660977E+03 0.  0.
         25    1    3    3    0    0  0.78909531898E+02 -0.24670880367E+02 -0.49253395636E+03  0.51485199119E+03  0.12509000000E+03 0.  0.
         25    1    4    4    0    0 -0.26898753452E+02  0.50971291792E+02 -0.16719707729E+03  0.21661945037E+03  0.12509000000E+03 0.  0.
         25    1    4    4    0    0 -0.52010778446E+02 -0.26300411425E+02 -0.18816513295E+03  0.23334621932E+03  0.12509000000E+03 0.  0.
<mgrwt>
<rscale>  2 0.46037507E+03</rscale>
<asrwt>0</asrwt>
<pdfrwt beam="1">  1       21 0.85971697E-02 0.46037507E+03</pdfrwt>
<pdfrwt beam="2">  1       21 0.13328777E+00 0.46037507E+03</pdfrwt>
<totfact> 0.38886467E+04</totfact>
</mgrwt>
</event>
<event>
 7    0  0.4779893E-002  0.4517194E+03  0.7546771E-02  0.1027211E+00
         21   -1    0    0  502  501  0.00000000000E+00  0.00000000000E+00  0.16732218289E+04  0.16732218289E+04  0.00000000000E+00 0. -1.
         21   -1    0    0  501  502 -0.00000000000E+00 -0.00000000000E+00 -0.30487650970E+02  0.30487650970E+02  0.00000000000E+00 0. -1.
      99926    2    1    2    0    0 -0.35527136788E-14  0.71054273576E-14  0.16427341780E+04  0.17037094799E+04  0.45171939571E+03 0.  0.
      99925    2    3    3    0    0 -0.98932327933E+01  0.43058446212E+02  0.65657043335E+03  0.70866257390E+03  0.26299430385E+03 0.  0.
         25    1    4    4    0    0  0.26150932397E+02 -0.43146287649E+01  0.29891985306E+03  0.32512009156E+03  0.12509000000E+03 0.  0.
         25    1    4    4    0    0 -0.36044165191E+02  0.47373074977E+02  0.35765058029E+03  0.38354248234E+03  0.12509000000E+03 0.  0.
         25    1    3    3    0    0  0.98932327933E+01 -0.43058446212E+02  0.98616374461E+03  0.99504690599E+03  0.12509000000E+03 0.  0.
<mgrwt>
<rscale>  2 0.45171940E+03</rscale>
<asrwt>0</asrwt>
<pdfrwt beam="1">  1       21 0.24606197E+00 0.45171940E+03</pdfrwt>
<pdfrwt beam="2">  1       21 0.44834792E-02 0.45171940E+03</pdfrwt>
<totfact> 0.19681187E+04</totfact>
</mgrwt>
</event>
<event>
 7    0  0.4779893E-002  0.4537742E+03  0.7546771E-02  0.1026602E+00
         21   -1    0    0  502  501  0.00000000000E+00  0.00000000000E+00  0.27593577836E+03  0.27593577836E+03  0.00000000000E+00 0. -1.
         21   -1    0    0  501  502 -0.00000000000E+00 -0.00000000000E+00 -0.18655704036E+03  0.18655704036E+03  0.00000000000E+00 0. -1.
      99926    2    1    2    0    0  0.00000000000E+00  0.39968028887E-14  0.89378738002E+02  0.46249281871E+03  0.45377422641E+03 0.  0.
      99925    2    3    3    0    0  0.92869976284E+01 -0.19792604515E+01  0.17008307054E+03  0.31332558643E+03  0.26297244425E+03 0.  0.
         25    1    4    4    0    0 -0.31136032957E+01 -0.34321423692E+02  0.11083870716E+03  0.17064695062E+03  0.12509000000E+03 0.  0.
         25    1    3    3    0    0 -0.92869976284E+01  0.19792604515E+01 -0.80704332533E+02  0.14916723228E+03  0.12509000000E+03 0.  0.
         25    1    4    4    0    0  0.12400600924E+02  0.32342163240E+02  0.59244363373E+02  0.14267863581E+03  0.12509000000E+03 0.  0.
<mgrwt>
<rscale>  2 0.45377423E+03</rscale>
<asrwt>0</asrwt>
<pdfrwt beam="1">  1       21 0.40578791E-01 0.45377423E+03</pdfrwt>
<pdfrwt beam="2">  1       21 0.27434859E-01 0.45377423E+03</pdfrwt>
<totfact> 0.68663351E+04</totfact>
</mgrwt>
</event>
<event>
 7    0  0.4779893E-002  0.4145821E+03  0.7546771E-02  0.1038844E+00
         21   -1    0    0  502  501  0.00000000000E+00  0.00000000000E+00  0.44773961464E+02  0.44773961464E+02  0.00000000000E+00 0.  1.
         21   -1    0    0  501  502 -0.00000000000E+00 -0.00000000000E+00 -0.95970039359E+03  0.95970039359E+03  0.00000000000E+00 0.  1.
      99926    2    1    2    0    0 -0.53290705182E-14  0.00000000000E+00 -0.91492643213E+03  0.10044743551E+04  0.41458214356E+03 0.  0.
      99925    2    3    3    0    0 -0.11087527188E+02 -0.67643381758E+02 -0.59305205366E+03  0.65241017914E+03  0.26311545589E+03 0.  0.
         25    1    3    3    0    0  0.11087527188E+02  0.67643381758E+02 -0.32187437847E+03  0.35206417592E+03  0.12509000000E+03 0.  0.
         25    1    4    4    0    0  0.23306674307E+02 -0.90598006685E+01 -0.24122342367E+03  0.27287639927E+03  0.12509000000E+03 0.  0.
         25    1    4    4    0    0 -0.34394201495E+02 -0.58583581090E+02 -0.35182863000E+03  0.37953377986E+03  0.12509000000E+03 0.  0.
<mgrwt>
<rscale>  2 0.41458214E+03</rscale>
<asrwt>0</asrwt>
<pdfrwt beam="1">  1       21 0.65844064E-02 0.41458214E+03</pdfrwt>
<pdfrwt beam="2">  1       21 0.14113240E+00 0.41458214E+03</pdfrwt>
<totfact> 0.54178216E+04</totfact>
</mgrwt>
</event>
<event>
 7    0  0.4779893E-002  0.4488263E+03  0.7546771E-02  0.1028073E+00
         21   -1    0    0  502  501  0.00000000000E+00  0.00000000000E+00  0.71901366854E+03  0.71901366854E+03  0.00000000000E+00 0. -1.
         21   -1    0    0  501  502 -0.00000000000E+00 -0.00000000000E+00 -0.70042152202E+02  0.70042152202E+02  0.00000000000E+00 0. -1.
      99926    2    1    2    0    0 -0.17763568394E-14  0.15543122345E-14  0.64897151634E+03  0.78905582074E+03  0.44882631299E+03 0.  0.
      99925    2    3    3    0    0  0.13887432424E+02 -0.18522047315E+01  0.22358496347E+03  0.34543715690E+03  0.26294543548E+03 0.  0.
         25    1    4    4    0    0 -0.22740970825E+02  0.20008155457E+02  0.13384486678E+03  0.18568638750E+03  0.12509000000E+03 0.  0.
         25    1    4    4    0    0  0.36628403249E+02 -0.21860360189E+02  0.89740096686E+02  0.15975076940E+03  0.12509000000E+03 0.  0.
         25    1    3    3    0    0 -0.13887432424E+02  0.18522047315E+01  0.42538655287E+03  0.44361866384E+03  0.12509000000E+03 0.  0.
<mgrwt>
<rscale>  2 0.44882631E+03</rscale>
<asrwt>0</asrwt>
<pdfrwt beam="1">  1       21 0.10573730E+00 0.44882631E+03</pdfrwt>
<pdfrwt beam="2">  1       21 0.10300317E-01 0.44882631E+03</pdfrwt>
<totfact> 0.50711675E+04</totfact>
</mgrwt>
</event>
<event>
 7    0  0.4779893E-002  0.4554663E+03  0.7546771E-02  0.1026104E+00
         21   -1    0    0  502  501  0.00000000000E+00  0.00000000000E+00  0.44410710816E+03  0.44410710816E+03  0.00000000000E+00 0.  1.
         21   -1    0    0  501  502 -0.00000000000E+00 -0.00000000000E+00 -0.11677902977E+03  0.11677902977E+03  0.00000000000E+00 0.  1.
      99926    2    1    2    0    0  0.00000000000E+00  0.00000000000E+00  0.32732807839E+03  0.56088613793E+03  0.45546634213E+03 0.  0.
      99925    2    3    3    0    0  0.93683373079E+02  0.52421745214E+02  0.25148205630E+03  0.37943437869E+03  0.26306388830E+03 0.  0.
         25    1    3    3    0    0 -0.93683373079E+02 -0.52421745214E+02  0.75846022087E+02  0.18145175923E+03  0.12509000000E+03 0.  0.
         25    1    4    4    0    0  0.68632087595E+02 -0.15312265279E+01  0.10043153912E+03  0.17448985716E+03  0.12509000000E+03 0.  0.
         25    1    4    4    0    0  0.25051285484E+02  0.53952971742E+02  0.15105051718E+03  0.20494452153E+03  0.12509000000E+03 0.  0.
<mgrwt>
<rscale>  2 0.45546634E+03</rscale>
<asrwt>0</asrwt>
<pdfrwt beam="1">  1       21 0.65309868E-01 0.45546634E+03</pdfrwt>
<pdfrwt beam="2">  1       21 0.17173387E-01 0.45546634E+03</pdfrwt>
<totfact> 0.60927777E+04</totfact>
</mgrwt>
</event>
<event>
 7    0  0.4779893E-002  0.4423434E+03  0.7546771E-02  0.1030030E+00
         21   -1    0    0  502  501  0.00000000000E+00  0.00000000000E+00  0.41494001391E+02  0.41494001391E+02  0.00000000000E+00 0. -1.
         21   -1    0    0  501  502 -0.00000000000E+00 -0.00000000000E+00 -0.11788915995E+04  0.11788915995E+04  0.00000000000E+00 0. -1.
      99926    2    1    2    0    0  0.00000000000E+00  0.35527136788E-14 -0.11373975981E+04  0.12203856009E+04  0.44234343974E+03 0.  0.
      99925    2    3    3    0    0  0.94367740996E+02 -0.25601201982E+02 -0.79334224907E+03  0.84146307136E+03  0.26288302384E+03 0.  0.
         25    1    3    3    0    0 -0.94367740996E+02  0.25601201982E+02 -0.34405534907E+03  0.37892252956E+03  0.12509000000E+03 0.  0.
         25    1    4    4    0    0  0.31642562704E+02  0.24909817115E+02 -0.39134118311E+03  0.41281615818E+03  0.12509000000E+03 0.  0.
         25    1    4    4    0    0  0.62725178292E+02 -0.50511019097E+02 -0.40200106596E+03  0.42864691318E+03  0.12509000000E+03 0.  0.
<mgrwt>
<rscale>  2 0.44234344E+03</rscale>
<asrwt>0</asrwt>
<pdfrwt beam="1">  1       21 0.61020602E-02 0.44234344E+03</pdfrwt>
<pdfrwt beam="2">  1       21 0.17336638E+00 0.44234344E+03</pdfrwt>
<totfact> 0.34824444E+04</totfact>
</mgrwt>
</event>
<event>
 7    0  0.4779893E-002  0.4498238E+03  0.7546771E-02  0.1027775E+00
         21   -1    0    0  502  501  0.00000000000E+00  0.00000000000E+00  0.18149657039E+03  0.18149657039E+03  0.00000000000E+00 0.  1.
         21   -1    0    0  501  502 -0.00000000000E+00 -0.00000000000E+00 -0.27871251550E+03  0.27871251550E+03  0.00000000000E+00 0.  1.
      99926    2    1    2    0    0  0.00000000000E+00  0.00000000000E+00 -0.97215945109E+02  0.46020908588E+03  0.44982381301E+03 0.  0.
      99925    2    3    3    0    0  0.16155384410E+02 -0.86472271343E+02 -0.12376460535E+03  0.30499700640E+03  0.26451284699E+03 0.  0.
         25    1    4    4    0    0  0.26896089965E+02 -0.56624342653E+01 -0.42111708758E+02  0.13481975720E+03  0.12509000000E+03 0.  0.
         25    1    3    3    0    0 -0.16155384410E+02  0.86472271343E+02  0.26548660238E+02  0.15521207948E+03  0.12509000000E+03 0.  0.
         25    1    4    4    0    0 -0.10740705555E+02 -0.80809837078E+02 -0.81652896589E+02  0.17017724920E+03  0.12509000000E+03 0.  0.
<mgrwt>
<rscale>  2 0.44982381E+03</rscale>
<asrwt>0</asrwt>
<pdfrwt beam="1">  1       21 0.26690672E-01 0.44982381E+03</pdfrwt>
<pdfrwt beam="2">  1       21 0.40987134E-01 0.44982381E+03</pdfrwt>
<totfact> 0.71043794E+04</totfact>
</mgrwt>
</event>
<event>
 7    0  0.4779893E-002  0.4568250E+03  0.7546771E-02  0.1025706E+00
         21   -1    0    0  502  501  0.00000000000E+00  0.00000000000E+00  0.37470024830E+03  0.37470024830E+03  0.00000000000E+00 0. -1.
         21   -1    0    0  501  502 -0.00000000000E+00 -0.00000000000E+00 -0.13923732391E+03  0.13923732391E+03  0.00000000000E+00 0. -1.
      99926    2    1    2    0    0  0.00000000000E+00  0.00000000000E+00  0.23546292439E+03  0.51393757221E+03  0.45682495485E+03 0.  0.
      99925    2    3    3    0    0 -0.50264167958E+02  0.49053057111E+02  0.45566384615E+02  0.27594409980E+03  0.26293756258E+03 0.  0.
         25    1    3    3    0    0  0.50264167958E+02 -0.49053057111E+02  0.18989653977E+03  0.23799347241E+03  0.12509000000E+03 0.  0.
         25    1    4    4    0    0 -0.54252733971E+02  0.62601324103E+01  0.14049751441E+01  0.13649919581E+03  0.12509000000E+03 0.  0.
         25    1    4    4    0    0  0.39885660135E+01  0.42792924701E+02  0.44161409471E+02  0.13944490399E+03  0.12509000000E+03 0.  0.
<mgrwt>
<rscale>  2 0.45682495E+03</rscale>
<asrwt>0</asrwt>
<pdfrwt beam="1">  1       21 0.55102978E-01 0.45682495E+03</pdfrwt>
<pdfrwt beam="2">  1       21 0.20476077E-01 0.45682495E+03</pdfrwt>
<totfact> 0.63379330E+04</totfact>
</mgrwt>
</event>
<event>
 7    0  0.4779893E-002  0.4497677E+03  0.7546771E-02  0.1027791E+00
         21   -1    0    0  502  501  0.00000000000E+00  0.00000000000E+00  0.69006428096E+02  0.69006428096E+02  0.00000000000E+00 0. -1.
         21   -1    0    0  501  502 -0.00000000000E+00 -0.00000000000E+00 -0.73287013146E+03  0.73287013146E+03  0.00000000000E+00 0. -1.
      99926    2    1    2    0    0  0.17763568394E-14  0.71054273576E-14 -0.66386370336E+03  0.80187655955E+03  0.44976771796E+03 0.  0.
      99925    2    3    3    0    0 -0.12278797288E+02  0.32815139524E+02 -0.23736780541E+03  0.35603593633E+03  0.26304089163E+03 0.  0.
         25    1    4    4    0    0 -0.20101774362E+02  0.41639969811E+02 -0.83336784392E+02  0.15725932771E+03  0.12509000000E+03 0.  0.
         25    1    3    3    0    0  0.12278797288E+02 -0.32815139524E+02 -0.42649589796E+03  0.44584062322E+03  0.12509000000E+03 0.  0.
         25    1    4    4    0    0  0.78229770745E+01 -0.88248302877E+01 -0.15403102102E+03  0.19877660862E+03  0.12509000000E+03 0.  0.
<mgrwt>
<rscale>  2 0.44976772E+03</rscale>
<asrwt>0</asrwt>
<pdfrwt beam="1">  1       21 0.10148003E-01 0.44976772E+03</pdfrwt>
<pdfrwt beam="2">  1       21 0.10777503E+00 0.44976772E+03</pdfrwt>
<totfact> 0.49683033E+04</totfact>
</mgrwt>
</event>
<event>
 7    0  0.4779893E-002  0.4537219E+03  0.7546771E-02  0.1026618E+00
         21   -1    0    0  502  501  0.00000000000E+00  0.00000000000E+00  0.12620693791E+03  0.12620693791E+03  0.00000000000E+00 0.  1.
         21   -1    0    0  501  502 -0.00000000000E+00 -0.00000000000E+00 -0.40778977130E+03  0.40778977130E+03  0.00000000000E+00 0.  1.
      99926    2    1    2    0    0  0.00000000000E+00  0.00000000000E+00 -0.28158283339E+03  0.53399670921E+03  0.45372193400E+03 0.  0.
      99925    2    3    3    0    0  0.16397461136E+02 -0.97826530619E+02 -0.11629569150E+03  0.30420059480E+03  0.26301027963E+03 0.  0.
         25    1    3    3    0    0 -0.16397461136E+02  0.97826530619E+02 -0.16528714189E+03  0.22979611441E+03  0.12509000000E+03 0.  0.
         25    1    4    4    0    0 -0.16491735996E+02 -0.69742406803E+02 -0.33251086782E+02  0.14794973314E+03  0.12509000000E+03 0.  0.
         25    1    4    4    0    0  0.32889197132E+02 -0.28084123817E+02 -0.83044604717E+02  0.15625086167E+03  0.12509000000E+03 0.  0.
<mgrwt>
<rscale>  2 0.45372193E+03</rscale>
<asrwt>0</asrwt>
<pdfrwt beam="1">  1       21 0.18559844E-01 0.45372193E+03</pdfrwt>
<pdfrwt beam="2">  1       21 0.59969085E-01 0.45372193E+03</pdfrwt>
<totfact> 0.63577283E+04</totfact>
</mgrwt>
</event>
<event>
 7    0  0.4779893E-002  0.4465484E+03  0.7546771E-02  0.1028756E+00
         21   -1    0    0  502  501  0.00000000000E+00  0.00000000000E+00  0.48790907274E+03  0.48790907274E+03  0.00000000000E+00 0.  1.
         21   -1    0    0  501  502 -0.00000000000E+00 -0.00000000000E+00 -0.10217350247E+03  0.10217350247E+03  0.00000000000E+00 0.  1.
      99926    2    1    2    0    0  0.00000000000E+00 -0.14210854715E-13  0.38573557027E+03  0.59008257521E+03  0.44654844687E+03 0.  0.
      99925    2    3    3    0    0  0.62290779161E+02 -0.80844382043E+02  0.21233586153E+03  0.35316292140E+03  0.26309993477E+03 0.  0.
         25    1    4    4    0    0  0.58564172016E+02 -0.65388338608E+02  0.89345956883E+02  0.17701865772E+03  0.12509000000E+03 0.  0.
         25    1    3    3    0    0 -0.62290779161E+02  0.80844382043E+02  0.17339970873E+03  0.23691965382E+03  0.12509000000E+03 0.  0.
         25    1    4    4    0    0  0.37266071455E+01 -0.15456043435E+02  0.12298990465E+03  0.17614426368E+03  0.12509000000E+03 0.  0.
<mgrwt>
<rscale>  2 0.44654845E+03</rscale>
<asrwt>0</asrwt>
<pdfrwt beam="1">  1       21 0.71751333E-01 0.44654845E+03</pdfrwt>
<pdfrwt beam="2">  1       21 0.15025515E-01 0.44654845E+03</pdfrwt>
<totfact> 0.63424321E+04</totfact>
</mgrwt>
</event>
<event>
 7    0  0.4779893E-002  0.4478544E+03  0.7546771E-02  0.1028364E+00
         21   -1    0    0  502  501  0.00000000000E+00  0.00000000000E+00  0.99083328756E+02  0.99083328756E+02  0.00000000000E+00 0.  1.
         21   -1    0    0  501  502 -0.00000000000E+00 -0.00000000000E+00 -0.50607283274E+03  0.50607283274E+03  0.00000000000E+00 0.  1.
      99926    2    1    2    0    0  0.17763568394E-14  0.00000000000E+00 -0.40698950398E+03  0.60515616149E+03  0.44785435517E+03 0.  0.
      99925    2    3    3    0    0 -0.11719013090E+02 -0.39348379589E+02 -0.39037501053E+03  0.47245657695E+03  0.26293903860E+03 0.  0.
         25    1    4    4    0    0  0.21396713646E+02 -0.66971495933E+01 -0.14247698449E+03  0.19091849145E+03  0.12509000000E+03 0.  0.
         25    1    3    3    0    0  0.11719013090E+02  0.39348379589E+02 -0.16614493455E+02  0.13269958454E+03  0.12509000000E+03 0.  0.
         25    1    4    4    0    0 -0.33115726736E+02 -0.32651229996E+02 -0.24789802603E+03  0.28153808550E+03  0.12509000000E+03 0.  0.
<mgrwt>
<rscale>  2 0.44785436E+03</rscale>
<asrwt>0</asrwt>
<pdfrwt beam="1">  1       21 0.14571078E-01 0.44785436E+03</pdfrwt>
<pdfrwt beam="2">  1       21 0.74422473E-01 0.44785436E+03</pdfrwt>
<totfact> 0.61776047E+04</totfact>
</mgrwt>
</event>
<event>
 7    0  0.4779893E-002  0.4242156E+03  0.7546771E-02  0.1035703E+00
         21   -1    0    0  502  501  0.00000000000E+00  0.00000000000E+00  0.16665040668E+04  0.16665040668E+04  0.00000000000E+00 0. -1.
         21   -1    0    0  501  502 -0.00000000000E+00 -0.00000000000E+00 -0.26996466685E+02  0.26996466685E+02  0.00000000000E+00 0. -1.
      99926    2    1    2    0    0  0.00000000000E+00  0.00000000000E+00  0.16395076002E+04  0.16935005335E+04  0.42421561273E+03 0.  0.
      99925    2    3    3    0    0  0.72958314538E+02 -0.30534034507E+02  0.11379557770E+04  0.11705693886E+04  0.26274341132E+03 0.  0.
         25    1    4    4    0    0  0.46989644841E+02 -0.20126467753E+02  0.41824465530E+03  0.43953293530E+03  0.12509000000E+03 0.  0.
         25    1    4    4    0    0  0.25968669697E+02 -0.10407566754E+02  0.71971112171E+03  0.73103645331E+03  0.12509000000E+03 0.  0.
         25    1    3    3    0    0 -0.72958314538E+02  0.30534034507E+02  0.50155182314E+03  0.52293114491E+03  0.12509000000E+03 0.  0.
<mgrwt>
<rscale>  2 0.42421561E+03</rscale>
<asrwt>0</asrwt>
<pdfrwt beam="1">  1       21 0.24507406E+00 0.42421561E+03</pdfrwt>
<pdfrwt beam="2">  1       21 0.39700698E-02 0.42421561E+03</pdfrwt>
<totfact> 0.24819672E+04</totfact>
</mgrwt>
</event>
<event>
 7    0  0.4779893E-002  0.4559872E+03  0.7546771E-02  0.1025952E+00
         21   -1    0    0  502  501  0.00000000000E+00  0.00000000000E+00  0.14077186243E+03  0.14077186243E+03  0.00000000000E+00 0. -1.
         21   -1    0    0  501  502 -0.00000000000E+00 -0.00000000000E+00 -0.36925754418E+03  0.36925754418E+03  0.00000000000E+00 0. -1.
      99926    2    1    2    0    0  0.00000000000E+00  0.00000000000E+00 -0.22848568176E+03  0.51002940661E+03  0.45598715863E+03 0.  0.
      99925    2    3    3    0    0 -0.67102083533E+02  0.63087724530E+02 -0.68345439139E+02  0.28692594181E+03  0.26300693228E+03 0.  0.
         25    1    4    4    0    0 -0.24268569756E+02  0.15530595614E+02  0.49190411231E+01  0.12845959654E+03  0.12509000000E+03 0.  0.
         25    1    3    3    0    0  0.67102083533E+02 -0.63087724530E+02 -0.16014024262E+03  0.22310346480E+03  0.12509000000E+03 0.  0.
         25    1    4    4    0    0 -0.42833513778E+02  0.47557128916E+02 -0.73264480262E+02  0.15846634526E+03  0.12509000000E+03 0.  0.
<mgrwt>
<rscale>  2 0.45598716E+03</rscale>
<asrwt>0</asrwt>
<pdfrwt beam="1">  1       21 0.20701745E-01 0.45598716E+03</pdfrwt>
<pdfrwt beam="2">  1       21 0.54302579E-01 0.45598716E+03</pdfrwt>
<totfact> 0.64068238E+04</totfact>
</mgrwt>
</event>
<event>
 7    0  0.4779893E-002  0.4458170E+03  0.7546771E-02  0.1028977E+00
         21   -1    0    0  502  501  0.00000000000E+00  0.00000000000E+00  0.21568882092E+03  0.21568882092E+03  0.00000000000E+00 0. -1.
         21   -1    0    0  501  502 -0.00000000000E+00 -0.00000000000E+00 -0.23036985634E+03  0.23036985634E+03  0.00000000000E+00 0. -1.
      99926    2    1    2    0    0  0.00000000000E+00  0.00000000000E+00 -0.14681035426E+02  0.44605867726E+03  0.44581701488E+03 0.  0.
      99925    2    3    3    0    0 -0.30861213899E+02 -0.95800847745E+02  0.18273583977E+02  0.28215708486E+03  0.26296098515E+03 0.  0.
         25    1    4    4    0    0 -0.15214289774E+02 -0.25648574678E+02  0.43388158351E+02  0.13571795895E+03  0.12509000000E+03 0.  0.
         25    1    3    3    0    0  0.30861213899E+02  0.95800847745E+02 -0.32954619403E+02  0.16390159240E+03  0.12509000000E+03 0.  0.
         25    1    4    4    0    0 -0.15646924124E+02 -0.70152273067E+02 -0.25114574374E+02  0.14643912591E+03  0.12509000000E+03 0.  0.
<mgrwt>
<rscale>  2 0.44581701E+03</rscale>
<asrwt>0</asrwt>
<pdfrwt beam="1">  1       21 0.31718944E-01 0.44581701E+03</pdfrwt>
<pdfrwt beam="2">  1       21 0.33877920E-01 0.44581701E+03</pdfrwt>
<totfact> 0.74517967E+04</totfact>
</mgrwt>
</event>
<event>
 7    0  0.4779893E-002  0.4458775E+03  0.7546771E-02  0.1028959E+00
         21   -1    0    0  502  501  0.00000000000E+00  0.00000000000E+00  0.47068875836E+03  0.47068875836E+03  0.00000000000E+00 0.  1.
         21   -1    0    0  501  502 -0.00000000000E+00 -0.00000000000E+00 -0.10559352100E+03  0.10559352100E+03  0.00000000000E+00 0.  1.
      99926    2    1    2    0    0  0.00000000000E+00  0.00000000000E+00  0.36509523736E+03  0.57628227935E+03  0.44587748671E+03 0.  0.
      99925    2    3    3    0    0  0.35624495741E+02 -0.77379858902E+01  0.35828868830E+03  0.44581075628E+03  0.26276884353E+03 0.  0.
         25    1    4    4    0    0  0.48743403906E+02 -0.12604407262E+02  0.14390911310E+03  0.19721088063E+03  0.12509000000E+03 0.  0.
         25    1    4    4    0    0 -0.13118908165E+02  0.48664213717E+01  0.21437957521E+03  0.24859987565E+03  0.12509000000E+03 0.  0.
         25    1    3    3    0    0 -0.35624495741E+02  0.77379858902E+01  0.68065490590E+01  0.13047152307E+03  0.12509000000E+03 0.  0.
<mgrwt>
<rscale>  2 0.44587749E+03</rscale>
<asrwt>0</asrwt>
<pdfrwt beam="1">  1       21 0.69218935E-01 0.44587749E+03</pdfrwt>
<pdfrwt beam="2">  1       21 0.15528459E-01 0.44587749E+03</pdfrwt>
<totfact> 0.64704498E+04</totfact>
</mgrwt>
</event>
<event>
 7    0  0.4779893E-002  0.4642947E+03  0.7546771E-02  0.1023543E+00
         21   -1    0    0  502  501  0.00000000000E+00  0.00000000000E+00  0.58809399327E+03  0.58809399327E+03  0.00000000000E+00 0. -1.
         21   -1    0    0  501  502 -0.00000000000E+00 -0.00000000000E+00 -0.91639066193E+02  0.91639066193E+02  0.00000000000E+00 0. -1.
      99926    2    1    2    0    0  0.00000000000E+00 -0.71054273576E-14  0.49645492708E+03  0.67973305946E+03  0.46429466668E+03 0.  0.
      99925    2    3    3    0    0  0.86672833165E+02  0.62931015398E+02  0.22540990898E+03  0.36258104127E+03  0.26302640878E+03 0.  0.
         25    1    3    3    0    0 -0.86672833165E+02 -0.62931015398E+02  0.27104501810E+03  0.31715201819E+03  0.12509000000E+03 0.  0.
         25    1    4    4    0    0  0.65290874045E+02  0.14699119118E+02  0.15324752268E+03  0.20883312392E+03  0.12509000000E+03 0.  0.
         25    1    4    4    0    0  0.21381959119E+02  0.48231896280E+02  0.72162386296E+02  0.15374791735E+03  0.12509000000E+03 0.  0.
<mgrwt>
<rscale>  2 0.46429467E+03</rscale>
<asrwt>0</asrwt>
<pdfrwt beam="1">  1       21 0.86484409E-01 0.46429467E+03</pdfrwt>
<pdfrwt beam="2">  1       21 0.13476334E-01 0.46429467E+03</pdfrwt>
<totfact> 0.50235647E+04</totfact>
</mgrwt>
</event>
<event>
 7    0  0.4779893E-002  0.4578959E+03  0.7546771E-02  0.1025393E+00
         21   -1    0    0  502  501  0.00000000000E+00  0.00000000000E+00  0.18624971261E+03  0.18624971261E+03  0.00000000000E+00 0.  1.
         21   -1    0    0  501  502 -0.00000000000E+00 -0.00000000000E+00 -0.28143481533E+03  0.28143481533E+03  0.00000000000E+00 0.  1.
      99926    2    1    2    0    0 -0.14210854715E-13  0.35527136788E-14 -0.95185102723E+02  0.46768452793E+03  0.45789585485E+03 0.  0.
      99925    2    3    3    0    0 -0.69317053250E+02  0.20366952165E+02 -0.15162834106E+03  0.31259418695E+03  0.26363669186E+03 0.  0.
         25    1    3    3    0    0  0.69317053250E+02 -0.20366952165E+02  0.56443238334E+02  0.15509034098E+03  0.12509000000E+03 0.  0.
         25    1    4    4    0    0 -0.29176790417E+02  0.38299671113E+02 -0.41737425604E+02  0.14038401156E+03  0.12509000000E+03 0.  0.
         25    1    4    4    0    0 -0.40140262834E+02 -0.17932718948E+02 -0.10989091545E+03  0.17221017539E+03  0.12509000000E+03 0.  0.
<mgrwt>
<rscale>  2 0.45789585E+03</rscale>
<asrwt>0</asrwt>
<pdfrwt beam="1">  1       21 0.27389664E-01 0.45789585E+03</pdfrwt>
<pdfrwt beam="2">  1       21 0.41387473E-01 0.45789585E+03</pdfrwt>
<totfact> 0.66077263E+04</totfact>
</mgrwt>
</event>
<event>
 7    0  0.4779893E-002  0.4559448E+03  0.7546771E-02  0.1025964E+00
         21   -1    0    0  502  501  0.00000000000E+00  0.00000000000E+00  0.37912728729E+03  0.37912728729E+03  0.00000000000E+00 0.  1.
         21   -1    0    0  501  502 -0.00000000000E+00 -0.00000000000E+00 -0.13708167550E+03  0.13708167550E+03  0.00000000000E+00 0.  1.
      99926    2    1    2    0    0  0.00000000000E+00 -0.71054273576E-14  0.24204561178E+03  0.51620896279E+03  0.45594475003E+03 0.  0.
      99925    2    3    3    0    0  0.10186453810E+03  0.47465901727E+02  0.17198040944E+03  0.33403861221E+03  0.26339160440E+03 0.  0.
         25    1    3    3    0    0 -0.10186453810E+03 -0.47465901727E+02  0.70065202343E+02  0.18217035057E+03  0.12509000000E+03 0.  0.
         25    1    4    4    0    0  0.61345722912E+02  0.54902508780E+01  0.12773087718E+03  0.18909290219E+03  0.12509000000E+03 0.  0.
         25    1    4    4    0    0  0.40518815187E+02  0.41975650849E+02  0.44249532260E+02  0.14494571002E+03  0.12509000000E+03 0.  0.
<mgrwt>
<rscale>  2 0.45594475E+03</rscale>
<asrwt>0</asrwt>
<pdfrwt beam="1">  1       21 0.55754013E-01 0.45594475E+03</pdfrwt>
<pdfrwt beam="2">  1       21 0.20159070E-01 0.45594475E+03</pdfrwt>
<totfact> 0.63667668E+04</totfact>
</mgrwt>
</event>
<event>
 7    0  0.4779893E-002  0.4505032E+03  0.7546771E-02  0.1027572E+00
         21   -1    0    0  502  501  0.00000000000E+00  0.00000000000E+00  0.42892793889E+03  0.42892793889E+03  0.00000000000E+00 0.  1.
         21   -1    0    0  501  502 -0.00000000000E+00 -0.00000000000E+00 -0.11829093063E+03  0.11829093063E+03  0.00000000000E+00 0.  1.
      99926    2    1    2    0    0  0.00000000000E+00  0.71054273576E-14  0.31063700825E+03  0.54721886952E+03  0.45050320783E+03 0.  0.
      99925    2    3    3    0    0  0.98648088143E+02  0.46194842162E+02  0.18719334436E+03  0.34045510337E+03  0.26268406976E+03 0.  0.
         25    1    4    4    0    0  0.79712964875E+02  0.42630368495E+02  0.12902568598E+03  0.20116321938E+03  0.12509000000E+03 0.  0.
         25    1    4    4    0    0  0.18935123268E+02  0.35644736670E+01  0.58167658375E+02  0.13929188399E+03  0.12509000000E+03 0.  0.
         25    1    3    3    0    0 -0.98648088143E+02 -0.46194842162E+02  0.12344366389E+03  0.20676376615E+03  0.12509000000E+03 0.  0.
<mgrwt>
<rscale>  2 0.45050321E+03</rscale>
<asrwt>0</asrwt>
<pdfrwt beam="1">  1       21 0.63077638E-01 0.45050321E+03</pdfrwt>
<pdfrwt beam="2">  1       21 0.17395725E-01 0.45050321E+03</pdfrwt>
<totfact> 0.64308424E+04</totfact>
</mgrwt>
</event>
<event>
 7    0  0.4779893E-002  0.4632781E+03  0.7546771E-02  0.1023835E+00
         21   -1    0    0  502  501  0.00000000000E+00  0.00000000000E+00  0.11793971325E+03  0.11793971325E+03  0.00000000000E+00 0. -1.
         21   -1    0    0  501  502 -0.00000000000E+00 -0.00000000000E+00 -0.45494975611E+03  0.45494975611E+03  0.00000000000E+00 0. -1.
      99926    2    1    2    0    0  0.00000000000E+00  0.00000000000E+00 -0.33701004287E+03  0.57288946936E+03  0.46327807536E+03 0.  0.
      99925    2    3    3    0    0 -0.10486267780E+03 -0.43741473488E+02 -0.26101869471E+03  0.38760134024E+03  0.26304855497E+03 0.  0.
         25    1    4    4    0    0 -0.16787256051E+02 -0.36553286993E+02 -0.14337434751E+03  0.19447793288E+03  0.12509000000E+03 0.  0.
         25    1    3    3    0    0  0.10486267780E+03  0.43741473488E+02 -0.75991348158E+02  0.18528812912E+03  0.12509000000E+03 0.  0.
         25    1    4    4    0    0 -0.88075421747E+02 -0.71881864955E+01 -0.11764434720E+03  0.19312340736E+03  0.12509000000E+03 0.  0.
<mgrwt>
<rscale>  2 0.46327808E+03</rscale>
<asrwt>0</asrwt>
<pdfrwt beam="1">  1       21 0.17344076E-01 0.46327808E+03</pdfrwt>
<pdfrwt beam="2">  1       21 0.66904375E-01 0.46327808E+03</pdfrwt>
<totfact> 0.56583026E+04</totfact>
</mgrwt>
</event>
<event>
 6    0  0.4779893E-002  0.4536403E+03  0.7546771E-02  0.1026642E+00
         21   -1    0    0  502  501  0.00000000000E+00  0.00000000000E+00  0.37634314477E+03  0.37634314477E+03  0.00000000000E+00 0.  1.
         21   -1    0    0  501  502 -0.00000000000E+00 -0.00000000000E+00 -0.13670339293E+03  0.13670339293E+03  0.00000000000E+00 0.  1.
      99926    2    1    2    0    0  0.00000000000E+00 -0.14210854715E-13  0.23963975184E+03  0.51304653771E+03  0.45364031919E+03 0.  0.
         25    1    3    3    0    0 -0.79192378980E+01  0.12697641290E+02  0.90757304149E+02  0.15526860848E+03  0.12509000000E+03 0.  0.
         25    1    3    3    0    0 -0.75122414400E+02  0.56677312348E+02  0.46661162182E+02  0.16334156555E+03  0.12509000000E+03 0.  0.
         25    1    3    3    0    0  0.83041652298E+02 -0.69374953638E+02  0.10222128551E+03  0.19443636367E+03  0.12509000000E+03 0.  0.
<mgrwt>
<rscale>  2 0.45364032E+03</rscale>
<asrwt>0</asrwt>
<pdfrwt beam="1">  1       21 0.55344580E-01 0.45364032E+03</pdfrwt>
<pdfrwt beam="2">  1       21 0.20103440E-01 0.45364032E+03</pdfrwt>
<totfact> 0.65062653E+04</totfact>
</mgrwt>
</event>
<event>
 7    0  0.4779893E-002  0.4544476E+03  0.7546771E-02  0.1026404E+00
         21   -1    0    0  502  501  0.00000000000E+00  0.00000000000E+00  0.10066483144E+03  0.10066483144E+03  0.00000000000E+00 0.  1.
         21   -1    0    0  501  502 -0.00000000000E+00 -0.00000000000E+00 -0.51289655715E+03  0.51289655715E+03  0.00000000000E+00 0.  1.
      99926    2    1    2    0    0  0.35527136788E-14 -0.17763568394E-14 -0.41223172571E+03  0.61356138860E+03  0.45444755682E+03 0.  0.
      99925    2    3    3    0    0  0.30225766403E+02 -0.84486879054E+01 -0.40558642107E+03  0.48442330182E+03  0.26302207723E+03 0.  0.
         25    1    3    3    0    0 -0.30225766403E+02  0.84486879054E+01 -0.66453046421E+01  0.12913808677E+03  0.12509000000E+03 0.  0.
         25    1    4    4    0    0  0.21539148609E+02 -0.25432866243E+02 -0.14270490258E+03  0.19267320241E+03  0.12509000000E+03 0.  0.
         25    1    4    4    0    0  0.86866177938E+01  0.16984178338E+02 -0.26288151849E+03  0.29175009941E+03  0.12509000000E+03 0.  0.
<mgrwt>
<rscale>  2 0.45444756E+03</rscale>
<asrwt>0</asrwt>
<pdfrwt beam="1">  1       21 0.14803652E-01 0.45444756E+03</pdfrwt>
<pdfrwt beam="2">  1       21 0.75425962E-01 0.45444756E+03</pdfrwt>
<totfact> 0.58104309E+04</totfact>
</mgrwt>
</event>
<event>
 7    0  0.4779893E-002  0.4531408E+03  0.7546771E-02  0.1026790E+00
         21   -1    0    0  502  501  0.00000000000E+00  0.00000000000E+00  0.20134665744E+03  0.20134665744E+03  0.00000000000E+00 0.  1.
         21   -1    0    0  501  502 -0.00000000000E+00 -0.00000000000E+00 -0.25495405212E+03  0.25495405212E+03  0.00000000000E+00 0.  1.
      99926    2    1    2    0    0  0.00000000000E+00  0.00000000000E+00 -0.53607394685E+02  0.45630070956E+03  0.45314080017E+03 0.  0.
      99925    2    3    3    0    0  0.71935546501E+02  0.85025822970E+02 -0.29500810355E+02  0.28708856776E+03  0.26295519486E+03 0.  0.
         25    1    3    3    0    0 -0.71935546501E+02 -0.85025822970E+02 -0.24106584330E+02  0.16921214179E+03  0.12509000000E+03 0.  0.
         25    1    4    4    0    0  0.48075731771E+02  0.52934544771E+01 -0.27084991501E+02  0.13682251829E+03  0.12509000000E+03 0.  0.
         25    1    4    4    0    0  0.23859814730E+02  0.79732368493E+02 -0.24158188540E+01  0.15026604948E+03  0.12509000000E+03 0.  0.
<mgrwt>
<rscale>  2 0.45314080E+03</rscale>
<asrwt>0</asrwt>
<pdfrwt beam="1">  1       21 0.29609803E-01 0.45314080E+03</pdfrwt>
<pdfrwt beam="2">  1       21 0.37493243E-01 0.45314080E+03</pdfrwt>
<totfact> 0.69475356E+04</totfact>
</mgrwt>
</event>
<event>
 7    0  0.4779893E-002  0.4396539E+03  0.7546771E-02  0.1030853E+00
         21   -1    0    0  502  501  0.00000000000E+00  0.00000000000E+00  0.25643969596E+03  0.25643969596E+03  0.00000000000E+00 0. -1.
         21   -1    0    0  501  502 -0.00000000000E+00 -0.00000000000E+00 -0.18844153453E+03  0.18844153453E+03  0.00000000000E+00 0. -1.
      99926    2    1    2    0    0  0.00000000000E+00  0.00000000000E+00  0.67998161426E+02  0.44488123049E+03  0.43965390853E+03 0.  0.
      99925    2    3    3    0    0  0.49290487096E+02 -0.30566095743E+02 -0.36459799085E+02  0.27189911597E+03  0.26312729617E+03 0.  0.
         25    1    4    4    0    0 -0.13290120745E+02  0.93920407194E-02 -0.25115222757E+02  0.12827669278E+03  0.12509000000E+03 0.  0.
         25    1    4    4    0    0  0.62580607841E+02 -0.30575487784E+02 -0.11344576328E+02  0.14362242319E+03  0.12509000000E+03 0.  0.
         25    1    3    3    0    0 -0.49290487096E+02  0.30566095743E+02  0.10445796051E+03  0.17298211451E+03  0.12509000000E+03 0.  0.
<mgrwt>
<rscale>  2 0.43965391E+03</rscale>
<asrwt>0</asrwt>
<pdfrwt beam="1">  1       21 0.37711720E-01 0.43965391E+03</pdfrwt>
<pdfrwt beam="2">  1       21 0.27711990E-01 0.43965391E+03</pdfrwt>
<totfact> 0.78468816E+04</totfact>
</mgrwt>
</event>
<event>
 7    0  0.4779893E-002  0.4570595E+03  0.7546771E-02  0.1025637E+00
         21   -1    0    0  502  501  0.00000000000E+00  0.00000000000E+00  0.11227521004E+03  0.11227521004E+03  0.00000000000E+00 0. -1.
         21   -1    0    0  501  502 -0.00000000000E+00 -0.00000000000E+00 -0.46515929674E+03  0.46515929674E+03  0.00000000000E+00 0. -1.
      99926    2    1    2    0    0  0.14210854715E-13  0.00000000000E+00 -0.35288408669E+03  0.57743450678E+03  0.45705954861E+03 0.  0.
      99925    2    3    3    0    0  0.94219327674E+02 -0.46810876607E+02 -0.16262074762E+03  0.32660351553E+03  0.26297492071E+03 0.  0.
         25    1    3    3    0    0 -0.94219327674E+02  0.46810876607E+02 -0.19026333907E+03  0.25083099125E+03  0.12509000000E+03 0.  0.
         25    1    4    4    0    0  0.10726204352E+02 -0.12945280766E+02 -0.96419138268E+02  0.15882943706E+03  0.12509000000E+03 0.  0.
         25    1    4    4    0    0  0.83493123322E+02 -0.33865595841E+02 -0.66201609357E+02  0.16777407847E+03  0.12509000000E+03 0.  0.
<mgrwt>
<rscale>  2 0.45705955E+03</rscale>
<asrwt>0</asrwt>
<pdfrwt beam="1">  1       21 0.16511060E-01 0.45705955E+03</pdfrwt>
<pdfrwt beam="2">  1       21 0.68405779E-01 0.45705955E+03</pdfrwt>
<totfact> 0.59120601E+04</totfact>
</mgrwt>
</event>
<event>
 7    0  0.4779893E-002  0.4501004E+03  0.7546771E-02  0.1027692E+00
         21   -1    0    0  502  501  0.00000000000E+00  0.00000000000E+00  0.17752158196E+03  0.17752158196E+03  0.00000000000E+00 0.  1.
         21   -1    0    0  501  502 -0.00000000000E+00 -0.00000000000E+00 -0.28530380587E+03  0.28530380587E+03  0.00000000000E+00 0.  1.
      99926    2    1    2    0    0  0.12212453271E-14  0.00000000000E+00 -0.10778222391E+03  0.46282538783E+03  0.45010035750E+03 0.  0.
      99925    2    3    3    0    0  0.72517909311E+00  0.19729692144E+02  0.41589241085E+02  0.26699605067E+03  0.26299703318E+03 0.  0.
         25    1    3    3    0    0 -0.72517909311E+00 -0.19729692144E+02 -0.14937146500E+03  0.19582933716E+03  0.12509000000E+03 0.  0.
         25    1    4    4    0    0  0.21582922129E+02 -0.24404284228E+02  0.15242268764E+02  0.13015846678E+03  0.12509000000E+03 0.  0.
         25    1    4    4    0    0 -0.20857743036E+02  0.44133976372E+02  0.26346972320E+02  0.13683758389E+03  0.12509000000E+03 0.  0.
<mgrwt>
<rscale>  2 0.45010036E+03</rscale>
<asrwt>0</asrwt>
<pdfrwt beam="1">  1       21 0.26106115E-01 0.45010036E+03</pdfrwt>
<pdfrwt beam="2">  1       21 0.41956441E-01 0.45010036E+03</pdfrwt>
<totfact> 0.70680561E+04</totfact>
</mgrwt>
</event>
<event>
 7    0  0.4779893E-002  0.4565804E+03  0.7546771E-02  0.1025778E+00
         21   -1    0    0  502  501  0.00000000000E+00  0.00000000000E+00  0.66770559713E+03  0.66770559713E+03  0.00000000000E+00 0.  1.
         21   -1    0    0  501  502 -0.00000000000E+00 -0.00000000000E+00 -0.78052979603E+02  0.78052979603E+02  0.00000000000E+00 0.  1.
      99926    2    1    2    0    0 -0.35527136788E-14  0.00000000000E+00  0.58965261753E+03  0.74575857673E+03  0.45658038221E+03 0.  0.
      99925    2    3    3    0    0 -0.84247416646E+01 -0.17336738356E+02  0.55492810636E+03  0.61451514435E+03  0.26327195185E+03 0.  0.
         25    1    3    3    0    0  0.84247416646E+01  0.17336738356E+02  0.34724511166E+02  0.13124343239E+03  0.12509000000E+03 0.  0.
         25    1    4    4    0    0  0.34701855393E+02 -0.17644752439E+02  0.29768769232E+03  0.32523995190E+03  0.12509000000E+03 0.  0.
         25    1    4    4    0    0 -0.43126597057E+02  0.30801408347E+00  0.25724041404E+03  0.28927519245E+03  0.12509000000E+03 0.  0.
<mgrwt>
<rscale>  2 0.45658038E+03</rscale>
<asrwt>0</asrwt>
<pdfrwt beam="1">  1       21 0.98191997E-01 0.45658038E+03</pdfrwt>
<pdfrwt beam="2">  1       21 0.11478380E-01 0.45658038E+03</pdfrwt>
<totfact> 0.49865628E+04</totfact>
</mgrwt>
</event>
<event>
 7    0  0.4779893E-002  0.4525493E+03  0.7546771E-02  0.1026965E+00
         21   -1    0    0  502  501  0.00000000000E+00  0.00000000000E+00  0.19334017050E+03  0.19334017050E+03  0.00000000000E+00 0.  1.
         21   -1    0    0  501  502 -0.00000000000E+00 -0.00000000000E+00 -0.26481931139E+03  0.26481931139E+03  0.00000000000E+00 0.  1.
      99926    2    1    2    0    0  0.00000000000E+00  0.17763568394E-14 -0.71479140898E+02  0.45815948189E+03  0.45254927164E+03 0.  0.
      99925    2    3    3    0    0 -0.89145289897E+02  0.14003484898E+02  0.20180370559E+02  0.27873831692E+03  0.26295402956E+03 0.  0.
         25    1    4    4    0    0 -0.19235975189E+02 -0.24181559231E+02  0.20293839929E+02  0.13043817918E+03  0.12509000000E+03 0.  0.
         25    1    4    4    0    0 -0.69909314708E+02  0.38185044130E+02 -0.11346936960E+00  0.14830013774E+03  0.12509000000E+03 0.  0.
         25    1    3    3    0    0  0.89145289897E+02 -0.14003484898E+02 -0.91659511457E+02  0.17942116497E+03  0.12509000000E+03 0.  0.
<mgrwt>
<rscale>  2 0.45254927E+03</rscale>
<asrwt>0</asrwt>
<pdfrwt beam="1">  1       21 0.28432378E-01 0.45254927E+03</pdfrwt>
<pdfrwt beam="2">  1       21 0.38944016E-01 0.45254927E+03</pdfrwt>
<totfact> 0.69666485E+04</totfact>
</mgrwt>
</event>
<event>
 7    0  0.4779893E-002  0.4539015E+03  0.7546771E-02  0.1026565E+00
         21   -1    0    0  502  501  0.00000000000E+00  0.00000000000E+00  0.58916012463E+03  0.58916012463E+03  0.00000000000E+00 0.  1.
         21   -1    0    0  501  502 -0.00000000000E+00 -0.00000000000E+00 -0.87423852602E+02  0.87423852602E+02  0.00000000000E+00 0.  1.
      99926    2    1    2    0    0  0.00000000000E+00  0.00000000000E+00  0.50173627203E+03  0.67658397723E+03  0.45390152189E+03 0.  0.
      99925    2    3    3    0    0 -0.69335059741E+02  0.51866226196E+02  0.42226384499E+03  0.50494240101E+03  0.26298786592E+03 0.  0.
         25    1    3    3    0    0  0.69335059741E+02 -0.51866226196E+02  0.79472427036E+02  0.17164157622E+03  0.12509000000E+03 0.  0.
         25    1    4    4    0    0 -0.15121325687E+02  0.10211494886E+02  0.13937010408E+03  0.18816073748E+03  0.12509000000E+03 0.  0.
         25    1    4    4    0    0 -0.54213734055E+02  0.41654731310E+02  0.28289374091E+03  0.31678166353E+03  0.12509000000E+03 0.  0.
<mgrwt>
<rscale>  2 0.45390152E+03</rscale>
<asrwt>0</asrwt>
<pdfrwt beam="1">  1       21 0.86641193E-01 0.45390152E+03</pdfrwt>
<pdfrwt beam="2">  1       21 0.12856449E-01 0.45390152E+03</pdfrwt>
<totfact> 0.54664767E+04</totfact>
</mgrwt>
</event>
<event>
 7    0  0.4779893E-002  0.4519955E+03  0.7546771E-02  0.1027129E+00
         21   -1    0    0  502  501  0.00000000000E+00  0.00000000000E+00  0.90833566192E+02  0.90833566192E+02  0.00000000000E+00 0. -1.
         21   -1    0    0  501  502 -0.00000000000E+00 -0.00000000000E+00 -0.56229203778E+03  0.56229203778E+03  0.00000000000E+00 0. -1.
      99926    2    1    2    0    0  0.00000000000E+00  0.17763568394E-14 -0.47145847159E+03  0.65312560397E+03  0.45199553552E+03 0.  0.
      99925    2    3    3    0    0 -0.97632569697E+02  0.13920299089E+02 -0.22781257708E+03  0.36202987504E+03  0.26351691929E+03 0.  0.
         25    1    4    4    0    0 -0.22447015178E+02 -0.22096647745E+02 -0.83602897578E+02  0.15371754264E+03  0.12509000000E+03 0.  0.
         25    1    4    4    0    0 -0.75185554519E+02  0.36016946834E+02 -0.14420967951E+03  0.20831233240E+03  0.12509000000E+03 0.  0.
         25    1    3    3    0    0  0.97632569697E+02 -0.13920299089E+02 -0.24364589450E+03  0.29109572893E+03  0.12509000000E+03 0.  0.
<mgrwt>
<rscale>  2 0.45199554E+03</rscale>
<asrwt>0</asrwt>
<pdfrwt beam="1">  1       21 0.13357878E-01 0.45199554E+03</pdfrwt>
<pdfrwt beam="2">  1       21 0.82690002E-01 0.45199554E+03</pdfrwt>
<totfact> 0.56857315E+04</totfact>
</mgrwt>
</event>
<event>
 7    0  0.4779893E-002  0.4554760E+03  0.7546771E-02  0.1026102E+00
         21   -1    0    0  502  501  0.00000000000E+00  0.00000000000E+00  0.88682835305E+02  0.88682835305E+02  0.00000000000E+00 0.  1.
         21   -1    0    0  501  502 -0.00000000000E+00 -0.00000000000E+00 -0.58483242048E+03  0.58483242048E+03  0.00000000000E+00 0.  1.
      99926    2    1    2    0    0  0.00000000000E+00  0.00000000000E+00 -0.49614958518E+03  0.67351525579E+03  0.45547600256E+03 0.  0.
      99925    2    3    3    0    0 -0.41602638797E+02 -0.66191113007E+02 -0.43416891208E+03  0.51351164666E+03  0.26282983857E+03 0.  0.
         25    1    3    3    0    0  0.41602638797E+02  0.66191113007E+02 -0.61980673093E+02  0.16000360913E+03  0.12509000000E+03 0.  0.
         25    1    4    4    0    0 -0.25185015615E+02 -0.74268609604E+02 -0.22542064949E+03  0.26946630346E+03  0.12509000000E+03 0.  0.
         25    1    4    4    0    0 -0.16417623183E+02  0.80774965967E+01 -0.20874826259E+03  0.24404534320E+03  0.12509000000E+03 0.  0.
<mgrwt>
<rscale>  2 0.45547600E+03</rscale>
<asrwt>0</asrwt>
<pdfrwt beam="1">  1       21 0.13041593E-01 0.45547600E+03</pdfrwt>
<pdfrwt beam="2">  1       21 0.86004768E-01 0.45547600E+03</pdfrwt>
<totfact> 0.54161435E+04</totfact>
</mgrwt>
</event>
<event>
 7    0  0.4779893E-002  0.4556071E+03  0.7546771E-02  0.1026063E+00
         21   -1    0    0  502  501  0.00000000000E+00  0.00000000000E+00  0.36498695261E+03  0.36498695261E+03  0.00000000000E+00 0.  1.
         21   -1    0    0  501  502 -0.00000000000E+00 -0.00000000000E+00 -0.14218164920E+03  0.14218164920E+03  0.00000000000E+00 0.  1.
      99926    2    1    2    0    0  0.00000000000E+00  0.14210854715E-13  0.22280530341E+03  0.50716860182E+03  0.45560705377E+03 0.  0.
      99925    2    3    3    0    0  0.51222220975E+02  0.10008080328E+03  0.15950279703E+03  0.32746162221E+03  0.26296404441E+03 0.  0.
         25    1    3    3    0    0 -0.51222220975E+02 -0.10008080328E+03  0.63302506379E+02  0.17970697961E+03  0.12509000000E+03 0.  0.
         25    1    4    4    0    0  0.49507515553E+02  0.65748153621E+02  0.50515202964E+02  0.15802881899E+03  0.12509000000E+03 0.  0.
         25    1    4    4    0    0  0.17147054225E+01  0.34332649654E+02  0.10898759407E+03  0.16943280322E+03  0.12509000000E+03 0.  0.
<mgrwt>
<rscale>  2 0.45560705E+03</rscale>
<asrwt>0</asrwt>
<pdfrwt beam="1">  1       21 0.53674552E-01 0.45560705E+03</pdfrwt>
<pdfrwt beam="2">  1       21 0.20909066E-01 0.45560705E+03</pdfrwt>
<totfact> 0.64458790E+04</totfact>
</mgrwt>
</event>
<event>
 7    0  0.4779893E-002  0.4568541E+03  0.7546771E-02  0.1025698E+00
         21   -1    0    0  502  501  0.00000000000E+00  0.00000000000E+00  0.19260069764E+03  0.19260069764E+03  0.00000000000E+00 0. -1.
         21   -1    0    0  501  502 -0.00000000000E+00 -0.00000000000E+00 -0.27091754720E+03  0.27091754720E+03  0.00000000000E+00 0. -1.
      99926    2    1    2    0    0  0.00000000000E+00  0.00000000000E+00 -0.78316849562E+02  0.46351824484E+03  0.45685406244E+03 0.  0.
      99925    2    3    3    0    0 -0.91679144199E+02 -0.65236236663E+02 -0.69657546632E+02  0.29504473451E+03  0.26370132632E+03 0.  0.
         25    1    4    4    0    0 -0.59344046726E+02 -0.43238628651E+01 -0.62658594467E+02  0.15203295443E+03  0.12509000000E+03 0.  0.
         25    1    4    4    0    0 -0.32335097473E+02 -0.60912373798E+02 -0.69989521648E+01  0.14301178008E+03  0.12509000000E+03 0.  0.
         25    1    3    3    0    0  0.91679144199E+02  0.65236236663E+02 -0.86593029304E+01  0.16847351033E+03  0.12509000000E+03 0.  0.
<mgrwt>
<rscale>  2 0.45685406E+03</rscale>
<asrwt>0</asrwt>
<pdfrwt beam="1">  1       21 0.28323632E-01 0.45685406E+03</pdfrwt>
<pdfrwt beam="2">  1       21 0.39840816E-01 0.45685406E+03</pdfrwt>
<totfact> 0.66928346E+04</totfact>
</mgrwt>
</event>
<event>
 7    0  0.4779893E-002  0.4375311E+03  0.7546771E-02  0.1031507E+00
         21   -1    0    0  502  501  0.00000000000E+00  0.00000000000E+00  0.40070231093E+03  0.40070231093E+03  0.00000000000E+00 0. -1.
         21   -1    0    0  501  502 -0.00000000000E+00 -0.00000000000E+00 -0.11943618818E+03  0.11943618818E+03  0.00000000000E+00 0. -1.
      99926    2    1    2    0    0 -0.71054273576E-14 -0.71054273576E-14  0.28126612275E+03  0.52013849911E+03  0.43753105770E+03 0.  0.
      99925    2    3    3    0    0  0.45818959450E+02  0.63764441535E+02  0.11428541386E+03  0.29721396863E+03  0.26288725013E+03 0.  0.
         25    1    4    4    0    0  0.10836612625E+02  0.11594296821E+01  0.80391618525E+02  0.14909425502E+03  0.12509000000E+03 0.  0.
         25    1    4    4    0    0  0.34982346825E+02  0.62605011853E+02  0.33893795334E+02  0.14811971361E+03  0.12509000000E+03 0.  0.
         25    1    3    3    0    0 -0.45818959450E+02 -0.63764441535E+02  0.16698070889E+03  0.22292453048E+03  0.12509000000E+03 0.  0.
<mgrwt>
<rscale>  2 0.43753106E+03</rscale>
<asrwt>0</asrwt>
<pdfrwt beam="1">  1       21 0.58926810E-01 0.43753106E+03</pdfrwt>
<pdfrwt beam="2">  1       21 0.17564145E-01 0.43753106E+03</pdfrwt>
<totfact> 0.73539962E+04</totfact>
</mgrwt>
</event>
<event>
 7    0  0.4779893E-002  0.4562528E+03  0.7546771E-02  0.1025874E+00
         21   -1    0    0  502  501  0.00000000000E+00  0.00000000000E+00  0.32553392251E+03  0.32553392251E+03  0.00000000000E+00 0. -1.
         21   -1    0    0  501  502 -0.00000000000E+00 -0.00000000000E+00 -0.15986552241E+03  0.15986552241E+03  0.00000000000E+00 0. -1.
      99926    2    1    2    0    0  0.00000000000E+00  0.00000000000E+00  0.16566840010E+03  0.48539944492E+03  0.45625278337E+03 0.  0.
      99925    2    3    3    0    0  0.65037375694E+02 -0.25316306867E+02  0.78112729913E+01  0.27223951362E+03  0.26302578041E+03 0.  0.
         25    1    3    3    0    0 -0.65037375694E+02  0.25316306867E+02  0.15785712711E+03  0.21315993129E+03  0.12509000000E+03 0.  0.
         25    1    4    4    0    0  0.44232662180E+02 -0.11234567190E+02 -0.34969713312E+02  0.13767037754E+03  0.12509000000E+03 0.  0.
         25    1    4    4    0    0  0.20804713514E+02 -0.14081739677E+02  0.42780986303E+02  0.13456913608E+03  0.12509000000E+03 0.  0.
<mgrwt>
<rscale>  2 0.45625278E+03</rscale>
<asrwt>0</asrwt>
<pdfrwt beam="1">  1       21 0.47872636E-01 0.45625278E+03</pdfrwt>
<pdfrwt beam="2">  1       21 0.23509636E-01 0.45625278E+03</pdfrwt>
<totfact> 0.65653756E+04</totfact>
</mgrwt>
</event>
<event>
 7    0  0.4779893E-002  0.4594684E+03  0.7546771E-02  0.1024935E+00
         21   -1    0    0  502  501  0.00000000000E+00  0.00000000000E+00  0.18923167341E+03  0.18923167341E+03  0.00000000000E+00 0.  1.
         21   -1    0    0  501  502 -0.00000000000E+00 -0.00000000000E+00 -0.27890580768E+03  0.27890580768E+03  0.00000000000E+00 0.  1.
      99926    2    1    2    0    0  0.00000000000E+00  0.00000000000E+00 -0.89674134272E+02  0.46813748110E+03  0.45946844380E+03 0.  0.
      99925    2    3    3    0    0  0.51267655413E+02  0.10652260286E+02 -0.16318601721E+03  0.31388655509E+03  0.26297005554E+03 0.  0.
         25    1    3    3    0    0 -0.51267655413E+02 -0.10652260286E+02  0.73511882940E+02  0.15425092601E+03  0.12509000000E+03 0.  0.
         25    1    4    4    0    0  0.46497864222E+02 -0.98455718789E+00 -0.12407508510E+03  0.18222281847E+03  0.12509000000E+03 0.  0.
         25    1    4    4    0    0  0.47697911904E+01  0.11636817474E+02 -0.39110932114E+02  0.13166373662E+03  0.12509000000E+03 0.  0.
<mgrwt>
<rscale>  2 0.45946844E+03</rscale>
<asrwt>0</asrwt>
<pdfrwt beam="1">  1       21 0.27828187E-01 0.45946844E+03</pdfrwt>
<pdfrwt beam="2">  1       21 0.41015560E-01 0.45946844E+03</pdfrwt>
<totfact> 0.65229957E+04</totfact>
</mgrwt>
</event>
<event>
 7    0  0.4779893E-002  0.4649090E+03  0.7546771E-02  0.1023367E+00
         21   -1    0    0  502  501  0.00000000000E+00  0.00000000000E+00  0.56219261827E+03  0.56219261827E+03  0.00000000000E+00 0.  1.
         21   -1    0    0  501  502 -0.00000000000E+00 -0.00000000000E+00 -0.96114932335E+02  0.96114932335E+02  0.00000000000E+00 0.  1.
      99926    2    1    2    0    0  0.00000000000E+00  0.00000000000E+00  0.46607768593E+03  0.65830755061E+03  0.46490904687E+03 0.  0.
      99925    2    3    3    0    0  0.12076213257E+03 -0.12808096944E+02  0.26993185977E+03  0.39587997349E+03  0.26288819768E+03 0.  0.
         25    1    3    3    0    0 -0.12076213257E+03  0.12808096944E+02  0.19614582617E+03  0.26242757712E+03  0.12509000000E+03 0.  0.
         25    1    4    4    0    0  0.70910687219E+02 -0.15855226311E+02  0.19155866062E+03  0.24004570882E+03  0.12509000000E+03 0.  0.
         25    1    4    4    0    0  0.49851445349E+02  0.30471293675E+01  0.78373199150E+02  0.15583426467E+03  0.12509000000E+03 0.  0.
<mgrwt>
<rscale>  2 0.46490905E+03</rscale>
<asrwt>0</asrwt>
<pdfrwt beam="1">  1       21 0.82675383E-01 0.46490905E+03</pdfrwt>
<pdfrwt beam="2">  1       21 0.14134549E-01 0.46490905E+03</pdfrwt>
<totfact> 0.51111953E+04</totfact>
</mgrwt>
</event>
<event>
 7    0  0.4779893E-002  0.4554872E+03  0.7546771E-02  0.1026098E+00
         21   -1    0    0  502  501  0.00000000000E+00  0.00000000000E+00  0.35034921186E+03  0.35034921186E+03  0.00000000000E+00 0.  1.
         21   -1    0    0  501  502 -0.00000000000E+00 -0.00000000000E+00 -0.14804417084E+03  0.14804417084E+03  0.00000000000E+00 0.  1.
      99926    2    1    2    0    0  0.00000000000E+00  0.14210854715E-13  0.20230504102E+03  0.49839338271E+03  0.45548724933E+03 0.  0.
      99925    2    3    3    0    0 -0.21828830667E+01 -0.11293292194E+03  0.11466134849E+03  0.30842618876E+03  0.26309861125E+03 0.  0.
         25    1    3    3    0    0  0.21828830667E+01  0.11293292194E+03  0.87643692532E+02  0.18996719395E+03  0.12509000000E+03 0.  0.
         25    1    4    4    0    0 -0.80005805102E+01 -0.14982465366E+02  0.64212991463E+02  0.14163085797E+03  0.12509000000E+03 0.  0.
         25    1    4    4    0    0  0.58176974434E+01 -0.97950456571E+02  0.50448357025E+02  0.16679533079E+03  0.12509000000E+03 0.  0.
<mgrwt>
<rscale>  2 0.45548725E+03</rscale>
<asrwt>0</asrwt>
<pdfrwt beam="1">  1       21 0.51521943E-01 0.45548725E+03</pdfrwt>
<pdfrwt beam="2">  1       21 0.21771202E-01 0.45548725E+03</pdfrwt>
<totfact> 0.65131389E+04</totfact>
</mgrwt>
</event>
<event>
 7    0  0.4779893E-002  0.4551364E+03  0.7546771E-02  0.1026201E+00
         21   -1    0    0  502  501  0.00000000000E+00  0.00000000000E+00  0.86154960639E+02  0.86154960639E+02  0.00000000000E+00 0. -1.
         21   -1    0    0  501  502 -0.00000000000E+00 -0.00000000000E+00 -0.60109459996E+03  0.60109459996E+03  0.00000000000E+00 0. -1.
      99926    2    1    2    0    0 -0.14210854715E-13  0.00000000000E+00 -0.51493963932E+03  0.68724956060E+03  0.45513638220E+03 0.  0.
      99925    2    3    3    0    0 -0.10898490909E+03 -0.30826479599E+02 -0.32797033844E+03  0.43539045350E+03  0.26300631523E+03 0.  0.
         25    1    3    3    0    0  0.10898490909E+03  0.30826479599E+02 -0.18696930089E+03  0.25185910710E+03  0.12509000000E+03 0.  0.
         25    1    4    4    0    0 -0.17510755033E+02 -0.29369415421E+02 -0.12597118592E+03  0.18079114162E+03  0.12509000000E+03 0.  0.
         25    1    4    4    0    0 -0.91474154060E+02 -0.14570641776E+01 -0.20199915251E+03  0.25459931189E+03  0.12509000000E+03 0.  0.
<mgrwt>
<rscale>  2 0.45513638E+03</rscale>
<asrwt>0</asrwt>
<pdfrwt beam="1">  1       21 0.12669847E-01 0.45513638E+03</pdfrwt>
<pdfrwt beam="2">  1       21 0.88396268E-01 0.45513638E+03</pdfrwt>
<totfact> 0.53543360E+04</totfact>
</mgrwt>
</event>
<event>
 6    0  0.4779893E-002  0.4606130E+03  0.7546771E-02  0.1024604E+00
         21   -1    0    0  502  501  0.00000000000E+00  0.00000000000E+00  0.40147889976E+03  0.40147889976E+03  0.00000000000E+00 0.  1.
         21   -1    0    0  501  502 -0.00000000000E+00 -0.00000000000E+00 -0.13211426758E+03  0.13211426758E+03  0.00000000000E+00 0.  1.
      99926    2    1    2    0    0  0.00000000000E+00  0.00000000000E+00  0.26936463218E+03  0.53359316733E+03  0.46061302973E+03 0.  0.
         25    1    3    3    0    0  0.27518899042E+02 -0.52682033206E+02  0.56056712956E+02  0.14940732778E+03  0.12509000000E+03 0.  0.
         25    1    3    3    0    0 -0.53451160452E+02 -0.20154590424E+02  0.16494944243E+02  0.13850207708E+03  0.12509000000E+03 0.  0.
         25    1    3    3    0    0  0.25932261410E+02  0.72836623630E+02  0.19681297498E+03  0.24568376248E+03  0.12509000000E+03 0.  0.
<mgrwt>
<rscale>  2 0.46061303E+03</rscale>
<asrwt>0</asrwt>
<pdfrwt beam="1">  1       21 0.59041015E-01 0.46061303E+03</pdfrwt>
<pdfrwt beam="2">  1       21 0.19428569E-01 0.46061303E+03</pdfrwt>
<totfact> 0.60239046E+04</totfact>
</mgrwt>
</event>
<event>
 6    0  0.4779893E-002  0.4542087E+03  0.7546771E-02  0.1026474E+00
         21   -1    0    0  502  501  0.00000000000E+00  0.00000000000E+00  0.62065528812E+03  0.62065528812E+03  0.00000000000E+00 0. -1.
         21   -1    0    0  501  502 -0.00000000000E+00 -0.00000000000E+00 -0.83099900324E+02  0.83099900324E+02  0.00000000000E+00 0. -1.
      99926    2    1    2    0    0  0.00000000000E+00  0.14210854715E-13  0.53755538779E+03  0.70375518844E+03  0.45420872990E+03 0.  0.
         25    1    3    3    0    0 -0.57129335662E+02 -0.82652936543E+02  0.11531305059E+03  0.19758511242E+03  0.12509000000E+03 0.  0.
         25    1    3    3    0    0  0.38965272924E+02  0.18182885216E+02  0.25150626282E+03  0.28416864385E+03  0.12509000000E+03 0.  0.
         25    1    3    3    0    0  0.18164062738E+02  0.64470051327E+02  0.17073607438E+03  0.22200143218E+03  0.12509000000E+03 0.  0.
<mgrwt>
<rscale>  2 0.45420873E+03</rscale>
<asrwt>0</asrwt>
<pdfrwt beam="1">  1       21 0.91272834E-01 0.45420873E+03</pdfrwt>
<pdfrwt beam="2">  1       21 0.12220574E-01 0.45420873E+03</pdfrwt>
<totfact> 0.53028959E+04</totfact>
</mgrwt>
</event>
<event>
 7    0  0.4779893E-002  0.4527710E+03  0.7546771E-02  0.1026899E+00
         21   -1    0    0  502  501  0.00000000000E+00  0.00000000000E+00  0.96131510968E+03  0.96131510968E+03  0.00000000000E+00 0. -1.
         21   -1    0    0  501  502 -0.00000000000E+00 -0.00000000000E+00 -0.53312789992E+02  0.53312789992E+02  0.00000000000E+00 0. -1.
      99926    2    1    2    0    0  0.00000000000E+00  0.00000000000E+00  0.90800231968E+03  0.10146278997E+04  0.45277098210E+03 0.  0.
      99925    2    3    3    0    0 -0.10629357568E+03  0.16477811621E+02  0.51007902098E+03  0.58386079060E+03  0.26295051368E+03 0.  0.
         25    1    3    3    0    0  0.10629357568E+03 -0.16477811621E+02  0.39792329870E+03  0.43076710907E+03  0.12509000000E+03 0.  0.
         25    1    4    4    0    0 -0.62872239872E+02 -0.23347785884E+02  0.30644490911E+03  0.33771885951E+03  0.12509000000E+03 0.  0.
         25    1    4    4    0    0 -0.43421335808E+02  0.39825597505E+02  0.20363411188E+03  0.24614193109E+03  0.12509000000E+03 0.  0.
<mgrwt>
<rscale>  2 0.45277098E+03</rscale>
<asrwt>0</asrwt>
<pdfrwt beam="1">  1       21 0.14136986E+00 0.45277098E+03</pdfrwt>
<pdfrwt beam="2">  1       21 0.78401168E-02 0.45277098E+03</pdfrwt>
<totfact> 0.39281850E+04</totfact>
</mgrwt>
</event>
<event>
 7    0  0.4779893E-002  0.4540563E+03  0.7546771E-02  0.1026519E+00
         21   -1    0    0  502  501  0.00000000000E+00  0.00000000000E+00  0.16449915009E+03  0.16449915009E+03  0.00000000000E+00 0.  1.
         21   -1    0    0  501  502 -0.00000000000E+00 -0.00000000000E+00 -0.31332553227E+03  0.31332553227E+03  0.00000000000E+00 0.  1.
      99926    2    1    2    0    0  0.00000000000E+00 -0.71054273576E-14 -0.14882638219E+03  0.47782468236E+03  0.45405631263E+03 0.  0.
      99925    2    3    3    0    0 -0.97546911274E+02  0.54998031430E+02 -0.89174485965E+02  0.29965049741E+03  0.26324541457E+03 0.  0.
         25    1    4    4    0    0 -0.19391116687E+02  0.40576458236E+02 -0.69941382972E+02  0.15020575728E+03  0.12509000000E+03 0.  0.
         25    1    4    4    0    0 -0.78155794587E+02  0.14421573194E+02 -0.19233102993E+02  0.14944474013E+03  0.12509000000E+03 0.  0.
         25    1    3    3    0    0  0.97546911274E+02 -0.54998031430E+02 -0.59651896221E+02  0.17817418495E+03  0.12509000000E+03 0.  0.
<mgrwt>
<rscale>  2 0.45405631E+03</rscale>
<asrwt>0</asrwt>
<pdfrwt beam="1">  1       21 0.24191052E-01 0.45405631E+03</pdfrwt>
<pdfrwt beam="2">  1       21 0.46077284E-01 0.45405631E+03</pdfrwt>
<totfact> 0.67361917E+04</totfact>
</mgrwt>
</event>
<event>
 7    0  0.4779893E-002  0.4079871E+03  0.7546771E-02  0.1041049E+00
         21   -1    0    0  502  501  0.00000000000E+00  0.00000000000E+00  0.77098563509E+02  0.77098563509E+02  0.00000000000E+00 0. -1.
         21   -1    0    0  501  502 -0.00000000000E+00 -0.00000000000E+00 -0.53974245848E+03  0.53974245848E+03  0.00000000000E+00 0. -1.
      99926    2    1    2    0    0  0.00000000000E+00 -0.35527136788E-14 -0.46264389497E+03  0.61684102199E+03  0.40798709888E+03 0.  0.
      99925    2    3    3    0    0 -0.52940037998E+02 -0.19126606918E+02 -0.33225967313E+03  0.42758979182E+03  0.26318826905E+03 0.  0.
         25    1    4    4    0    0 -0.11785551092E+01 -0.40452640429E+02 -0.17720928072E+03  0.22065457707E+03  0.12509000000E+03 0.  0.
         25    1    3    3    0    0  0.52940037998E+02  0.19126606918E+02 -0.13038422184E+03  0.18925123017E+03  0.12509000000E+03 0.  0.
         25    1    4    4    0    0 -0.51761482889E+02  0.21326033511E+02 -0.15505039241E+03  0.20693521475E+03  0.12509000000E+03 0.  0.
<mgrwt>
<rscale>  2 0.40798710E+03</rscale>
<asrwt>0</asrwt>
<pdfrwt beam="1">  1       21 0.11338024E-01 0.40798710E+03</pdfrwt>
<pdfrwt beam="2">  1       21 0.79373891E-01 0.40798710E+03</pdfrwt>
<totfact> 0.85101297E+04</totfact>
</mgrwt>
</event>
<event>
 7    0  0.4779893E-002  0.4505206E+03  0.7546771E-02  0.1027567E+00
         21   -1    0    0  502  501  0.00000000000E+00  0.00000000000E+00  0.36325897613E+02  0.36325897613E+02  0.00000000000E+00 0. -1.
         21   -1    0    0  501  502 -0.00000000000E+00 -0.00000000000E+00 -0.13968603525E+04  0.13968603525E+04  0.00000000000E+00 0. -1.
      99926    2    1    2    0    0  0.00000000000E+00  0.35527136788E-14 -0.13605344549E+04  0.14331862501E+04  0.45052061504E+03 0.  0.
      99925    2    3    3    0    0  0.50613449457E+02  0.26150438893E+02 -0.11549101517E+04  0.11858516005E+04  0.26302279991E+03 0.  0.
         25    1    3    3    0    0 -0.50613449457E+02 -0.26150438893E+02 -0.20562430318E+03  0.24733464957E+03  0.12509000000E+03 0.  0.
         25    1    4    4    0    0  0.60840853597E+02 -0.14311549134E+01 -0.53739057815E+03  0.55510341311E+03  0.12509000000E+03 0.  0.
         25    1    4    4    0    0 -0.10227404140E+02  0.27581593807E+02 -0.61751957356E+03  0.63074818743E+03  0.12509000000E+03 0.  0.
<mgrwt>
<rscale>  2 0.45052062E+03</rscale>
<asrwt>0</asrwt>
<pdfrwt beam="1">  1       21 0.53420440E-02 0.45052062E+03</pdfrwt>
<pdfrwt beam="2">  1       21 0.20542063E+00 0.45052062E+03</pdfrwt>
<totfact> 0.26366771E+04</totfact>
</mgrwt>
</event>
<event>
 7    0  0.4779893E-002  0.4520709E+03  0.7546771E-02  0.1027106E+00
         21   -1    0    0  502  501  0.00000000000E+00  0.00000000000E+00  0.87627840698E+03  0.87627840698E+03  0.00000000000E+00 0. -1.
         21   -1    0    0  501  502 -0.00000000000E+00 -0.00000000000E+00 -0.58305706894E+02  0.58305706894E+02  0.00000000000E+00 0. -1.
      99926    2    1    2    0    0  0.71054273576E-14 -0.14210854715E-13  0.81797270008E+03  0.93458411387E+03  0.45207093229E+03 0.  0.
      99925    2    3    3    0    0 -0.36774644156E+02  0.97237698242E+02  0.59264952735E+03  0.65668919725E+03  0.26305834924E+03 0.  0.
         25    1    4    4    0    0 -0.22784343010E+02  0.61878268419E+02  0.39649654281E+03  0.42095731725E+03  0.12509000000E+03 0.  0.
         25    1    3    3    0    0  0.36774644156E+02 -0.97237698242E+02  0.22532317273E+03  0.27789491662E+03  0.12509000000E+03 0.  0.
         25    1    4    4    0    0 -0.13990301146E+02  0.35359429823E+02  0.19615298454E+03  0.23573188000E+03  0.12509000000E+03 0.  0.
<mgrwt>
<rscale>  2 0.45207093E+03</rscale>
<asrwt>0</asrwt>
<pdfrwt beam="1">  1       21 0.12886446E+00 0.45207093E+03</pdfrwt>
<pdfrwt beam="2">  1       21 0.85743692E-02 0.45207093E+03</pdfrwt>
<totfact> 0.42742223E+04</totfact>
</mgrwt>
</event>
<event>
 7    0  0.4779893E-002  0.4534363E+03  0.7546771E-02  0.1026702E+00
         21   -1    0    0  502  501  0.00000000000E+00  0.00000000000E+00  0.91909814770E+03  0.91909814770E+03  0.00000000000E+00 0.  1.
         21   -1    0    0  501  502 -0.00000000000E+00 -0.00000000000E+00 -0.55925594265E+02  0.55925594265E+02  0.00000000000E+00 0.  1.
      99926    2    1    2    0    0  0.00000000000E+00  0.00000000000E+00  0.86317255344E+03  0.97502374197E+03  0.45343625836E+03 0.  0.
      99925    2    3    3    0    0 -0.80253705669E+02  0.38390446689E+02  0.39847412289E+03  0.48562960314E+03  0.26294486334E+03 0.  0.
         25    1    4    4    0    0 -0.67064743995E+02  0.29518236342E+02  0.16026844741E+03  0.21610758779E+03  0.12509000000E+03 0.  0.
         25    1    3    3    0    0  0.80253705669E+02 -0.38390446689E+02  0.46469843054E+03  0.48939413883E+03  0.12509000000E+03 0.  0.
         25    1    4    4    0    0 -0.13188961674E+02  0.88722103467E+01  0.23820567548E+03  0.26952201535E+03  0.12509000000E+03 0.  0.
<mgrwt>
<rscale>  2 0.45343626E+03</rscale>
<asrwt>0</asrwt>
<pdfrwt beam="1">  1       21 0.13516148E+00 0.45343626E+03</pdfrwt>
<pdfrwt beam="2">  1       21 0.82243526E-02 0.45343626E+03</pdfrwt>
<totfact> 0.40638266E+04</totfact>
</mgrwt>
</event>
<event>
 7    0  0.4779893E-002  0.4620189E+03  0.7546771E-02  0.1024197E+00
         21   -1    0    0  502  501  0.00000000000E+00  0.00000000000E+00  0.31241879067E+04  0.31241879067E+04  0.00000000000E+00 0. -1.
         21   -1    0    0  501  502 -0.00000000000E+00 -0.00000000000E+00 -0.17081353398E+02  0.17081353398E+02  0.00000000000E+00 0. -1.
      99926    2    1    2    0    0  0.00000000000E+00  0.00000000000E+00  0.31071065533E+04  0.31412692601E+04  0.46201886419E+03 0.  0.
      99925    2    3    3    0    0  0.10579786777E+03  0.54385595608E+02  0.20279789869E+04  0.20484221553E+04  0.26302770408E+03 0.  0.
         25    1    4    4    0    0  0.42504912636E+02  0.24213213584E+01  0.11786749257E+04  0.11860584382E+04  0.12509000000E+03 0.  0.
         25    1    3    3    0    0 -0.10579786777E+03 -0.54385595608E+02  0.10791275664E+04  0.10928471048E+04  0.12509000000E+03 0.  0.
         25    1    4    4    0    0  0.63292955130E+02  0.51964274250E+02  0.84930406123E+03  0.86236371705E+03  0.12509000000E+03 0.  0.
<mgrwt>
<rscale>  2 0.46201886E+03</rscale>
<asrwt>0</asrwt>
<pdfrwt beam="1">  1       21 0.45943900E+00 0.46201886E+03</pdfrwt>
<pdfrwt beam="2">  1       21 0.25119659E-02 0.46201886E+03</pdfrwt>
<totfact> 0.24012127E+03</totfact>
</mgrwt>
</event>
<event>
 7    0  0.4779893E-002  0.4617388E+03  0.7546771E-02  0.1024278E+00
         21   -1    0    0  502  501  0.00000000000E+00  0.00000000000E+00  0.12915371888E+04  0.12915371888E+04  0.00000000000E+00 0.  1.
         21   -1    0    0  501  502 -0.00000000000E+00 -0.00000000000E+00 -0.41269187444E+02  0.41269187444E+02  0.00000000000E+00 0.  1.
      99926    2    1    2    0    0 -0.34694469520E-15  0.00000000000E+00  0.12502680014E+04  0.13328063763E+04  0.46173884540E+03 0.  0.
      99925    2    3    3    0    0 -0.82300617442E-01 -0.99850868436E+01  0.11254614427E+04  0.11558208008E+04  0.26298014340E+03 0.  0.
         25    1    3    3    0    0  0.82300617442E-01  0.99850868436E+01  0.12480655865E+03  0.17698557544E+03  0.12509000000E+03 0.  0.
         25    1    4    4    0    0  0.17765995861E+02 -0.40852739787E+02  0.54043140312E+03  0.55650533379E+03  0.12509000000E+03 0.  0.
         25    1    4    4    0    0 -0.17848296478E+02  0.30867652943E+02  0.58503003962E+03  0.59931546705E+03  0.12509000000E+03 0.  0.
<mgrwt>
<rscale>  2 0.46173885E+03</rscale>
<asrwt>0</asrwt>
<pdfrwt beam="1">  1       21 0.18993191E+00 0.46173885E+03</pdfrwt>
<pdfrwt beam="2">  1       21 0.60689990E-02 0.46173885E+03</pdfrwt>
<totfact> 0.26747485E+04</totfact>
</mgrwt>
</event>
<event>
 7    0  0.4779893E-002  0.4644179E+03  0.7546771E-02  0.1023508E+00
         21   -1    0    0  502  501  0.00000000000E+00  0.00000000000E+00  0.21700623878E+03  0.21700623878E+03  0.00000000000E+00 0.  1.
         21   -1    0    0  501  502 -0.00000000000E+00 -0.00000000000E+00 -0.24847673767E+03  0.24847673767E+03  0.00000000000E+00 0.  1.
      99926    2    1    2    0    0  0.00000000000E+00 -0.13322676296E-14 -0.31470498889E+02  0.46548297644E+03  0.46441792500E+03 0.  0.
      99925    2    3    3    0    0 -0.12121472238E+03  0.10274036320E+01 -0.80709839715E+01  0.28972999673E+03  0.26302902072E+03 0.  0.
         25    1    3    3    0    0  0.12121472238E+03 -0.10274036320E+01 -0.23399514918E+02  0.17575297971E+03  0.12509000000E+03 0.  0.
         25    1    4    4    0    0 -0.84212577568E+02 -0.33534767361E+02 -0.95332587357E+01  0.15477315647E+03  0.12509000000E+03 0.  0.
         25    1    4    4    0    0 -0.37002144813E+02  0.34562170993E+02  0.14622747642E+01  0.13495684026E+03  0.12509000000E+03 0.  0.
<mgrwt>
<rscale>  2 0.46441792E+03</rscale>
<asrwt>0</asrwt>
<pdfrwt beam="1">  1       21 0.31912682E-01 0.46441792E+03</pdfrwt>
<pdfrwt beam="2">  1       21 0.36540697E-01 0.46441792E+03</pdfrwt>
<totfact> 0.62921809E+04</totfact>
</mgrwt>
</event>
<event>
 7    0  0.4779893E-002  0.4818095E+03  0.7546771E-02  0.1018639E+00
         21   -1    0    0  502  501  0.00000000000E+00  0.00000000000E+00  0.80518570750E+03  0.80518570750E+03  0.00000000000E+00 0. -1.
         21   -1    0    0  501  502 -0.00000000000E+00 -0.00000000000E+00 -0.72076649709E+02  0.72076649709E+02  0.00000000000E+00 0. -1.
      99926    2    1    2    0    0  0.00000000000E+00  0.00000000000E+00  0.73310905780E+03  0.87726235721E+03  0.48180945690E+03 0.  0.
      99925    2    3    3    0    0 -0.75698340112E+02  0.10952741863E+03  0.50783408128E+03  0.58722301976E+03  0.26307589532E+03 0.  0.
         25    1    4    4    0    0 -0.30282435212E+02  0.56614885568E+02  0.33131074314E+03  0.35991191668E+03  0.12509000000E+03 0.  0.
         25    1    3    3    0    0  0.75698340112E+02 -0.10952741863E+03  0.22527497651E+03  0.29003933745E+03  0.12509000000E+03 0.  0.
         25    1    4    4    0    0 -0.45415904900E+02  0.52912533063E+02  0.17652333814E+03  0.22731110308E+03  0.12509000000E+03 0.  0.
<mgrwt>
<rscale>  2 0.48180946E+03</rscale>
<asrwt>0</asrwt>
<pdfrwt beam="1">  1       21 0.11840966E+00 0.48180946E+03</pdfrwt>
<pdfrwt beam="2">  1       21 0.10599508E-01 0.48180946E+03</pdfrwt>
<totfact> 0.36045077E+04</totfact>
</mgrwt>
</event>
<event>
 7    0  0.4779893E-002  0.4553109E+03  0.7546771E-02  0.1026150E+00
         21   -1    0    0  502  501  0.00000000000E+00  0.00000000000E+00  0.47701244927E+03  0.47701244927E+03  0.00000000000E+00 0. -1.
         21   -1    0    0  501  502 -0.00000000000E+00 -0.00000000000E+00 -0.10864915808E+03  0.10864915808E+03  0.00000000000E+00 0. -1.
      99926    2    1    2    0    0  0.00000000000E+00  0.00000000000E+00  0.36836329119E+03  0.58566160736E+03  0.45531088724E+03 0.  0.
      99925    2    3    3    0    0  0.64375190304E+02  0.44784406009E+02  0.12669808225E+03  0.30246664014E+03  0.26321826723E+03 0.  0.
         25    1    4    4    0    0  0.50678771186E+02  0.48029835272E+02  0.37182827753E+02  0.14800430299E+03  0.12509000000E+03 0.  0.
         25    1    3    3    0    0 -0.64375190304E+02 -0.44784406009E+02  0.24166520893E+03  0.28319496722E+03  0.12509000000E+03 0.  0.
         25    1    4    4    0    0  0.13696419118E+02 -0.32454292630E+01  0.89515254499E+02  0.15446233714E+03  0.12509000000E+03 0.  0.
<mgrwt>
<rscale>  2 0.45531089E+03</rscale>
<asrwt>0</asrwt>
<pdfrwt beam="1">  1       21 0.70148889E-01 0.45531089E+03</pdfrwt>
<pdfrwt beam="2">  1       21 0.15977818E-01 0.45531089E+03</pdfrwt>
<totfact> 0.59423464E+04</totfact>
</mgrwt>
</event>
<event>
 7    0  0.4779893E-002  0.4565050E+03  0.7546771E-02  0.1025800E+00
         21   -1    0    0  502  501  0.00000000000E+00  0.00000000000E+00  0.43293220344E+02  0.43293220344E+02  0.00000000000E+00 0. -1.
         21   -1    0    0  501  502 -0.00000000000E+00 -0.00000000000E+00 -0.12034031161E+04  0.12034031161E+04  0.00000000000E+00 0. -1.
      99926    2    1    2    0    0  0.00000000000E+00  0.00000000000E+00 -0.11601098957E+04  0.12466963364E+04  0.45650496719E+03 0.  0.
      99925    2    3    3    0    0  0.27849114544E+02 -0.73093290680E+02 -0.95770332144E+03  0.99622851066E+03  0.26297792918E+03 0.  0.
         25    1    4    4    0    0  0.47342248415E+02 -0.19875832624E+02 -0.53240352623E+03  0.54930625342E+03  0.12509000000E+03 0.  0.
         25    1    3    3    0    0 -0.27849114544E+02  0.73093290680E+02 -0.20240657429E+03  0.25046782575E+03  0.12509000000E+03 0.  0.
         25    1    4    4    0    0 -0.19493133872E+02 -0.53217458056E+02 -0.42529979521E+03  0.44692225724E+03  0.12509000000E+03 0.  0.
<mgrwt>
<rscale>  2 0.45650497E+03</rscale>
<asrwt>0</asrwt>
<pdfrwt beam="1">  1       21 0.63666512E-02 0.45650497E+03</pdfrwt>
<pdfrwt beam="2">  1       21 0.17697101E+00 0.45650497E+03</pdfrwt>
<totfact> 0.30345802E+04</totfact>
</mgrwt>
</event>
<event>
 7    0  0.4779893E-002  0.4764339E+03  0.7546771E-02  0.1020120E+00
         21   -1    0    0  502  501  0.00000000000E+00  0.00000000000E+00  0.40193611586E+03  0.40193611586E+03  0.00000000000E+00 0. -1.
         21   -1    0    0  501  502 -0.00000000000E+00 -0.00000000000E+00 -0.14118490181E+03  0.14118490181E+03  0.00000000000E+00 0. -1.
      99926    2    1    2    0    0  0.00000000000E+00  0.00000000000E+00  0.26075121405E+03  0.54312101768E+03  0.47643388231E+03 0.  0.
      99925    2    3    3    0    0 -0.92617544769E+02  0.90914930070E+02  0.19011203793E+03  0.34952108118E+03  0.26301875430E+03 0.  0.
         25    1    3    3    0    0  0.92617544769E+02 -0.90914930070E+02  0.70639176120E+02  0.19359993650E+03  0.12509000000E+03 0.  0.
         25    1    4    4    0    0 -0.12734346257E+02  0.68087522044E+02  0.87306667979E+02  0.16753518020E+03  0.12509000000E+03 0.  0.
         25    1    4    4    0    0 -0.79883198512E+02  0.22827408026E+02  0.10280536995E+03  0.18198590097E+03  0.12509000000E+03 0.  0.
<mgrwt>
<rscale>  2 0.47643388E+03</rscale>
<asrwt>0</asrwt>
<pdfrwt beam="1">  1       21 0.59108252E-01 0.47643388E+03</pdfrwt>
<pdfrwt beam="2">  1       21 0.20762486E-01 0.47643388E+03</pdfrwt>
<totfact> 0.52775045E+04</totfact>
</mgrwt>
</event>
<event>
 7    0  0.4779893E-002  0.4584163E+03  0.7546771E-02  0.1025242E+00
         21   -1    0    0  502  501  0.00000000000E+00  0.00000000000E+00  0.66145554576E+02  0.66145554576E+02  0.00000000000E+00 0.  1.
         21   -1    0    0  501  502 -0.00000000000E+00 -0.00000000000E+00 -0.79425414368E+03  0.79425414368E+03  0.00000000000E+00 0.  1.
      99926    2    1    2    0    0 -0.17763568394E-14  0.14210854715E-13 -0.72810858910E+03  0.86039969826E+03  0.45841632086E+03 0.  0.
      99925    2    3    3    0    0  0.11343718643E+02 -0.64982875196E+02 -0.27674249458E+03  0.38739830988E+03  0.26294407803E+03 0.  0.
         25    1    4    4    0    0 -0.33802787841E+01 -0.64561520551E+02 -0.11140560655E+03  0.17955036478E+03  0.12509000000E+03 0.  0.
         25    1    3    3    0    0 -0.11343718643E+02  0.64982875196E+02 -0.45136609452E+03  0.47300138838E+03  0.12509000000E+03 0.  0.
         25    1    4    4    0    0  0.14723997427E+02 -0.42135464479E+00 -0.16533688803E+03  0.20784794510E+03  0.12509000000E+03 0.  0.
<mgrwt>
<rscale>  2 0.45841632E+03</rscale>
<asrwt>0</asrwt>
<pdfrwt beam="1">  1       21 0.97272879E-02 0.45841632E+03</pdfrwt>
<pdfrwt beam="2">  1       21 0.11680207E+00 0.45841632E+03</pdfrwt>
<totfact> 0.43792339E+04</totfact>
</mgrwt>
</event>
<event>
 7    0  0.4779893E-002  0.4542915E+03  0.7546771E-02  0.1026450E+00
         21   -1    0    0  502  501  0.00000000000E+00  0.00000000000E+00  0.58214167695E+02  0.58214167695E+02  0.00000000000E+00 0.  1.
         21   -1    0    0  501  502 -0.00000000000E+00 -0.00000000000E+00 -0.88629962234E+03  0.88629962234E+03  0.00000000000E+00 0.  1.
      99926    2    1    2    0    0  0.14210854715E-13  0.00000000000E+00 -0.82808545465E+03  0.94451379004E+03  0.45429151365E+03 0.  0.
      99925    2    3    3    0    0  0.65506652126E+02  0.71723567466E+02 -0.40370947362E+03  0.49154814788E+03  0.26306434762E+03 0.  0.
         25    1    4    4    0    0  0.70812664293E+01  0.57055950189E+01 -0.15317046036E+03  0.19796816960E+03  0.12509000000E+03 0.  0.
         25    1    3    3    0    0 -0.65506652126E+02 -0.71723567466E+02 -0.42437598102E+03  0.45296564216E+03  0.12509000000E+03 0.  0.
         25    1    4    4    0    0  0.58425385697E+02  0.66017972447E+02 -0.25053901326E+03  0.29357997828E+03  0.12509000000E+03 0.  0.
<mgrwt>
<rscale>  2 0.45429151E+03</rscale>
<asrwt>0</asrwt>
<pdfrwt beam="1">  1       21 0.85609067E-02 0.45429151E+03</pdfrwt>
<pdfrwt beam="2">  1       21 0.13033818E+00 0.45429151E+03</pdfrwt>
<totfact> 0.41593726E+04</totfact>
</mgrwt>
</event>
<event>
 7    0  0.4779893E-002  0.4654426E+03  0.7546771E-02  0.1023214E+00
         21   -1    0    0  502  501  0.00000000000E+00  0.00000000000E+00  0.80964563886E+02  0.80964563886E+02  0.00000000000E+00 0. -1.
         21   -1    0    0  501  502 -0.00000000000E+00 -0.00000000000E+00 -0.66892477714E+03  0.66892477714E+03  0.00000000000E+00 0. -1.
      99926    2    1    2    0    0  0.00000000000E+00  0.00000000000E+00 -0.58796021325E+03  0.74988934103E+03  0.46544259734E+03 0.  0.
      99925    2    3    3    0    0  0.41129025485E+02  0.93106017691E+02 -0.25599905874E+03  0.38082831156E+03  0.26293413156E+03 0.  0.
         25    1    3    3    0    0 -0.41129025485E+02 -0.93106017691E+02 -0.33196115451E+03  0.36906102947E+03  0.12509000000E+03 0.  0.
         25    1    4    4    0    0 -0.10760879945E+02  0.55613972403E+02 -0.94173233484E+02  0.16650770693E+03  0.12509000000E+03 0.  0.
         25    1    4    4    0    0  0.51889905430E+02  0.37492045288E+02 -0.16182582526E+03  0.21432060462E+03  0.12509000000E+03 0.  0.
<mgrwt>
<rscale>  2 0.46544260E+03</rscale>
<asrwt>0</asrwt>
<pdfrwt beam="1">  1       21 0.11906554E-01 0.46544260E+03</pdfrwt>
<pdfrwt beam="2">  1       21 0.98371290E-01 0.46544260E+03</pdfrwt>
<totfact> 0.46353339E+04</totfact>
</mgrwt>
</event>
<event>
 7    0  0.4779893E-002  0.4554997E+03  0.7546771E-02  0.1026095E+00
         21   -1    0    0  502  501  0.00000000000E+00  0.00000000000E+00  0.46308788371E+03  0.46308788371E+03  0.00000000000E+00 0. -1.
         21   -1    0    0  501  502 -0.00000000000E+00 -0.00000000000E+00 -0.11200897077E+03  0.11200897077E+03  0.00000000000E+00 0. -1.
      99926    2    1    2    0    0  0.00000000000E+00 -0.71054273576E-14  0.35107891294E+03  0.57509685448E+03  0.45549971341E+03 0.  0.
      99925    2    3    3    0    0  0.72987916041E+02  0.57026917975E+02  0.13801988862E+03  0.31123901168E+03  0.26313670872E+03 0.  0.
         25    1    4    4    0    0  0.14709456884E+02  0.74909490415E+01  0.96518098426E+02  0.15885758988E+03  0.12509000000E+03 0.  0.
         25    1    4    4    0    0  0.58278459157E+02  0.49535968934E+02  0.41501790194E+02  0.15238142180E+03  0.12509000000E+03 0.  0.
         25    1    3    3    0    0 -0.72987916041E+02 -0.57026917975E+02  0.21305902432E+03  0.26385784280E+03  0.12509000000E+03 0.  0.
<mgrwt>
<rscale>  2 0.45549971E+03</rscale>
<asrwt>0</asrwt>
<pdfrwt beam="1">  1       21 0.68101159E-01 0.45549971E+03</pdfrwt>
<pdfrwt beam="2">  1       21 0.16471908E-01 0.45549971E+03</pdfrwt>
<totfact> 0.60000496E+04</totfact>
</mgrwt>
</event>
<event>
 7    0  0.4779893E-002  0.4513324E+03  0.7546771E-02  0.1027325E+00
         21   -1    0    0  502  501  0.00000000000E+00  0.00000000000E+00  0.12927745911E+03  0.12927745911E+03  0.00000000000E+00 0. -1.
         21   -1    0    0  501  502 -0.00000000000E+00 -0.00000000000E+00 -0.39392197863E+03  0.39392197863E+03  0.00000000000E+00 0. -1.
      99926    2    1    2    0    0  0.00000000000E+00  0.00000000000E+00 -0.26464451952E+03  0.52319943775E+03  0.45133239408E+03 0.  0.
      99925    2    3    3    0    0 -0.75828937156E+02 -0.77765315982E+02 -0.14539332823E+03  0.31907734976E+03  0.26243792248E+03 0.  0.
         25    1    4    4    0    0 -0.69677983712E+02 -0.16888155346E+02 -0.63642200637E+02  0.15760098035E+03  0.12509000000E+03 0.  0.
         25    1    4    4    0    0 -0.61509534437E+01 -0.60877160636E+02 -0.81751127597E+02  0.16147636941E+03  0.12509000000E+03 0.  0.
         25    1    3    3    0    0  0.75828937156E+02  0.77765315982E+02 -0.11925119129E+03  0.20412208799E+03  0.12509000000E+03 0.  0.
<mgrwt>
<rscale>  2 0.45133239E+03</rscale>
<asrwt>0</asrwt>
<pdfrwt beam="1">  1       21 0.19011391E-01 0.45133239E+03</pdfrwt>
<pdfrwt beam="2">  1       21 0.57929702E-01 0.45133239E+03</pdfrwt>
<totfact> 0.65554503E+04</totfact>
</mgrwt>
</event>
<event>
 7    0  0.4779893E-002  0.4545003E+03  0.7546771E-02  0.1026388E+00
         21   -1    0    0  502  501  0.00000000000E+00  0.00000000000E+00  0.78946448208E+02  0.78946448208E+02  0.00000000000E+00 0. -1.
         21   -1    0    0  501  502 -0.00000000000E+00 -0.00000000000E+00 -0.65414764250E+03  0.65414764250E+03  0.00000000000E+00 0. -1.
      99926    2    1    2    0    0 -0.35527136788E-14  0.00000000000E+00 -0.57520119429E+03  0.73309409071E+03  0.45450031014E+03 0.  0.
      99925    2    3    3    0    0 -0.25139177562E+02 -0.93558783428E+02 -0.26993909403E+03  0.38926610732E+03  0.26320289439E+03 0.  0.
         25    1    4    4    0    0  0.24014334292E+02 -0.32779780200E+02 -0.10767817848E+03  0.16998029433E+03  0.12509000000E+03 0.  0.
         25    1    3    3    0    0  0.25139177562E+02  0.93558783428E+02 -0.30526210026E+03  0.34382798339E+03  0.12509000000E+03 0.  0.
         25    1    4    4    0    0 -0.49153511854E+02 -0.60779003229E+02 -0.16226091555E+03  0.21928581299E+03  0.12509000000E+03 0.  0.
<mgrwt>
<rscale>  2 0.45450031E+03</rscale>
<asrwt>0</asrwt>
<pdfrwt beam="1">  1       21 0.11609772E-01 0.45450031E+03</pdfrwt>
<pdfrwt beam="2">  1       21 0.96198183E-01 0.45450031E+03</pdfrwt>
<totfact> 0.51344182E+04</totfact>
</mgrwt>
</event>
<event>
 7    0  0.4779893E-002  0.4564640E+03  0.7546771E-02  0.1025812E+00
         21   -1    0    0  502  501  0.00000000000E+00  0.00000000000E+00  0.12128180960E+04  0.12128180960E+04  0.00000000000E+00 0.  1.
         21   -1    0    0  501  502 -0.00000000000E+00 -0.00000000000E+00 -0.42949435564E+02  0.42949435564E+02  0.00000000000E+00 0.  1.
      99926    2    1    2    0    0  0.00000000000E+00  0.00000000000E+00  0.11698686604E+04  0.12557675316E+04  0.45646402997E+03 0.  0.
      99925    2    3    3    0    0  0.12550197452E+02 -0.20353771088E+02  0.10427927173E+04  0.10758575905E+04  0.26359271692E+03 0.  0.
         25    1    3    3    0    0 -0.12550197452E+02  0.20353771088E+02  0.12707594312E+03  0.17990994101E+03  0.12509000000E+03 0.  0.
         25    1    4    4    0    0 -0.57819187742E+00  0.97397670694E+01  0.65965558809E+03  0.67148209236E+03  0.12509000000E+03 0.  0.
         25    1    4    4    0    0  0.13128389329E+02 -0.30093538157E+02  0.38313712921E+03  0.40437549818E+03  0.12509000000E+03 0.  0.
<mgrwt>
<rscale>  2 0.45646403E+03</rscale>
<asrwt>0</asrwt>
<pdfrwt beam="1">  1       21 0.17835558E+00 0.45646403E+03</pdfrwt>
<pdfrwt beam="2">  1       21 0.63160943E-02 0.45646403E+03</pdfrwt>
<totfact> 0.30082544E+04</totfact>
</mgrwt>
</event>
<event>
 7    0  0.4779893E-002  0.4472610E+03  0.7546771E-02  0.1028542E+00
         21   -1    0    0  502  501  0.00000000000E+00  0.00000000000E+00  0.17962023488E+03  0.17962023488E+03  0.00000000000E+00 0.  1.
         21   -1    0    0  501  502 -0.00000000000E+00 -0.00000000000E+00 -0.27842403455E+03  0.27842403455E+03  0.00000000000E+00 0.  1.
      99926    2    1    2    0    0 -0.14210854715E-13  0.88817841970E-15 -0.98803799675E+02  0.45804426943E+03  0.44726095507E+03 0.  0.
      99925    2    3    3    0    0 -0.10094525369E+03  0.61593488300E+01 -0.93952935973E+02  0.29711285299E+03  0.26309886243E+03 0.  0.
         25    1    3    3    0    0  0.10094525369E+03 -0.61593488300E+01 -0.48508637023E+01  0.16093141644E+03  0.12509000000E+03 0.  0.
         25    1    4    4    0    0 -0.58668483584E+02 -0.12431183477E+02 -0.90157687569E+01  0.13901552962E+03  0.12509000000E+03 0.  0.
         25    1    4    4    0    0 -0.42276770105E+02  0.18590532307E+02 -0.84937167216E+02  0.15809732337E+03  0.12509000000E+03 0.  0.
<mgrwt>
<rscale>  2 0.44726096E+03</rscale>
<asrwt>0</asrwt>
<pdfrwt beam="1">  1       21 0.26414741E-01 0.44726096E+03</pdfrwt>
<pdfrwt beam="2">  1       21 0.40944710E-01 0.44726096E+03</pdfrwt>
<totfact> 0.72696830E+04</totfact>
</mgrwt>
</event>
<event>
 7    0  0.4779893E-002  0.4580072E+03  0.7546771E-02  0.1025361E+00
         21   -1    0    0  502  501  0.00000000000E+00  0.00000000000E+00  0.50154168032E+03  0.50154168032E+03  0.00000000000E+00 0. -1.
         21   -1    0    0  501  502 -0.00000000000E+00 -0.00000000000E+00 -0.10456288909E+03  0.10456288909E+03  0.00000000000E+00 0. -1.
      99926    2    1    2    0    0 -0.35527136788E-14  0.00000000000E+00  0.39697879122E+03  0.60610456941E+03  0.45800719250E+03 0.  0.
      99925    2    3    3    0    0 -0.12517240056E+02  0.36174212777E+02  0.10422934117E+03  0.28545678200E+03  0.26297635608E+03 0.  0.
         25    1    4    4    0    0  0.34035892293E+02  0.21715452780E+02  0.48764635335E+02  0.14019807635E+03  0.12509000000E+03 0.  0.
         25    1    4    4    0    0 -0.46553132349E+02  0.14458759997E+02  0.55464705839E+02  0.14525870565E+03  0.12509000000E+03 0.  0.
         25    1    3    3    0    0  0.12517240056E+02 -0.36174212777E+02  0.29274945005E+03  0.32064778741E+03  0.12509000000E+03 0.  0.
<mgrwt>
<rscale>  2 0.45800719E+03</rscale>
<asrwt>0</asrwt>
<pdfrwt beam="1">  1       21 0.73756128E-01 0.45800719E+03</pdfrwt>
<pdfrwt beam="2">  1       21 0.15376896E-01 0.45800719E+03</pdfrwt>
<totfact> 0.56939286E+04</totfact>
</mgrwt>
</event>
<event>
 7    0  0.4779893E-002  0.4534988E+03  0.7546771E-02  0.1026684E+00
         21   -1    0    0  502  501  0.00000000000E+00  0.00000000000E+00  0.88202430154E+02  0.88202430154E+02  0.00000000000E+00 0.  1.
         21   -1    0    0  501  502 -0.00000000000E+00 -0.00000000000E+00 -0.58292376843E+03  0.58292376843E+03  0.00000000000E+00 0.  1.
      99926    2    1    2    0    0  0.00000000000E+00  0.00000000000E+00 -0.49472133828E+03  0.67112619858E+03  0.45349881133E+03 0.  0.
      99925    2    3    3    0    0  0.65391189820E+02 -0.89401482377E+02 -0.33436569859E+03  0.43954452393E+03  0.26292648281E+03 0.  0.
         25    1    4    4    0    0 -0.40243696026E+01 -0.61802651033E+02 -0.16068055578E+03  0.21284151929E+03  0.12509000000E+03 0.  0.
         25    1    3    3    0    0 -0.65391189820E+02  0.89401482377E+02 -0.16035563968E+03  0.23158167466E+03  0.12509000000E+03 0.  0.
         25    1    4    4    0    0  0.69415559423E+02 -0.27598831345E+02 -0.17368514281E+03  0.22670300464E+03  0.12509000000E+03 0.  0.
<mgrwt>
<rscale>  2 0.45349881E+03</rscale>
<asrwt>0</asrwt>
<pdfrwt beam="1">  1       21 0.12970946E-01 0.45349881E+03</pdfrwt>
<pdfrwt beam="2">  1       21 0.85724084E-01 0.45349881E+03</pdfrwt>
<totfact> 0.55148669E+04</totfact>
</mgrwt>
</event>
<event>
 7    0  0.4779893E-002  0.4560629E+03  0.7546771E-02  0.1025929E+00
         21   -1    0    0  502  501  0.00000000000E+00  0.00000000000E+00  0.16744405294E+04  0.16744405294E+04  0.00000000000E+00 0. -1.
         21   -1    0    0  501  502 -0.00000000000E+00 -0.00000000000E+00 -0.31054153473E+02  0.31054153473E+02  0.00000000000E+00 0. -1.
      99926    2    1    2    0    0  0.00000000000E+00  0.00000000000E+00  0.16433863759E+04  0.17054946829E+04  0.45606286050E+03 0.  0.
      99925    2    3    3    0    0 -0.90796448261E+02  0.66288927826E+02  0.11038432305E+04  0.11403464449E+04  0.26321458923E+03 0.  0.
         25    1    3    3    0    0  0.90796448261E+02 -0.66288927826E+02  0.53954314542E+03  0.56514823793E+03  0.12509000000E+03 0.  0.
         25    1    4    4    0    0 -0.74388152616E+02  0.46391746596E+02  0.71243827161E+03  0.72862994061E+03  0.12509000000E+03 0.  0.
         25    1    4    4    0    0 -0.16408295645E+02  0.19897181229E+02  0.39140495889E+03  0.41171650433E+03  0.12509000000E+03 0.  0.
<mgrwt>
<rscale>  2 0.45606286E+03</rscale>
<asrwt>0</asrwt>
<pdfrwt beam="1">  1       21 0.24624119E+00 0.45606286E+03</pdfrwt>
<pdfrwt beam="2">  1       21 0.45667884E-02 0.45606286E+03</pdfrwt>
<totfact> 0.18990462E+04</totfact>
</mgrwt>
</event>
<event>
 7    0  0.4779893E-002  0.4404178E+03  0.7546771E-02  0.1030619E+00
         21   -1    0    0  502  501  0.00000000000E+00  0.00000000000E+00  0.17528894537E+03  0.17528894537E+03  0.00000000000E+00 0.  1.
         21   -1    0    0  501  502 -0.00000000000E+00 -0.00000000000E+00 -0.27664015752E+03  0.27664015752E+03  0.00000000000E+00 0.  1.
      99926    2    1    2    0    0  0.00000000000E+00  0.71054273576E-14 -0.10135121216E+03  0.45192910289E+03  0.44041780826E+03 0.  0.
      99925    2    3    3    0    0 -0.44356254523E+02  0.62485869352E+02 -0.12875027803E+03  0.30269714219E+03  0.26301514141E+03 0.  0.
         25    1    4    4    0    0 -0.35064150840E+02 -0.24233823809E+01 -0.40249066903E+02  0.13602522907E+03  0.12509000000E+03 0.  0.
         25    1    4    4    0    0 -0.92921036821E+01  0.64909251733E+02 -0.88501211129E+02  0.16667191312E+03  0.12509000000E+03 0.  0.
         25    1    3    3    0    0  0.44356254523E+02 -0.62485869352E+02  0.27399065875E+02  0.14923196070E+03  0.12509000000E+03 0.  0.
<mgrwt>
<rscale>  2 0.44041781E+03</rscale>
<asrwt>0</asrwt>
<pdfrwt beam="1">  1       21 0.25777786E-01 0.44041781E+03</pdfrwt>
<pdfrwt beam="2">  1       21 0.40682376E-01 0.44041781E+03</pdfrwt>
<totfact> 0.77373153E+04</totfact>
</mgrwt>
</event>
<event>
 7    0  0.4779893E-002  0.4541218E+03  0.7546771E-02  0.1026500E+00
         21   -1    0    0  502  501  0.00000000000E+00  0.00000000000E+00  0.16702363735E+04  0.16702363735E+04  0.00000000000E+00 0. -1.
         21   -1    0    0  501  502 -0.00000000000E+00 -0.00000000000E+00 -0.30867874330E+02  0.30867874330E+02  0.00000000000E+00 0. -1.
      99926    2    1    2    0    0  0.00000000000E+00  0.53290705182E-14  0.16393684991E+04  0.17011042478E+04  0.45412177432E+03 0.  0.
      99925    2    3    3    0    0 -0.80201207223E+02  0.58547662250E+01  0.13262211889E+04  0.13544412155E+04  0.26302443334E+03 0.  0.
         25    1    3    3    0    0  0.80201207223E+02 -0.58547662250E+01  0.31314731025E+03  0.34666303227E+03  0.12509000000E+03 0.  0.
         25    1    4    4    0    0 -0.29007251423E+02  0.38946033302E+02  0.72648214817E+03  0.73877062330E+03  0.12509000000E+03 0.  0.
         25    1    4    4    0    0 -0.51193955800E+02 -0.33091267077E+02  0.59973904072E+03  0.61567059223E+03  0.12509000000E+03 0.  0.
<mgrwt>
<rscale>  2 0.45412177E+03</rscale>
<asrwt>0</asrwt>
<pdfrwt beam="1">  1       21 0.24562294E+00 0.45412177E+03</pdfrwt>
<pdfrwt beam="2">  1       21 0.45393944E-02 0.45412177E+03</pdfrwt>
<totfact> 0.19370448E+04</totfact>
</mgrwt>
</event>
<event>
 7    0  0.4779893E-002  0.4549944E+03  0.7546771E-02  0.1026243E+00
         21   -1    0    0  502  501  0.00000000000E+00  0.00000000000E+00  0.17785537043E+03  0.17785537043E+03  0.00000000000E+00 0.  1.
         21   -1    0    0  501  502 -0.00000000000E+00 -0.00000000000E+00 -0.29099478887E+03  0.29099478887E+03  0.00000000000E+00 0.  1.
      99926    2    1    2    0    0  0.00000000000E+00  0.00000000000E+00 -0.11313941844E+03  0.46885015930E+03  0.45499444378E+03 0.  0.
      99925    2    3    3    0    0 -0.38179665189E+02 -0.30415561901E+02  0.34043472126E+02  0.26961887507E+03  0.26296879389E+03 0.  0.
         25    1    3    3    0    0  0.38179665189E+02  0.30415561901E+02 -0.14718289057E+03  0.19923128423E+03  0.12509000000E+03 0.  0.
         25    1    4    4    0    0 -0.20054140364E+02 -0.53510999921E+02  0.31589627291E+02  0.14110637232E+03  0.12509000000E+03 0.  0.
         25    1    4    4    0    0 -0.18125524826E+02  0.23095438020E+02  0.24538448356E+01  0.12851250275E+03  0.12509000000E+03 0.  0.
<mgrwt>
<rscale>  2 0.45499444E+03</rscale>
<asrwt>0</asrwt>
<pdfrwt beam="1">  1       21 0.26155202E-01 0.45499444E+03</pdfrwt>
<pdfrwt beam="2">  1       21 0.42793351E-01 0.45499444E+03</pdfrwt>
<totfact> 0.67524354E+04</totfact>
</mgrwt>
</event>
<event>
 7    0  0.4779893E-002  0.4601785E+03  0.7546771E-02  0.1024729E+00
         21   -1    0    0  502  501  0.00000000000E+00  0.00000000000E+00  0.31445596686E+03  0.31445596686E+03  0.00000000000E+00 0. -1.
         21   -1    0    0  501  502 -0.00000000000E+00 -0.00000000000E+00 -0.16835763958E+03  0.16835763958E+03  0.00000000000E+00 0. -1.
      99926    2    1    2    0    0  0.35527136788E-14  0.00000000000E+00  0.14609832728E+03  0.48281360644E+03  0.46017850594E+03 0.  0.
      99925    2    3    3    0    0  0.21575632569E+02 -0.95357310028E+02  0.16087394167E+03  0.32336345317E+03  0.26291628561E+03 0.  0.
         25    1    3    3    0    0 -0.21575632569E+02  0.95357310028E+02 -0.14775614389E+02  0.15945015327E+03  0.12509000000E+03 0.  0.
         25    1    4    4    0    0 -0.17785511480E+01 -0.87225571643E+02  0.78118511567E+02  0.17135189973E+03  0.12509000000E+03 0.  0.
         25    1    4    4    0    0  0.23354183717E+02 -0.81317383854E+01  0.82755430105E+02  0.15201155344E+03  0.12509000000E+03 0.  0.
<mgrwt>
<rscale>  2 0.46017851E+03</rscale>
<asrwt>0</asrwt>
<pdfrwt beam="1">  1       21 0.46243525E-01 0.46017851E+03</pdfrwt>
<pdfrwt beam="2">  1       21 0.24758476E-01 0.46017851E+03</pdfrwt>
<totfact> 0.63831512E+04</totfact>
</mgrwt>
</event>
<event>
 7    0  0.4779893E-002  0.4561180E+03  0.7546771E-02  0.1025913E+00
         21   -1    0    0  502  501  0.00000000000E+00  0.00000000000E+00  0.47406712044E+03  0.47406712044E+03  0.00000000000E+00 0. -1.
         21   -1    0    0  501  502 -0.00000000000E+00 -0.00000000000E+00 -0.10971212876E+03  0.10971212876E+03  0.00000000000E+00 0. -1.
      99926    2    1    2    0    0  0.00000000000E+00  0.71054273576E-14  0.36435499168E+03  0.58377924920E+03  0.45611802402E+03 0.  0.
      99925    2    3    3    0    0 -0.10563374299E+02  0.61098713568E+02  0.35180887487E+03  0.44360239368E+03  0.26299992693E+03 0.  0.
         25    1    3    3    0    0  0.10563374299E+02 -0.61098713568E+02  0.12546116812E+02  0.14017685552E+03  0.12509000000E+03 0.  0.
         25    1    4    4    0    0  0.17937182067E+02  0.63605930168E+02  0.17216872655E+03  0.22283858588E+03  0.12509000000E+03 0.  0.
         25    1    4    4    0    0 -0.28500556366E+02 -0.25072165990E+01  0.17964014832E+03  0.22076380780E+03  0.12509000000E+03 0.  0.
<mgrwt>
<rscale>  2 0.45611802E+03</rscale>
<asrwt>0</asrwt>
<pdfrwt beam="1">  1       21 0.69715752E-01 0.45611802E+03</pdfrwt>
<pdfrwt beam="2">  1       21 0.16134137E-01 0.45611802E+03</pdfrwt>
<totfact> 0.59163356E+04</totfact>
</mgrwt>
</event>
<event>
 7    0  0.4779893E-002  0.4542341E+03  0.7546771E-02  0.1026467E+00
         21   -1    0    0  502  501  0.00000000000E+00  0.00000000000E+00  0.39433999466E+03  0.39433999466E+03  0.00000000000E+00 0. -1.
         21   -1    0    0  501  502 -0.00000000000E+00 -0.00000000000E+00 -0.13080627308E+03  0.13080627308E+03  0.00000000000E+00 0. -1.
      99926    2    1    2    0    0 -0.14210854715E-13  0.00000000000E+00  0.26353372158E+03  0.52514626774E+03  0.45423405874E+03 0.  0.
      99925    2    3    3    0    0 -0.91936786576E+02 -0.44346891490E+02  0.22038773536E+03  0.35802923170E+03  0.26304972408E+03 0.  0.
         25    1    4    4    0    0 -0.86758245418E+02 -0.36444671147E+02  0.12868336138E+03  0.20263791057E+03  0.12509000000E+03 0.  0.
         25    1    3    3    0    0  0.91936786576E+02  0.44346891490E+02  0.43145986213E+02  0.16711703605E+03  0.12509000000E+03 0.  0.
         25    1    4    4    0    0 -0.51785411581E+01 -0.79022203425E+01  0.91704373984E+02  0.15539132113E+03  0.12509000000E+03 0.  0.
<mgrwt>
<rscale>  2 0.45423406E+03</rscale>
<asrwt>0</asrwt>
<pdfrwt beam="1">  1       21 0.57991176E-01 0.45423406E+03</pdfrwt>
<pdfrwt beam="2">  1       21 0.19236217E-01 0.45423406E+03</pdfrwt>
<totfact> 0.63923532E+04</totfact>
</mgrwt>
</event>
<event>
 7    0  0.4779893E-002  0.4557064E+03  0.7546771E-02  0.1026034E+00
         21   -1    0    0  502  501  0.00000000000E+00  0.00000000000E+00  0.26787116475E+03  0.26787116475E+03  0.00000000000E+00 0. -1.
         21   -1    0    0  501  502 -0.00000000000E+00 -0.00000000000E+00 -0.19381364127E+03  0.19381364127E+03  0.00000000000E+00 0. -1.
      99926    2    1    2    0    0  0.14210854715E-13  0.66613381478E-15  0.74057523480E+02  0.46168480602E+03  0.45570642230E+03 0.  0.
      99925    2    3    3    0    0 -0.98530559806E+02  0.14918224809E+01 -0.11146557763E+02  0.28108098460E+03  0.26300528019E+03 0.  0.
         25    1    4    4    0    0 -0.92016056440E+02 -0.53647902556E+01 -0.40618030332E+01  0.15543404377E+03  0.12509000000E+03 0.  0.
         25    1    4    4    0    0 -0.65145033663E+01  0.68566127365E+01 -0.70847547298E+01  0.12564694084E+03  0.12509000000E+03 0.  0.
         25    1    3    3    0    0  0.98530559806E+02 -0.14918224809E+01  0.85204081243E+02  0.18060382142E+03  0.12509000000E+03 0.  0.
<mgrwt>
<rscale>  2 0.45570642E+03</rscale>
<asrwt>0</asrwt>
<pdfrwt beam="1">  1       21 0.39392818E-01 0.45570642E+03</pdfrwt>
<pdfrwt beam="2">  1       21 0.28502006E-01 0.45570642E+03</pdfrwt>
<totfact> 0.67675857E+04</totfact>
</mgrwt>
</event>
<event>
 7    0  0.4779893E-002  0.4460018E+03  0.7546771E-02  0.1028921E+00
         21   -1    0    0  502  501  0.00000000000E+00  0.00000000000E+00  0.20628742109E+02  0.20628742109E+02  0.00000000000E+00 0. -1.
         21   -1    0    0  501  502 -0.00000000000E+00 -0.00000000000E+00 -0.24106854663E+04  0.24106854663E+04  0.00000000000E+00 0. -1.
      99926    2    1    2    0    0  0.71054273576E-14  0.71054273576E-14 -0.23900567242E+04  0.24313142085E+04  0.44600183314E+03 0.  0.
      99925    2    3    3    0    0  0.41597201902E+02  0.48402178769E+02 -0.19677548577E+04  0.19862754768E+04  0.26297907049E+03 0.  0.
         25    1    3    3    0    0 -0.41597201902E+02 -0.48402178769E+02 -0.42230186654E+03  0.44503873169E+03  0.12509000000E+03 0.  0.
         25    1    4    4    0    0  0.11254466611E+02  0.59597294021E+02 -0.88760360695E+03  0.89842427152E+03  0.12509000000E+03 0.  0.
         25    1    4    4    0    0  0.30342735290E+02 -0.11195115251E+02 -0.10801512507E+04  0.10878512053E+04  0.12509000000E+03 0.  0.
<mgrwt>
<rscale>  2 0.44600183E+03</rscale>
<asrwt>0</asrwt>
<pdfrwt beam="1">  1       21 0.30336406E-02 0.44600183E+03</pdfrwt>
<pdfrwt beam="2">  1       21 0.35451233E+00 0.44600183E+03</pdfrwt>
<totfact> 0.84350717E+03</totfact>
</mgrwt>
</event>
<event>
 7    0  0.4779893E-002  0.4561141E+03  0.7546771E-02  0.1025914E+00
         21   -1    0    0  502  501  0.00000000000E+00  0.00000000000E+00  0.10716755937E+03  0.10716755937E+03  0.00000000000E+00 0. -1.
         21   -1    0    0  501  502 -0.00000000000E+00 -0.00000000000E+00 -0.48531490823E+03  0.48531490823E+03  0.00000000000E+00 0. -1.
      99926    2    1    2    0    0  0.00000000000E+00  0.00000000000E+00 -0.37814734886E+03  0.59248246760E+03  0.45611408328E+03 0.  0.
      99925    2    3    3    0    0 -0.49622669833E+02  0.93696809740E+02 -0.29259343821E+03  0.40752711827E+03  0.26310821068E+03 0.  0.
         25    1    4    4    0    0 -0.49578575646E+02  0.28879407156E+02 -0.18333267329E+03  0.22923881111E+03  0.12509000000E+03 0.  0.
         25    1    4    4    0    0 -0.44094186893E-01  0.64817402584E+02 -0.10926076491E+03  0.17828830717E+03  0.12509000000E+03 0.  0.
         25    1    3    3    0    0  0.49622669833E+02 -0.93696809740E+02 -0.85553910650E+02  0.18495534933E+03  0.12509000000E+03 0.  0.
<mgrwt>
<rscale>  2 0.45611408E+03</rscale>
<asrwt>0</asrwt>
<pdfrwt beam="1">  1       21 0.15759935E-01 0.45611408E+03</pdfrwt>
<pdfrwt beam="2">  1       21 0.71369839E-01 0.45611408E+03</pdfrwt>
<totfact> 0.58625510E+04</totfact>
</mgrwt>
</event>
<event>
 7    0  0.4779893E-002  0.4559109E+03  0.7546771E-02  0.1025974E+00
         21   -1    0    0  502  501  0.00000000000E+00  0.00000000000E+00  0.43662371356E+03  0.43662371356E+03  0.00000000000E+00 0.  1.
         21   -1    0    0  501  502 -0.00000000000E+00 -0.00000000000E+00 -0.11901251794E+03  0.11901251794E+03  0.00000000000E+00 0.  1.
      99926    2    1    2    0    0  0.00000000000E+00 -0.88817841970E-15  0.31761119562E+03  0.55563623150E+03  0.45591090157E+03 0.  0.
      99925    2    3    3    0    0  0.15461409409E+02  0.65912739169E+01  0.33717845745E+03  0.42791432301E+03  0.26294268500E+03 0.  0.
         25    1    4    4    0    0  0.36051324485E+02 -0.22305928829E+02  0.14806148811E+03  0.19841110054E+03  0.12509000000E+03 0.  0.
         25    1    4    4    0    0 -0.20589915076E+02  0.28897202746E+02  0.18911696934E+03  0.22950322247E+03  0.12509000000E+03 0.  0.
         25    1    3    3    0    0 -0.15461409409E+02 -0.65912739169E+01 -0.19567261828E+02  0.12772190849E+03  0.12509000000E+03 0.  0.
<mgrwt>
<rscale>  2 0.45591090E+03</rscale>
<asrwt>0</asrwt>
<pdfrwt beam="1">  1       21 0.64209369E-01 0.45591090E+03</pdfrwt>
<pdfrwt beam="2">  1       21 0.17501841E-01 0.45591090E+03</pdfrwt>
<totfact> 0.61054449E+04</totfact>
</mgrwt>
</event>
<event>
 7    0  0.4779893E-002  0.4441431E+03  0.7546771E-02  0.1029483E+00
         21   -1    0    0  502  501  0.00000000000E+00  0.00000000000E+00  0.15635712524E+03  0.15635712524E+03  0.00000000000E+00 0. -1.
         21   -1    0    0  501  502 -0.00000000000E+00 -0.00000000000E+00 -0.31540474640E+03  0.31540474640E+03  0.00000000000E+00 0. -1.
      99926    2    1    2    0    0  0.00000000000E+00  0.22204460493E-15 -0.15904762116E+03  0.47176187164E+03  0.44414312753E+03 0.  0.
      99925    2    3    3    0    0  0.40977390380E+02 -0.85851619327E+00 -0.20100680192E+03  0.33360267172E+03  0.26307247022E+03 0.  0.
         25    1    3    3    0    0 -0.40977390380E+02  0.85851619327E+00  0.41959180757E+02  0.13815919992E+03  0.12509000000E+03 0.  0.
         25    1    4    4    0    0 -0.34440048640E+01 -0.33210577326E+02 -0.92243235330E+02  0.15896894722E+03  0.12509000000E+03 0.  0.
         25    1    4    4    0    0  0.44421395244E+02  0.32352061133E+02 -0.10876356659E+03  0.17463372450E+03  0.12509000000E+03 0.  0.
<mgrwt>
<rscale>  2 0.44414313E+03</rscale>
<asrwt>0</asrwt>
<pdfrwt beam="1">  1       21 0.22993695E-01 0.44414313E+03</pdfrwt>
<pdfrwt beam="2">  1       21 0.46383051E-01 0.44414313E+03</pdfrwt>
<totfact> 0.73431258E+04</totfact>
</mgrwt>
</event>
<event>
 7    0  0.4779893E-002  0.4545158E+03  0.7546771E-02  0.1026384E+00
         21   -1    0    0  502  501  0.00000000000E+00  0.00000000000E+00  0.16438345693E+03  0.16438345693E+03  0.00000000000E+00 0. -1.
         21   -1    0    0  501  502 -0.00000000000E+00 -0.00000000000E+00 -0.31418103220E+03  0.31418103220E+03  0.00000000000E+00 0. -1.
      99926    2    1    2    0    0  0.00000000000E+00  0.00000000000E+00 -0.14979757526E+03  0.47856448913E+03  0.45451584868E+03 0.  0.
      99925    2    3    3    0    0  0.25121087442E+02  0.10321842354E+03 -0.54908728589E+02  0.28899520545E+03  0.26309342125E+03 0.  0.
         25    1    4    4    0    0  0.13515298818E+02  0.40580305650E+02 -0.66793562918E+02  0.14811587577E+03  0.12509000000E+03 0.  0.
         25    1    3    3    0    0 -0.25121087442E+02 -0.10321842354E+03 -0.94888846675E+02  0.18956928368E+03  0.12509000000E+03 0.  0.
         25    1    4    4    0    0  0.11605788624E+02  0.62638117892E+02  0.11884834328E+02  0.14087932968E+03  0.12509000000E+03 0.  0.
<mgrwt>
<rscale>  2 0.45451585E+03</rscale>
<asrwt>0</asrwt>
<pdfrwt beam="1">  1       21 0.24174038E-01 0.45451585E+03</pdfrwt>
<pdfrwt beam="2">  1       21 0.46203093E-01 0.45451585E+03</pdfrwt>
<totfact> 0.67062073E+04</totfact>
</mgrwt>
</event>
<event>
 7    0  0.4779893E-002  0.4564530E+03  0.7546771E-02  0.1025815E+00
         21   -1    0    0  502  501  0.00000000000E+00  0.00000000000E+00  0.59639356143E+02  0.59639356143E+02  0.00000000000E+00 0.  1.
         21   -1    0    0  501  502 -0.00000000000E+00 -0.00000000000E+00 -0.87337190854E+03  0.87337190854E+03  0.00000000000E+00 0.  1.
      99926    2    1    2    0    0  0.00000000000E+00  0.00000000000E+00 -0.81373255240E+03  0.93301126468E+03  0.45645301313E+03 0.  0.
      99925    2    3    3    0    0  0.84389151915E+02  0.50410583449E+02 -0.39382668948E+03  0.48397763822E+03  0.26357567616E+03 0.  0.
         25    1    4    4    0    0  0.45253539740E+02 -0.17886060983E+01 -0.13707879588E+03  0.19102142903E+03  0.12509000000E+03 0.  0.
         25    1    3    3    0    0 -0.84389151915E+02 -0.50410583449E+02 -0.41990586291E+03  0.44903362646E+03  0.12509000000E+03 0.  0.
         25    1    4    4    0    0  0.39135612175E+02  0.52199189547E+02 -0.25674789361E+03  0.29295620919E+03  0.12509000000E+03 0.  0.
<mgrwt>
<rscale>  2 0.45645301E+03</rscale>
<asrwt>0</asrwt>
<pdfrwt beam="1">  1       21 0.87704939E-02 0.45645301E+03</pdfrwt>
<pdfrwt beam="2">  1       21 0.12843704E+00 0.45645301E+03</pdfrwt>
<totfact> 0.41364422E+04</totfact>
</mgrwt>
</event>
<event>
 7    0  0.4779893E-002  0.4562409E+03  0.7546771E-02  0.1025877E+00
         21   -1    0    0  502  501  0.00000000000E+00  0.00000000000E+00  0.10443749023E+03  0.10443749023E+03  0.00000000000E+00 0. -1.
         21   -1    0    0  501  502 -0.00000000000E+00 -0.00000000000E+00 -0.49827845036E+03  0.49827845036E+03  0.00000000000E+00 0. -1.
      99926    2    1    2    0    0 -0.71054273576E-14 -0.14210854715E-13 -0.39384096013E+03  0.60271594059E+03  0.45624094858E+03 0.  0.
      99925    2    3    3    0    0 -0.32573649990E+02 -0.10829259133E+03 -0.27019517092E+03  0.39361281459E+03  0.26293970680E+03 0.  0.
         25    1    3    3    0    0  0.32573649990E+02  0.10829259133E+03 -0.12364578921E+03  0.20910312599E+03  0.12509000000E+03 0.  0.
         25    1    4    4    0    0 -0.32452962743E+02 -0.29450314570E+02 -0.88589598247E+02  0.15942440477E+03  0.12509000000E+03 0.  0.
         25    1    4    4    0    0 -0.12068724674E+00 -0.78842276758E+02 -0.18160557267E+03  0.23418840982E+03  0.12509000000E+03 0.  0.
<mgrwt>
<rscale>  2 0.45624095E+03</rscale>
<asrwt>0</asrwt>
<pdfrwt beam="1">  1       21 0.15358454E-01 0.45624095E+03</pdfrwt>
<pdfrwt beam="2">  1       21 0.73276243E-01 0.45624095E+03</pdfrwt>
<totfact> 0.57941237E+04</totfact>
</mgrwt>
</event>
<event>
 7    0  0.4779893E-002  0.4593486E+03  0.7546771E-02  0.1024970E+00
         21   -1    0    0  502  501  0.00000000000E+00  0.00000000000E+00  0.81346183736E+03  0.81346183736E+03  0.00000000000E+00 0.  1.
         21   -1    0    0  501  502 -0.00000000000E+00 -0.00000000000E+00 -0.64846657026E+02  0.64846657026E+02  0.00000000000E+00 0.  1.
      99926    2    1    2    0    0 -0.14210854715E-13  0.14210854715E-13  0.74861518034E+03  0.87830849439E+03  0.45934858559E+03 0.  0.
      99925    2    3    3    0    0  0.78485290706E+02 -0.76833689440E+02  0.54737760815E+03  0.61714298126E+03  0.26302063934E+03 0.  0.
         25    1    4    4    0    0  0.79299723779E+02 -0.46816440713E+02  0.27278369373E+03  0.31390870803E+03  0.12509000000E+03 0.  0.
         25    1    3    3    0    0 -0.78485290706E+02  0.76833689440E+02  0.20123757218E+03  0.26116551313E+03  0.12509000000E+03 0.  0.
         25    1    4    4    0    0 -0.81443307331E+00 -0.30017248727E+02  0.27459391443E+03  0.30323427323E+03  0.12509000000E+03 0.  0.
<mgrwt>
<rscale>  2 0.45934859E+03</rscale>
<asrwt>0</asrwt>
<pdfrwt beam="1">  1       21 0.11962674E+00 0.45934859E+03</pdfrwt>
<pdfrwt beam="2">  1       21 0.95362735E-02 0.45934859E+03</pdfrwt>
<totfact> 0.42711486E+04</totfact>
</mgrwt>
</event>
<event>
 7    0  0.4779893E-002  0.4353945E+03  0.7546771E-02  0.1032169E+00
         21   -1    0    0  502  501  0.00000000000E+00  0.00000000000E+00  0.60357027547E+02  0.60357027547E+02  0.00000000000E+00 0.  1.
         21   -1    0    0  501  502 -0.00000000000E+00 -0.00000000000E+00 -0.78519611160E+03  0.78519611160E+03  0.00000000000E+00 0.  1.
      99926    2    1    2    0    0  0.00000000000E+00  0.00000000000E+00 -0.72483908405E+03  0.84555313914E+03  0.43539454906E+03 0.  0.
      99925    2    3    3    0    0 -0.38664911619E+02  0.40941784662E+02 -0.60983034713E+03  0.66653994748E+03  0.26308029988E+03 0.  0.
         25    1    4    4    0    0 -0.42639651132E+02  0.10436141459E+02 -0.38796479296E+03  0.40998931885E+03  0.12509000000E+03 0.  0.
         25    1    3    3    0    0  0.38664911619E+02 -0.40941784662E+02 -0.11500873692E+03  0.17901319166E+03  0.12509000000E+03 0.  0.
         25    1    4    4    0    0  0.39747395129E+01  0.30505643203E+02 -0.22186555417E+03  0.25655062863E+03  0.12509000000E+03 0.  0.
<mgrwt>
<rscale>  2 0.43539455E+03</rscale>
<asrwt>0</asrwt>
<pdfrwt beam="1">  1       21 0.88760338E-02 0.43539455E+03</pdfrwt>
<pdfrwt beam="2">  1       21 0.11547001E+00 0.43539455E+03</pdfrwt>
<totfact> 0.53388244E+04</totfact>
</mgrwt>
</event>
<event>
 7    0  0.4779893E-002  0.4527864E+03  0.7546771E-02  0.1026894E+00
         21   -1    0    0  502  501  0.00000000000E+00  0.00000000000E+00  0.68719549232E+03  0.68719549232E+03  0.00000000000E+00 0. -1.
         21   -1    0    0  501  502 -0.00000000000E+00 -0.00000000000E+00 -0.74584118144E+02  0.74584118144E+02  0.00000000000E+00 0. -1.
      99926    2    1    2    0    0  0.00000000000E+00  0.00000000000E+00  0.61261137418E+03  0.76177961047E+03  0.45278635045E+03 0.  0.
      99925    2    3    3    0    0 -0.11942634122E+02 -0.78169405102E+01  0.20104605914E+03  0.33138764061E+03  0.26304851147E+03 0.  0.
         25    1    3    3    0    0  0.11942634122E+02  0.78169405102E+01  0.41156531504E+03  0.43039196985E+03  0.12509000000E+03 0.  0.
         25    1    4    4    0    0  0.67174459936E+01 -0.39330490641E+02  0.12019571276E+03  0.17800710390E+03  0.12509000000E+03 0.  0.
         25    1    4    4    0    0 -0.18660080116E+02  0.31513550131E+02  0.80850346379E+02  0.15338053671E+03  0.12509000000E+03 0.  0.
<mgrwt>
<rscale>  2 0.45278635E+03</rscale>
<asrwt>0</asrwt>
<pdfrwt beam="1">  1       21 0.10105816E+00 0.45278635E+03</pdfrwt>
<pdfrwt beam="2">  1       21 0.10968253E-01 0.45278635E+03</pdfrwt>
<totfact> 0.50541376E+04</totfact>
</mgrwt>
</event>
<event>
 7    0  0.4779893E-002  0.4519698E+03  0.7546771E-02  0.1027136E+00
         21   -1    0    0  502  501  0.00000000000E+00  0.00000000000E+00  0.90892426764E+02  0.90892426764E+02  0.00000000000E+00 0.  1.
         21   -1    0    0  501  502 -0.00000000000E+00 -0.00000000000E+00 -0.56186379468E+03  0.56186379468E+03  0.00000000000E+00 0.  1.
      99926    2    1    2    0    0  0.00000000000E+00  0.00000000000E+00 -0.47097136792E+03  0.65275622145E+03  0.45196975036E+03 0.  0.
      99925    2    3    3    0    0 -0.35345112490E+02 -0.10459240306E+03 -0.29655288792E+03  0.41138894525E+03  0.26288476788E+03 0.  0.
         25    1    4    4    0    0 -0.15767895452E+02 -0.45904271662E+02 -0.88027687592E+02  0.16047495308E+03  0.12509000000E+03 0.  0.
         25    1    3    3    0    0  0.35345112490E+02  0.10459240306E+03 -0.17441848000E+03  0.24136727619E+03  0.12509000000E+03 0.  0.
         25    1    4    4    0    0 -0.19577217037E+02 -0.58688131394E+02 -0.20852520033E+03  0.25091399217E+03  0.12509000000E+03 0.  0.
<mgrwt>
<rscale>  2 0.45196975E+03</rscale>
<asrwt>0</asrwt>
<pdfrwt beam="1">  1       21 0.13366533E-01 0.45196975E+03</pdfrwt>
<pdfrwt beam="2">  1       21 0.82627029E-01 0.45196975E+03</pdfrwt>
<totfact> 0.56890680E+04</totfact>
</mgrwt>
</event>
<event>
 7    0  0.4779893E-002  0.4518697E+03  0.7546771E-02  0.1027166E+00
         21   -1    0    0  502  501  0.00000000000E+00  0.00000000000E+00  0.10631057342E+03  0.10631057342E+03  0.00000000000E+00 0.  1.
         21   -1    0    0  501  502 -0.00000000000E+00 -0.00000000000E+00 -0.48016449052E+03  0.48016449052E+03  0.00000000000E+00 0.  1.
      99926    2    1    2    0    0  0.27755575616E-14 -0.14210854715E-13 -0.37385391710E+03  0.58647506394E+03  0.45186972602E+03 0.  0.
      99925    2    3    3    0    0 -0.91048667510E+00  0.10987678590E+03 -0.24713830974E+03  0.37724291939E+03  0.26298505475E+03 0.  0.
         25    1    4    4    0    0 -0.34396401108E+02  0.72049912908E+02 -0.15001262894E+03  0.21101089854E+03  0.12509000000E+03 0.  0.
         25    1    4    4    0    0  0.33485914433E+02  0.37826872993E+02 -0.97125680802E+02  0.16623202085E+03  0.12509000000E+03 0.  0.
         25    1    3    3    0    0  0.91048667510E+00 -0.10987678590E+03 -0.12671560736E+03  0.20923214455E+03  0.12509000000E+03 0.  0.
<mgrwt>
<rscale>  2 0.45186973E+03</rscale>
<asrwt>0</asrwt>
<pdfrwt beam="1">  1       21 0.15633908E-01 0.45186973E+03</pdfrwt>
<pdfrwt beam="2">  1       21 0.70612425E-01 0.45186973E+03</pdfrwt>
<totfact> 0.61014259E+04</totfact>
</mgrwt>
</event>
<event>
 7    0  0.4779893E-002  0.4527385E+03  0.7546771E-02  0.1026909E+00
         21   -1    0    0  502  501  0.00000000000E+00  0.00000000000E+00  0.50708938231E+02  0.50708938231E+02  0.00000000000E+00 0. -1.
         21   -1    0    0  501  502 -0.00000000000E+00 -0.00000000000E+00 -0.10105324635E+04  0.10105324635E+04  0.00000000000E+00 0. -1.
      99926    2    1    2    0    0  0.13322676296E-14  0.00000000000E+00 -0.95982352524E+03  0.10612414017E+04  0.45273845991E+03 0.  0.
      99925    2    3    3    0    0 -0.12892950771E+01  0.97061178687E+02 -0.73149216585E+03  0.78338307004E+03  0.26303176813E+03 0.  0.
         25    1    4    4    0    0  0.18614099388E+02  0.79677654216E+02 -0.45106192556E+03  0.47518352461E+03  0.12509000000E+03 0.  0.
         25    1    4    4    0    0 -0.19903394465E+02  0.17383524472E+02 -0.28043024029E+03  0.30819954543E+03  0.12509000000E+03 0.  0.
         25    1    3    3    0    0  0.12892950771E+01 -0.97061178687E+02 -0.22833135940E+03  0.27785833166E+03  0.12509000000E+03 0.  0.
<mgrwt>
<rscale>  2 0.45273846E+03</rscale>
<asrwt>0</asrwt>
<pdfrwt beam="1">  1       21 0.74571969E-02 0.45273846E+03</pdfrwt>
<pdfrwt beam="2">  1       21 0.14860771E+00 0.45273846E+03</pdfrwt>
<totfact> 0.37525548E+04</totfact>
</mgrwt>
</event>
<event>
 7    0  0.4779893E-002  0.4582392E+03  0.7546771E-02  0.1025293E+00
         21   -1    0    0  502  501  0.00000000000E+00  0.00000000000E+00  0.25289383204E+03  0.25289383204E+03  0.00000000000E+00 0.  1.
         21   -1    0    0  501  502 -0.00000000000E+00 -0.00000000000E+00 -0.20758037393E+03  0.20758037393E+03  0.00000000000E+00 0.  1.
      99926    2    1    2    0    0  0.00000000000E+00 -0.71054273576E-14  0.45313458116E+02  0.46047420597E+03  0.45823922232E+03 0.  0.
      99925    2    3    3    0    0  0.39613761385E+02 -0.53743329136E+02  0.12414987498E+03  0.29823893162E+03  0.26282251304E+03 0.  0.
         25    1    4    4    0    0  0.55645463111E+02 -0.25572463638E+02  0.85224513782E+02  0.16328225351E+03  0.12509000000E+03 0.  0.
         25    1    3    3    0    0 -0.39613761385E+02  0.53743329136E+02 -0.78836416868E+02  0.16223527435E+03  0.12509000000E+03 0.  0.
         25    1    4    4    0    0 -0.16031701726E+02 -0.28170865497E+02  0.38925361202E+02  0.13495667811E+03  0.12509000000E+03 0.  0.
<mgrwt>
<rscale>  2 0.45823922E+03</rscale>
<asrwt>0</asrwt>
<pdfrwt beam="1">  1       21 0.37190269E-01 0.45823922E+03</pdfrwt>
<pdfrwt beam="2">  1       21 0.30526526E-01 0.45823922E+03</pdfrwt>
<totfact> 0.66413514E+04</totfact>
</mgrwt>
</event>
<event>
 7    0  0.4779893E-002  0.4603956E+03  0.7546771E-02  0.1024667E+00
         21   -1    0    0  502  501  0.00000000000E+00  0.00000000000E+00  0.13066383745E+03  0.13066383745E+03  0.00000000000E+00 0.  1.
         21   -1    0    0  501  502 -0.00000000000E+00 -0.00000000000E+00 -0.40555239305E+03  0.40555239305E+03  0.00000000000E+00 0.  1.
      99926    2    1    2    0    0  0.00000000000E+00  0.00000000000E+00 -0.27488855560E+03  0.53621623050E+03  0.46039562101E+03 0.  0.
      99925    2    3    3    0    0  0.78489139291E+02  0.29249276694E+02 -0.26911935119E+03  0.38556146956E+03  0.26309001587E+03 0.  0.
         25    1    3    3    0    0 -0.78489139291E+02 -0.29249276694E+02 -0.57692044133E+01  0.15065476094E+03  0.12509000000E+03 0.  0.
         25    1    4    4    0    0  0.54470333085E+02 -0.20110397410E+02 -0.15584109838E+03  0.20809949859E+03  0.12509000000E+03 0.  0.
         25    1    4    4    0    0  0.24018806207E+02  0.49359674104E+02 -0.11327825281E+03  0.17746197097E+03  0.12509000000E+03 0.  0.
<mgrwt>
<rscale>  2 0.46039562E+03</rscale>
<asrwt>0</asrwt>
<pdfrwt beam="1">  1       21 0.19215270E-01 0.46039562E+03</pdfrwt>
<pdfrwt beam="2">  1       21 0.59640058E-01 0.46039562E+03</pdfrwt>
<totfact> 0.60173046E+04</totfact>
</mgrwt>
</event>
<event>
 7    0  0.4779893E-002  0.4521324E+03  0.7546771E-02  0.1027088E+00
         21   -1    0    0  502  501  0.00000000000E+00  0.00000000000E+00  0.64710165423E+02  0.64710165423E+02  0.00000000000E+00 0.  1.
         21   -1    0    0  501  502 -0.00000000000E+00 -0.00000000000E+00 -0.78976663165E+03  0.78976663165E+03  0.00000000000E+00 0.  1.
      99926    2    1    2    0    0  0.00000000000E+00  0.00000000000E+00 -0.72505646622E+03  0.85447679707E+03  0.45213241149E+03 0.  0.
      99925    2    3    3    0    0  0.69938591932E+02  0.29689876667E+02 -0.60900422142E+03  0.66769208934E+03  0.26297089010E+03 0.  0.
         25    1    4    4    0    0  0.97129609406E+01  0.31954625959E+02 -0.36024327378E+03  0.38280303569E+03  0.12509000000E+03 0.  0.
         25    1    3    3    0    0 -0.69938591932E+02 -0.29689876667E+02 -0.11605224480E+03  0.18678470773E+03  0.12509000000E+03 0.  0.
         25    1    4    4    0    0  0.60225630991E+02 -0.22647492923E+01 -0.24876094764E+03  0.28488905365E+03  0.12509000000E+03 0.  0.
<mgrwt>
<rscale>  2 0.45213241E+03</rscale>
<asrwt>0</asrwt>
<pdfrwt beam="1">  1       21 0.95162022E-02 0.45213241E+03</pdfrwt>
<pdfrwt beam="2">  1       21 0.11614213E+00 0.45213241E+03</pdfrwt>
<totfact> 0.46271840E+04</totfact>
</mgrwt>
</event>
<event>
 7    0  0.4779893E-002  0.4349446E+03  0.7546771E-02  0.1032309E+00
         21   -1    0    0  502  501  0.00000000000E+00  0.00000000000E+00  0.23259535943E+03  0.23259535943E+03  0.00000000000E+00 0.  1.
         21   -1    0    0  501  502 -0.00000000000E+00 -0.00000000000E+00 -0.20333251161E+03  0.20333251161E+03  0.00000000000E+00 0.  1.
      99926    2    1    2    0    0  0.71054273576E-14  0.00000000000E+00  0.29262847822E+02  0.43592787105E+03  0.43494458784E+03 0.  0.
      99925    2    3    3    0    0  0.59897354148E+02  0.47646271837E+02  0.72101130520E+02  0.28315193440E+03  0.26290413591E+03 0.  0.
         25    1    3    3    0    0 -0.59897354148E+02 -0.47646271837E+02 -0.42838282698E+02  0.15277593665E+03  0.12509000000E+03 0.  0.
         25    1    4    4    0    0  0.14510422007E+01 -0.33892588546E+01  0.18544388725E+02  0.12651084954E+03  0.12509000000E+03 0.  0.
         25    1    4    4    0    0  0.58446311947E+02  0.51035530691E+02  0.53556741794E+02  0.15664108486E+03  0.12509000000E+03 0.  0.
<mgrwt>
<rscale>  2 0.43494459E+03</rscale>
<asrwt>0</asrwt>
<pdfrwt beam="1">  1       21 0.34205200E-01 0.43494459E+03</pdfrwt>
<pdfrwt beam="2">  1       21 0.29901840E-01 0.43494459E+03</pdfrwt>
<totfact> 0.82380172E+04</totfact>
</mgrwt>
</event>
<event>
 7    0  0.4779893E-002  0.4556141E+03  0.7546771E-02  0.1026061E+00
         21   -1    0    0  502  501  0.00000000000E+00  0.00000000000E+00  0.26483791187E+03  0.26483791187E+03  0.00000000000E+00 0.  1.
         21   -1    0    0  501  502 -0.00000000000E+00 -0.00000000000E+00 -0.19595399831E+03  0.19595399831E+03  0.00000000000E+00 0.  1.
      99926    2    1    2    0    0  0.00000000000E+00  0.00000000000E+00  0.68883913560E+02  0.46079191019E+03  0.45561408116E+03 0.  0.
      99925    2    3    3    0    0 -0.98230584667E+02  0.42600628377E+02  0.82080626180E+02  0.29560800472E+03  0.26302623816E+03 0.  0.
         25    1    4    4    0    0 -0.17312388800E+02  0.44866397055E+02  0.51072621439E+02  0.14341768772E+03  0.12509000000E+03 0.  0.
         25    1    3    3    0    0  0.98230584667E+02 -0.42600628377E+02 -0.13196712620E+02  0.16518390547E+03  0.12509000000E+03 0.  0.
         25    1    4    4    0    0 -0.80918195866E+02 -0.22657686785E+01  0.31008004741E+02  0.15219031700E+03  0.12509000000E+03 0.  0.
<mgrwt>
<rscale>  2 0.45561408E+03</rscale>
<asrwt>0</asrwt>
<pdfrwt beam="1">  1       21 0.38946752E-01 0.45561408E+03</pdfrwt>
<pdfrwt beam="2">  1       21 0.28816764E-01 0.45561408E+03</pdfrwt>
<totfact> 0.67790309E+04</totfact>
</mgrwt>
</event>
<event>
 7    0  0.4779893E-002  0.4572181E+03  0.7546771E-02  0.1025591E+00
         21   -1    0    0  502  501  0.00000000000E+00  0.00000000000E+00  0.13495345580E+03  0.13495345580E+03  0.00000000000E+00 0. -1.
         21   -1    0    0  501  502 -0.00000000000E+00 -0.00000000000E+00 -0.38726012942E+03  0.38726012942E+03  0.00000000000E+00 0. -1.
      99926    2    1    2    0    0  0.00000000000E+00  0.17763568394E-14 -0.25230667362E+03  0.52221358522E+03  0.45721807820E+03 0.  0.
      99925    2    3    3    0    0 -0.39511321685E+02  0.13737996768E+02 -0.35877423924E+02  0.26875943686E+03  0.26304860436E+03 0.  0.
         25    1    4    4    0    0 -0.10208222316E+02  0.23494302768E+02 -0.54018476969E+02  0.13864232406E+03  0.12509000000E+03 0.  0.
         25    1    4    4    0    0 -0.29303099368E+02 -0.97563060001E+01  0.18141053045E+02  0.13011711281E+03  0.12509000000E+03 0.  0.
         25    1    3    3    0    0  0.39511321685E+02 -0.13737996768E+02 -0.21642924969E+03  0.25345414836E+03  0.12509000000E+03 0.  0.
<mgrwt>
<rscale>  2 0.45721808E+03</rscale>
<asrwt>0</asrwt>
<pdfrwt beam="1">  1       21 0.19846097E-01 0.45721808E+03</pdfrwt>
<pdfrwt beam="2">  1       21 0.56950019E-01 0.45721808E+03</pdfrwt>
<totfact> 0.62627343E+04</totfact>
</mgrwt>
</event>
<event>
 7    0  0.4779893E-002  0.4532121E+03  0.7546771E-02  0.1026768E+00
         21   -1    0    0  502  501  0.00000000000E+00  0.00000000000E+00  0.92498912385E+03  0.92498912385E+03  0.00000000000E+00 0. -1.
         21   -1    0    0  501  502 -0.00000000000E+00 -0.00000000000E+00 -0.55514501140E+02  0.55514501140E+02  0.00000000000E+00 0. -1.
      99926    2    1    2    0    0  0.00000000000E+00 -0.88817841970E-15  0.86947462271E+03  0.98050362499E+03  0.45321213475E+03 0.  0.
      99925    2    3    3    0    0  0.50628675106E+02  0.11723483533E+01  0.76291577560E+03  0.80855324511E+03  0.26297002182E+03 0.  0.
         25    1    4    4    0    0  0.46598148329E+02  0.12341827802E+02  0.49165372037E+03  0.50960239108E+03  0.12509000000E+03 0.  0.
         25    1    4    4    0    0  0.40305267771E+01 -0.11169479449E+02  0.27126205523E+03  0.29895085403E+03  0.12509000000E+03 0.  0.
         25    1    3    3    0    0 -0.50628675106E+02 -0.11723483533E+01  0.10655884711E+03  0.17195037988E+03  0.12509000000E+03 0.  0.
<mgrwt>
<rscale>  2 0.45321213E+03</rscale>
<asrwt>0</asrwt>
<pdfrwt beam="1">  1       21 0.13602780E+00 0.45321213E+03</pdfrwt>
<pdfrwt beam="2">  1       21 0.81638978E-02 0.45321213E+03</pdfrwt>
<totfact> 0.40492491E+04</totfact>
</mgrwt>
</event>
<event>
 7    0  0.4779893E-002  0.4473227E+03  0.7546771E-02  0.1028523E+00
         21   -1    0    0  502  501  0.00000000000E+00  0.00000000000E+00  0.98920654786E+02  0.98920654786E+02  0.00000000000E+00 0. -1.
         21   -1    0    0  501  502 -0.00000000000E+00 -0.00000000000E+00 -0.50570228460E+03  0.50570228460E+03  0.00000000000E+00 0. -1.
      99926    2    1    2    0    0  0.00000000000E+00 -0.17763568394E-14 -0.40678162982E+03  0.60462293939E+03  0.44732270731E+03 0.  0.
      99925    2    3    3    0    0  0.71263031903E+02  0.93069017723E+01 -0.36293879150E+03  0.45384250064E+03  0.26283723266E+03 0.  0.
         25    1    4    4    0    0  0.63521703143E+02 -0.18211466262E+02 -0.15831974365E+03  0.21231889601E+03  0.12509000000E+03 0.  0.
         25    1    3    3    0    0 -0.71263031903E+02 -0.93069017723E+01 -0.43842838311E+02  0.15078043874E+03  0.12509000000E+03 0.  0.
         25    1    4    4    0    0  0.77413287601E+01  0.27518368034E+02 -0.20461904785E+03  0.24152360463E+03  0.12509000000E+03 0.  0.
<mgrwt>
<rscale>  2 0.44732271E+03</rscale>
<asrwt>0</asrwt>
<pdfrwt beam="1">  1       21 0.14547155E-01 0.44732271E+03</pdfrwt>
<pdfrwt beam="2">  1       21 0.74367982E-01 0.44732271E+03</pdfrwt>
<totfact> 0.62074618E+04</totfact>
</mgrwt>
</event>
<event>
 7    0  0.4779893E-002  0.4705654E+03  0.7546771E-02  0.1021761E+00
         21   -1    0    0  502  501  0.00000000000E+00  0.00000000000E+00  0.16055949347E+03  0.16055949347E+03  0.00000000000E+00 0.  1.
         21   -1    0    0  501  502 -0.00000000000E+00 -0.00000000000E+00 -0.34478148218E+03  0.34478148218E+03  0.00000000000E+00 0.  1.
      99926    2    1    2    0    0 -0.14210854715E-13  0.00000000000E+00 -0.18422198871E+03  0.50534097565E+03  0.47056536268E+03 0.  0.
      99925    2    3    3    0    0  0.83034147369E+02 -0.38157731284E+02 -0.19318238637E+02  0.27908572826E+03  0.26299233314E+03 0.  0.
         25    1    4    4    0    0  0.29814774320E+02 -0.52426279562E+02  0.10211173348E+02  0.13924514971E+03  0.12509000000E+03 0.  0.
         25    1    3    3    0    0 -0.83034147369E+02  0.38157731284E+02 -0.16490375007E+03  0.22625524739E+03  0.12509000000E+03 0.  0.
         25    1    4    4    0    0  0.53219373049E+02  0.14268548278E+02 -0.29529411985E+02  0.13984057855E+03  0.12509000000E+03 0.  0.
<mgrwt>
<rscale>  2 0.47056536E+03</rscale>
<asrwt>0</asrwt>
<pdfrwt beam="1">  1       21 0.23611691E-01 0.47056536E+03</pdfrwt>
<pdfrwt beam="2">  1       21 0.50703158E-01 0.47056536E+03</pdfrwt>
<totfact> 0.57461869E+04</totfact>
</mgrwt>
</event>
<event>
 7    0  0.4779893E-002  0.4537841E+03  0.7546771E-02  0.1026600E+00
         21   -1    0    0  502  501  0.00000000000E+00  0.00000000000E+00  0.22305969512E+03  0.22305969512E+03  0.00000000000E+00 0.  1.
         21   -1    0    0  501  502 -0.00000000000E+00 -0.00000000000E+00 -0.23079022407E+03  0.23079022407E+03  0.00000000000E+00 0.  1.
      99926    2    1    2    0    0  0.00000000000E+00  0.00000000000E+00 -0.77305289520E+01  0.45384991920E+03  0.45378407649E+03 0.  0.
      99925    2    3    3    0    0  0.65979813963E+02  0.85626103666E+02 -0.34457107197E+02  0.28637758248E+03  0.26294421848E+03 0.  0.
         25    1    4    4    0    0  0.33565658512E+02  0.19755904591E+02 -0.50590081058E+02  0.14044149529E+03  0.12509000000E+03 0.  0.
         25    1    3    3    0    0 -0.65979813963E+02 -0.85626103666E+02  0.26726578245E+02  0.16747233671E+03  0.12509000000E+03 0.  0.
         25    1    4    4    0    0  0.32414155451E+02  0.65870199075E+02  0.16132973861E+02  0.14593608719E+03  0.12509000000E+03 0.  0.
<mgrwt>
<rscale>  2 0.45378408E+03</rscale>
<asrwt>0</asrwt>
<pdfrwt beam="1">  1       21 0.32802897E-01 0.45378408E+03</pdfrwt>
<pdfrwt beam="2">  1       21 0.33939739E-01 0.45378408E+03</pdfrwt>
<totfact> 0.69300028E+04</totfact>
</mgrwt>
</event>
<event>
 7    0  0.4779893E-002  0.4543635E+03  0.7546771E-02  0.1026429E+00
         21   -1    0    0  502  501  0.00000000000E+00  0.00000000000E+00  0.17107765240E+04  0.17107765240E+04  0.00000000000E+00 0.  1.
         21   -1    0    0  501  502 -0.00000000000E+00 -0.00000000000E+00 -0.30168487282E+02  0.30168487282E+02  0.00000000000E+00 0.  1.
      99926    2    1    2    0    0  0.00000000000E+00  0.00000000000E+00  0.16806080367E+04  0.17409450112E+04  0.45436346598E+03 0.  0.
      99925    2    3    3    0    0 -0.52766214164E+01 -0.55330394724E+02  0.14333179924E+04  0.14582982893E+04  0.26295272957E+03 0.  0.
         25    1    4    4    0    0 -0.15482286453E+02 -0.66148522410E+02  0.71842976854E+03  0.73239618284E+03  0.12509000000E+03 0.  0.
         25    1    4    4    0    0  0.10205665036E+02  0.10818127685E+02  0.71488822384E+03  0.72590210647E+03  0.12509000000E+03 0.  0.
         25    1    3    3    0    0  0.52766214164E+01  0.55330394724E+02  0.24729004430E+03  0.28264672194E+03  0.12509000000E+03 0.  0.
<mgrwt>
<rscale>  2 0.45436347E+03</rscale>
<asrwt>0</asrwt>
<pdfrwt beam="1">  1       21 0.25158472E+00 0.45436347E+03</pdfrwt>
<pdfrwt beam="2">  1       21 0.44365434E-02 0.45436347E+03</pdfrwt>
<totfact> 0.18513621E+04</totfact>
</mgrwt>
</event>
<event>
 7    0  0.4779893E-002  0.4842749E+03  0.7546771E-02  0.1017967E+00
         21   -1    0    0  502  501  0.00000000000E+00  0.00000000000E+00  0.37215021914E+03  0.37215021914E+03  0.00000000000E+00 0. -1.
         21   -1    0    0  501  502 -0.00000000000E+00 -0.00000000000E+00 -0.15754534464E+03  0.15754534464E+03  0.00000000000E+00 0. -1.
      99926    2    1    2    0    0  0.00000000000E+00  0.17763568394E-14  0.21460487450E+03  0.52969556378E+03  0.48427485804E+03 0.  0.
      99925    2    3    3    0    0  0.40390533278E+02  0.94899604854E+01 -0.13257952585E+02  0.26646480837E+03  0.26288070729E+03 0.  0.
         25    1    3    3    0    0 -0.40390533278E+02 -0.94899604854E+01  0.22786282708E+03  0.26323075541E+03  0.12509000000E+03 0.  0.
         25    1    4    4    0    0  0.42388190106E+02 -0.17944442835E+02 -0.31852891752E+02  0.13704333804E+03  0.12509000000E+03 0.  0.
         25    1    4    4    0    0 -0.19976568284E+01  0.27434403320E+02  0.18594939167E+02  0.12942147032E+03  0.12509000000E+03 0.  0.
<mgrwt>
<rscale>  2 0.48427486E+03</rscale>
<asrwt>0</asrwt>
<pdfrwt beam="1">  1       21 0.54727973E-01 0.48427486E+03</pdfrwt>
<pdfrwt beam="2">  1       21 0.23168433E-01 0.48427486E+03</pdfrwt>
<totfact> 0.50451992E+04</totfact>
</mgrwt>
</event>
<event>
 7    0  0.4779893E-002  0.4685574E+03  0.7546771E-02  0.1022328E+00
         21   -1    0    0  502  501  0.00000000000E+00  0.00000000000E+00  0.44758086866E+03  0.44758086866E+03  0.00000000000E+00 0. -1.
         21   -1    0    0  501  502 -0.00000000000E+00 -0.00000000000E+00 -0.12262926642E+03  0.12262926642E+03  0.00000000000E+00 0. -1.
      99926    2    1    2    0    0  0.00000000000E+00  0.00000000000E+00  0.32495160224E+03  0.57021013509E+03  0.46855741842E+03 0.  0.
      99925    2    3    3    0    0  0.41963931013E+02 -0.10959251628E+03  0.14761770490E+03  0.32349914957E+03  0.26284828674E+03 0.  0.
         25    1    4    4    0    0  0.35213559992E+02 -0.69067377701E+02  0.11778713482E+03  0.18849831484E+03  0.12509000000E+03 0.  0.
         25    1    3    3    0    0 -0.41963931013E+02  0.10959251628E+03  0.17733389734E+03  0.24671098552E+03  0.12509000000E+03 0.  0.
         25    1    4    4    0    0  0.67503710209E+01 -0.40525138576E+02  0.29830570081E+02  0.13500083473E+03  0.12509000000E+03 0.  0.
<mgrwt>
<rscale>  2 0.46855742E+03</rscale>
<asrwt>0</asrwt>
<pdfrwt beam="1">  1       21 0.65820715E-01 0.46855742E+03</pdfrwt>
<pdfrwt beam="2">  1       21 0.18033716E-01 0.46855742E+03</pdfrwt>
<totfact> 0.54471200E+04</totfact>
</mgrwt>
</event>
<event>
 7    0  0.4779893E-002  0.4532014E+03  0.7546771E-02  0.1026772E+00
         21   -1    0    0  502  501  0.00000000000E+00  0.00000000000E+00  0.31691559533E+03  0.31691559533E+03  0.00000000000E+00 0.  1.
         21   -1    0    0  501  502 -0.00000000000E+00 -0.00000000000E+00 -0.16202384714E+03  0.16202384714E+03  0.00000000000E+00 0.  1.
      99926    2    1    2    0    0 -0.71054273576E-14  0.00000000000E+00  0.15489174819E+03  0.47893944246E+03  0.45320142971E+03 0.  0.
      99925    2    3    3    0    0 -0.60178293294E+02  0.90044227244E+02  0.69857069660E+02  0.29290773953E+03  0.26303145031E+03 0.  0.
         25    1    4    4    0    0 -0.38338519686E+01  0.14313309471E+02  0.47453258660E+02  0.13460642298E+03  0.12509000000E+03 0.  0.
         25    1    4    4    0    0 -0.56344441326E+02  0.75730917773E+02  0.22403811000E+02  0.15830131655E+03  0.12509000000E+03 0.  0.
         25    1    3    3    0    0  0.60178293294E+02 -0.90044227244E+02  0.85034678533E+02  0.18603170294E+03  0.12509000000E+03 0.  0.
<mgrwt>
<rscale>  2 0.45320143E+03</rscale>
<asrwt>0</asrwt>
<pdfrwt beam="1">  1       21 0.46605235E-01 0.45320143E+03</pdfrwt>
<pdfrwt beam="2">  1       21 0.23827036E-01 0.45320143E+03</pdfrwt>
<totfact> 0.67739274E+04</totfact>
</mgrwt>
</event>
<event>
 7    0  0.4779893E-002  0.4371459E+03  0.7546771E-02  0.1031626E+00
         21   -1    0    0  502  501  0.00000000000E+00  0.00000000000E+00  0.10184682750E+03  0.10184682750E+03  0.00000000000E+00 0.  1.
         21   -1    0    0  501  502 -0.00000000000E+00 -0.00000000000E+00 -0.46907822985E+03  0.46907822985E+03  0.00000000000E+00 0.  1.
      99926    2    1    2    0    0  0.88817841970E-15  0.14210854715E-13 -0.36723140235E+03  0.57092505736E+03  0.43714587754E+03 0.  0.
      99925    2    3    3    0    0 -0.31897205865E+01 -0.90911804293E+02 -0.19662363525E+03  0.34064338468E+03  0.26287246168E+03 0.  0.
         25    1    3    3    0    0  0.31897205865E+01  0.90911804293E+02 -0.17060776710E+03  0.23028167268E+03  0.12509000000E+03 0.  0.
         25    1    4    4    0    0  0.12517856255E+02 -0.71843733407E+01 -0.75685338289E+02  0.14691524930E+03  0.12509000000E+03 0.  0.
         25    1    4    4    0    0 -0.15707576842E+02 -0.83727430952E+02 -0.12093829696E+03  0.19372813537E+03  0.12509000000E+03 0.  0.
<mgrwt>
<rscale>  2 0.43714588E+03</rscale>
<asrwt>0</asrwt>
<pdfrwt beam="1">  1       21 0.14977475E-01 0.43714588E+03</pdfrwt>
<pdfrwt beam="2">  1       21 0.68982093E-01 0.43714588E+03</pdfrwt>
<totfact> 0.69856669E+04</totfact>
</mgrwt>
</event>
<event>
 7    0  0.4779893E-002  0.4636046E+03  0.7546771E-02  0.1023741E+00
         21   -1    0    0  502  501  0.00000000000E+00  0.00000000000E+00  0.36492615607E+03  0.36492615607E+03  0.00000000000E+00 0. -1.
         21   -1    0    0  501  502 -0.00000000000E+00 -0.00000000000E+00 -0.14724160725E+03  0.14724160725E+03  0.00000000000E+00 0. -1.
      99926    2    1    2    0    0  0.00000000000E+00  0.00000000000E+00  0.21768454882E+03  0.51216776332E+03  0.46360463220E+03 0.  0.
      99925    2    3    3    0    0 -0.57101164499E+02  0.73899887065E+02  0.50838815626E+02  0.28367981380E+03  0.26299793780E+03 0.  0.
         25    1    3    3    0    0  0.57101164499E+02 -0.73899887065E+02  0.16684573319E+03  0.22848794953E+03  0.12509000000E+03 0.  0.
         25    1    4    4    0    0 -0.51846045092E+02  0.76861026143E+01  0.86664017196E+01  0.13590328614E+03  0.12509000000E+03 0.  0.
         25    1    4    4    0    0 -0.52551194064E+01  0.66213784451E+02  0.42172413907E+02  0.14777652766E+03  0.12509000000E+03 0.  0.
<mgrwt>
<rscale>  2 0.46360463E+03</rscale>
<asrwt>0</asrwt>
<pdfrwt beam="1">  1       21 0.53665611E-01 0.46360463E+03</pdfrwt>
<pdfrwt beam="2">  1       21 0.21653178E-01 0.46360463E+03</pdfrwt>
<totfact> 0.60206062E+04</totfact>
</mgrwt>
</event>
<event>
 7    0  0.4779893E-002  0.4571436E+03  0.7546771E-02  0.1025613E+00
         21   -1    0    0  502  501  0.00000000000E+00  0.00000000000E+00  0.98539218244E+02  0.98539218244E+02  0.00000000000E+00 0.  1.
         21   -1    0    0  501  502 -0.00000000000E+00 -0.00000000000E+00 -0.53019570839E+03  0.53019570839E+03  0.00000000000E+00 0.  1.
      99926    2    1    2    0    0  0.14210854715E-13 -0.71054273576E-14 -0.43165649014E+03  0.62873492663E+03  0.45714361254E+03 0.  0.
      99925    2    3    3    0    0  0.92213142298E+02 -0.57523062508E+02 -0.21895694322E+03  0.35910412036E+03  0.26306170367E+03 0.  0.
         25    1    4    4    0    0  0.58685097468E+02 -0.15937253699E+02 -0.64566934435E+02  0.15334384188E+03  0.12509000000E+03 0.  0.
         25    1    3    3    0    0 -0.92213142298E+02  0.57523062508E+02 -0.21269954692E+03  0.26963080628E+03  0.12509000000E+03 0.  0.
         25    1    4    4    0    0  0.33528044831E+02 -0.41585808810E+02 -0.15439000879E+03  0.20576027848E+03  0.12509000000E+03 0.  0.
<mgrwt>
<rscale>  2 0.45714361E+03</rscale>
<asrwt>0</asrwt>
<pdfrwt beam="1">  1       21 0.14491061E-01 0.45714361E+03</pdfrwt>
<pdfrwt beam="2">  1       21 0.77969958E-01 0.45714361E+03</pdfrwt>
<totfact> 0.55989980E+04</totfact>
</mgrwt>
</event>
<event>
 7    0  0.4779893E-002  0.4543915E+03  0.7546771E-02  0.1026421E+00
         21   -1    0    0  502  501  0.00000000000E+00  0.00000000000E+00  0.88033343972E+03  0.88033343972E+03  0.00000000000E+00 0.  1.
         21   -1    0    0  501  502 -0.00000000000E+00 -0.00000000000E+00 -0.58634486223E+02  0.58634486223E+02  0.00000000000E+00 0.  1.
      99926    2    1    2    0    0  0.00000000000E+00  0.00000000000E+00  0.82169895350E+03  0.93896792595E+03  0.45439145653E+03 0.  0.
      99925    2    3    3    0    0  0.66512158007E+02 -0.83459301058E+02  0.59153815214E+03  0.65610607861E+03  0.26299900923E+03 0.  0.
         25    1    4    4    0    0  0.35513667897E+02 -0.69504811485E+02  0.38490572244E+03  0.41217964857E+03  0.12509000000E+03 0.  0.
         25    1    4    4    0    0  0.30998490111E+02 -0.13954489573E+02  0.20663242970E+03  0.24392643004E+03  0.12509000000E+03 0.  0.
         25    1    3    3    0    0 -0.66512158007E+02  0.83459301058E+02  0.23016080136E+03  0.28286184734E+03  0.12509000000E+03 0.  0.
<mgrwt>
<rscale>  2 0.45439146E+03</rscale>
<asrwt>0</asrwt>
<pdfrwt beam="1">  1       21 0.12946079E+00 0.45439146E+03</pdfrwt>
<pdfrwt beam="2">  1       21 0.86227191E-02 0.45439146E+03</pdfrwt>
<totfact> 0.41789314E+04</totfact>
</mgrwt>
</event>
<event>
 7    0  0.4779893E-002  0.4481873E+03  0.7546771E-02  0.1028264E+00
         21   -1    0    0  502  501  0.00000000000E+00  0.00000000000E+00  0.14509036700E+04  0.14509036700E+04  0.00000000000E+00 0.  1.
         21   -1    0    0  501  502 -0.00000000000E+00 -0.00000000000E+00 -0.34611510340E+02  0.34611510340E+02  0.00000000000E+00 0.  1.
      99926    2    1    2    0    0 -0.35527136788E-14 -0.71054273576E-14  0.14162921596E+04  0.14855151803E+04  0.44818731520E+03 0.  0.
      99925    2    3    3    0    0  0.11396908834E+02 -0.58666609493E+02  0.11895058860E+04  0.12197122785E+04  0.26306297517E+03 0.  0.
         25    1    4    4    0    0  0.40068744052E+02 -0.51525844336E+02  0.60292864700E+03  0.61921795707E+03  0.12509000000E+03 0.  0.
         25    1    4    4    0    0 -0.28671835218E+02 -0.71407651565E+01  0.58657723903E+03  0.60049432147E+03  0.12509000000E+03 0.  0.
         25    1    3    3    0    0 -0.11396908834E+02  0.58666609493E+02  0.22678627361E+03  0.26580290179E+03  0.12509000000E+03 0.  0.
<mgrwt>
<rscale>  2 0.44818732E+03</rscale>
<asrwt>0</asrwt>
<pdfrwt beam="1">  1       21 0.21336815E+00 0.44818732E+03</pdfrwt>
<pdfrwt beam="2">  1       21 0.50899290E-02 0.44818732E+03</pdfrwt>
<totfact> 0.25457140E+04</totfact>
</mgrwt>
</event>
<event>
 7    0  0.4779893E-002  0.4536892E+03  0.7546771E-02  0.1026628E+00
         21   -1    0    0  502  501  0.00000000000E+00  0.00000000000E+00  0.14794666676E+03  0.14794666676E+03  0.00000000000E+00 0.  1.
         21   -1    0    0  501  502 -0.00000000000E+00 -0.00000000000E+00 -0.34781771475E+03  0.34781771475E+03  0.00000000000E+00 0.  1.
      99926    2    1    2    0    0 -0.14210854715E-13  0.00000000000E+00 -0.19987104799E+03  0.49576438150E+03  0.45368919553E+03 0.  0.
      99925    2    3    3    0    0 -0.75707837715E+02 -0.71822830641E+02 -0.17023816633E+03  0.33018717453E+03  0.26296832748E+03 0.  0.
         25    1    4    4    0    0 -0.64116379551E+02 -0.71419843343E+01 -0.97910125204E+02  0.17145208889E+03  0.12509000000E+03 0.  0.
         25    1    3    3    0    0  0.75707837715E+02  0.71822830641E+02 -0.29632881664E+02  0.16557720697E+03  0.12509000000E+03 0.  0.
         25    1    4    4    0    0 -0.11591458163E+02 -0.64680846306E+02 -0.72328041124E+02  0.15873508564E+03  0.12509000000E+03 0.  0.
<mgrwt>
<rscale>  2 0.45368920E+03</rscale>
<asrwt>0</asrwt>
<pdfrwt beam="1">  1       21 0.21756863E-01 0.45368920E+03</pdfrwt>
<pdfrwt beam="2">  1       21 0.51149663E-01 0.45368920E+03</pdfrwt>
<totfact> 0.66256020E+04</totfact>
</mgrwt>
</event>
<event>
 7    0  0.4779893E-002  0.4561612E+03  0.7546771E-02  0.1025900E+00
         21   -1    0    0  502  501  0.00000000000E+00  0.00000000000E+00  0.60045325607E+02  0.60045325607E+02  0.00000000000E+00 0. -1.
         21   -1    0    0  501  502 -0.00000000000E+00 -0.00000000000E+00 -0.86635825928E+03  0.86635825928E+03  0.00000000000E+00 0. -1.
      99926    2    1    2    0    0  0.00000000000E+00  0.00000000000E+00 -0.80631293368E+03  0.92640358489E+03  0.45616121611E+03 0.  0.
      99925    2    3    3    0    0  0.82757320345E+02  0.76241470621E+02 -0.46604378479E+03  0.54680888300E+03  0.26294792123E+03 0.  0.
         25    1    4    4    0    0  0.73642774696E+02  0.62315303316E+02 -0.28961247198E+03  0.32989293312E+03  0.12509000000E+03 0.  0.
         25    1    4    4    0    0  0.91145456489E+01  0.13926167305E+02 -0.17643131280E+03  0.21691594989E+03  0.12509000000E+03 0.  0.
         25    1    3    3    0    0 -0.82757320345E+02 -0.76241470621E+02 -0.34026914889E+03  0.37959470189E+03  0.12509000000E+03 0.  0.
<mgrwt>
<rscale>  2 0.45616122E+03</rscale>
<asrwt>0</asrwt>
<pdfrwt beam="1">  1       21 0.88301947E-02 0.45616122E+03</pdfrwt>
<pdfrwt beam="2">  1       21 0.12740563E+00 0.45616122E+03</pdfrwt>
<totfact> 0.41731075E+04</totfact>
</mgrwt>
</event>
<event>
 7    0  0.4779893E-002  0.4518724E+03  0.7546771E-02  0.1027165E+00
         21   -1    0    0  502  501  0.00000000000E+00  0.00000000000E+00  0.94153517981E+03  0.94153517981E+03  0.00000000000E+00 0.  1.
         21   -1    0    0  501  502 -0.00000000000E+00 -0.00000000000E+00 -0.54216957623E+02  0.54216957623E+02  0.00000000000E+00 0.  1.
      99926    2    1    2    0    0  0.00000000000E+00 -0.88817841970E-15  0.88731822218E+03  0.99575213743E+03  0.45187242865E+03 0.  0.
      99925    2    3    3    0    0  0.89789816013E+02 -0.72109453241E+01  0.69981484741E+03  0.75301929572E+03  0.26302667219E+03 0.  0.
         25    1    4    4    0    0  0.52919698499E+02 -0.30584640262E+02  0.43793405038E+03  0.45953199594E+03  0.12509000000E+03 0.  0.
         25    1    4    4    0    0  0.36870117514E+02  0.23373694938E+02  0.26188079703E+03  0.29348729978E+03  0.12509000000E+03 0.  0.
         25    1    3    3    0    0 -0.89789816013E+02  0.72109453241E+01  0.18750337478E+03  0.24273284171E+03  0.12509000000E+03 0.  0.
<mgrwt>
<rscale>  2 0.45187243E+03</rscale>
<asrwt>0</asrwt>
<pdfrwt beam="1">  1       21 0.13846105E+00 0.45187243E+03</pdfrwt>
<pdfrwt beam="2">  1       21 0.79730826E-02 0.45187243E+03</pdfrwt>
<totfact> 0.40308057E+04</totfact>
</mgrwt>
</event>
<event>
 7    0  0.4779893E-002  0.4518458E+03  0.7546771E-02  0.1027173E+00
         21   -1    0    0  502  501  0.00000000000E+00  0.00000000000E+00  0.85035675559E+03  0.85035675559E+03  0.00000000000E+00 0. -1.
         21   -1    0    0  501  502 -0.00000000000E+00 -0.00000000000E+00 -0.60023235253E+02  0.60023235253E+02  0.00000000000E+00 0. -1.
      99926    2    1    2    0    0  0.00000000000E+00  0.00000000000E+00  0.79033352034E+03  0.91037999085E+03  0.45184583030E+03 0.  0.
      99925    2    3    3    0    0  0.35876825829E+02 -0.10205805735E+03  0.54580295530E+03  0.61517548708E+03  0.26236810057E+03 0.  0.
         25    1    4    4    0    0 -0.42913097598E+01 -0.56937120688E+02  0.20190827227E+03  0.24428407554E+03  0.12509000000E+03 0.  0.
         25    1    3    3    0    0 -0.35876825829E+02  0.10205805735E+03  0.24453056504E+03  0.29520450376E+03  0.12509000000E+03 0.  0.
         25    1    4    4    0    0  0.40168135588E+02 -0.45120936664E+02  0.34389468303E+03  0.37089141154E+03  0.12509000000E+03 0.  0.
<mgrwt>
<rscale>  2 0.45184583E+03</rscale>
<asrwt>0</asrwt>
<pdfrwt beam="1">  1       21 0.12505246E+00 0.45184583E+03</pdfrwt>
<pdfrwt beam="2">  1       21 0.88269469E-02 0.45184583E+03</pdfrwt>
<totfact> 0.43860623E+04</totfact>
</mgrwt>
</event>
<event>
 7    0  0.4779893E-002  0.4559443E+03  0.7546771E-02  0.1025964E+00
         21   -1    0    0  502  501  0.00000000000E+00  0.00000000000E+00  0.37028454297E+03  0.37028454297E+03  0.00000000000E+00 0.  1.
         21   -1    0    0  501  502 -0.00000000000E+00 -0.00000000000E+00 -0.14035506166E+03  0.14035506166E+03  0.00000000000E+00 0.  1.
      99926    2    1    2    0    0  0.00000000000E+00  0.00000000000E+00  0.22992948131E+03  0.51063960463E+03  0.45594433810E+03 0.  0.
      99925    2    3    3    0    0  0.83971986739E+02  0.29092470881E+02  0.22461617616E+03  0.35710327105E+03  0.26300694513E+03 0.  0.
         25    1    4    4    0    0  0.34215396263E+02  0.30994805919E+02  0.65153208246E+02  0.14840424516E+03  0.12509000000E+03 0.  0.
         25    1    3    3    0    0 -0.83971986739E+02 -0.29092470881E+02  0.53133051551E+01  0.15353633358E+03  0.12509000000E+03 0.  0.
         25    1    4    4    0    0  0.49756590476E+02 -0.19023350382E+01  0.15946296791E+03  0.20869902589E+03  0.12509000000E+03 0.  0.
<mgrwt>
<rscale>  2 0.45594434E+03</rscale>
<asrwt>0</asrwt>
<pdfrwt beam="1">  1       21 0.54453609E-01 0.45594434E+03</pdfrwt>
<pdfrwt beam="2">  1       21 0.20640450E-01 0.45594434E+03</pdfrwt>
<totfact> 0.64048117E+04</totfact>
</mgrwt>
</event>
<event>
 7    0  0.4779893E-002  0.4380541E+03  0.7546771E-02  0.1031346E+00
         21   -1    0    0  502  501  0.00000000000E+00  0.00000000000E+00  0.41074774247E+03  0.41074774247E+03  0.00000000000E+00 0. -1.
         21   -1    0    0  501  502 -0.00000000000E+00 -0.00000000000E+00 -0.11679395535E+03  0.11679395535E+03  0.00000000000E+00 0. -1.
      99926    2    1    2    0    0 -0.35527136788E-14  0.00000000000E+00  0.29395378712E+03  0.52754169781E+03  0.43805412219E+03 0.  0.
      99925    2    3    3    0    0  0.14436140294E+02  0.91159615911E+02  0.15565402396E+03  0.31947245379E+03  0.26327931144E+03 0.  0.
         25    1    4    4    0    0 -0.22452237376E+02  0.37381317469E+02  0.10687166667E+03  0.17020730624E+03  0.12509000000E+03 0.  0.
         25    1    4    4    0    0  0.36888377670E+02  0.53778298442E+02  0.48782357288E+02  0.14926514755E+03  0.12509000000E+03 0.  0.
         25    1    3    3    0    0 -0.14436140294E+02 -0.91159615911E+02  0.13829976316E+03  0.20806924403E+03  0.12509000000E+03 0.  0.
<mgrwt>
<rscale>  2 0.43805412E+03</rscale>
<asrwt>0</asrwt>
<pdfrwt beam="1">  1       21 0.60404079E-01 0.43805412E+03</pdfrwt>
<pdfrwt beam="2">  1       21 0.17175582E-01 0.43805412E+03</pdfrwt>
<totfact> 0.72640534E+04</totfact>
</mgrwt>
</event>
<event>
 7    0  0.4779893E-002  0.4502928E+03  0.7546771E-02  0.1027635E+00
         21   -1    0    0  502  501  0.00000000000E+00  0.00000000000E+00  0.40776655695E+02  0.40776655695E+02  0.00000000000E+00 0. -1.
         21   -1    0    0  501  502 -0.00000000000E+00 -0.00000000000E+00 -0.12431352273E+04  0.12431352273E+04  0.00000000000E+00 0. -1.
      99926    2    1    2    0    0  0.00000000000E+00 -0.88817841970E-15 -0.12023585716E+04  0.12839118830E+04  0.45029278097E+03 0.  0.
      99925    2    3    3    0    0  0.89483790276E+02  0.64361220640E+01 -0.58514837535E+03  0.64779498583E+03  0.26304172694E+03 0.  0.
         25    1    4    4    0    0  0.64677978906E+01  0.99223258553E+01 -0.30654101614E+03  0.33129320493E+03  0.12509000000E+03 0.  0.
         25    1    3    3    0    0 -0.89483790276E+02 -0.64361220640E+01 -0.61721019629E+03  0.63611689720E+03  0.12509000000E+03 0.  0.
         25    1    4    4    0    0  0.83015992386E+02 -0.34862037913E+01 -0.27860735921E+03  0.31650178090E+03  0.12509000000E+03 0.  0.
<mgrwt>
<rscale>  2 0.45029278E+03</rscale>
<asrwt>0</asrwt>
<pdfrwt beam="1">  1       21 0.59965665E-02 0.45029278E+03</pdfrwt>
<pdfrwt beam="2">  1       21 0.18281402E+00 0.45029278E+03</pdfrwt>
<totfact> 0.30694120E+04</totfact>
</mgrwt>
</event>
<event>
 7    0  0.4779893E-002  0.4729883E+03  0.7546771E-02  0.1021080E+00
         21   -1    0    0  502  501  0.00000000000E+00  0.00000000000E+00  0.16604245811E+03  0.16604245811E+03  0.00000000000E+00 0.  1.
         21   -1    0    0  501  502 -0.00000000000E+00 -0.00000000000E+00 -0.33683848634E+03  0.33683848634E+03  0.00000000000E+00 0.  1.
      99926    2    1    2    0    0 -0.71054273576E-14  0.14210854715E-13 -0.17079602823E+03  0.50288094446E+03  0.47298833076E+03 0.  0.
      99925    2    3    3    0    0  0.48367250377E+02 -0.11571200283E+03 -0.71840612360E+02  0.29998111464E+03  0.26286676673E+03 0.  0.
         25    1    4    4    0    0  0.39025979989E+02 -0.90699891055E+02 -0.15180885016E+02  0.16008580425E+03  0.12509000000E+03 0.  0.
         25    1    4    4    0    0  0.93412703884E+01 -0.25012111780E+02 -0.56659727344E+02  0.13989531040E+03  0.12509000000E+03 0.  0.
         25    1    3    3    0    0 -0.48367250377E+02  0.11571200283E+03 -0.98955415868E+02  0.20289982981E+03  0.12509000000E+03 0.  0.
<mgrwt>
<rscale>  2 0.47298833E+03</rscale>
<asrwt>0</asrwt>
<pdfrwt beam="1">  1       21 0.24418009E-01 0.47298833E+03</pdfrwt>
<pdfrwt beam="2">  1       21 0.49535071E-01 0.47298833E+03</pdfrwt>
<totfact> 0.56551418E+04</totfact>
</mgrwt>
</event>
<event>
 6    0  0.4779893E-002  0.4358497E+03  0.7546771E-02  0.1032028E+00
         21   -1    0    0  502  501  0.00000000000E+00  0.00000000000E+00  0.81065618124E+03  0.81065618124E+03  0.00000000000E+00 0. -1.
         21   -1    0    0  501  502 -0.00000000000E+00 -0.00000000000E+00 -0.58583712060E+02  0.58583712060E+02  0.00000000000E+00 0. -1.
      99926    2    1    2    0    0  0.00000000000E+00  0.00000000000E+00  0.75207246918E+03  0.86923989330E+03  0.43584973696E+03 0.  0.
         25    1    3    3    0    0  0.20214779682E+02 -0.60935893406E+02  0.15658506682E+03  0.21044764592E+03  0.12509000000E+03 0.  0.
         25    1    3    3    0    0 -0.40532974269E+02  0.76027591476E+02  0.36473545888E+03  0.39509818999E+03  0.12509000000E+03 0.  0.
         25    1    3    3    0    0  0.20318194587E+02 -0.15091698070E+02  0.23075194349E+03  0.26369405739E+03  0.12509000000E+03 0.  0.
<mgrwt>
<rscale>  2 0.43584974E+03</rscale>
<asrwt>0</asrwt>
<pdfrwt beam="1">  1       21 0.11921414E+00 0.43584974E+03</pdfrwt>
<pdfrwt beam="2">  1       21 0.86152523E-02 0.43584974E+03</pdfrwt>
<totfact> 0.51955125E+04</totfact>
</mgrwt>
</event>
<event>
 7    0  0.4779893E-002  0.4600132E+03  0.7546771E-02  0.1024777E+00
         21   -1    0    0  502  501  0.00000000000E+00  0.00000000000E+00  0.21336715802E+03  0.21336715802E+03  0.00000000000E+00 0. -1.
         21   -1    0    0  501  502 -0.00000000000E+00 -0.00000000000E+00 -0.24794365702E+03  0.24794365702E+03  0.00000000000E+00 0. -1.
      99926    2    1    2    0    0 -0.17763568394E-14  0.00000000000E+00 -0.34576498994E+02  0.46131081504E+03  0.46001318871E+03 0.  0.
      99925    2    3    3    0    0  0.94996224431E+01  0.84162149632E+02  0.60915540500E+02  0.28259386575E+03  0.26263107133E+03 0.  0.
         25    1    3    3    0    0 -0.94996224431E+01 -0.84162149632E+02 -0.95492039494E+02  0.17871694929E+03  0.12509000000E+03 0.  0.
         25    1    4    4    0    0 -0.17896715499E+02  0.10500558088E+02  0.13878720465E+02  0.12755658010E+03  0.12509000000E+03 0.  0.
         25    1    4    4    0    0  0.27396337943E+02  0.73661591544E+02  0.47036820035E+02  0.15503728565E+03  0.12509000000E+03 0.  0.
<mgrwt>
<rscale>  2 0.46001319E+03</rscale>
<asrwt>0</asrwt>
<pdfrwt beam="1">  1       21 0.31377523E-01 0.46001319E+03</pdfrwt>
<pdfrwt beam="2">  1       21 0.36462302E-01 0.46001319E+03</pdfrwt>
<totfact> 0.65429421E+04</totfact>
</mgrwt>
</event>
<event>
 7    0  0.4779893E-002  0.4200874E+03  0.7546771E-02  0.1037038E+00
         21   -1    0    0  502  501  0.00000000000E+00  0.00000000000E+00  0.38521564810E+03  0.38521564810E+03  0.00000000000E+00 0.  1.
         21   -1    0    0  501  502 -0.00000000000E+00 -0.00000000000E+00 -0.11452899983E+03  0.11452899983E+03  0.00000000000E+00 0.  1.
      99926    2    1    2    0    0  0.00000000000E+00  0.00000000000E+00  0.27068664827E+03  0.49974464793E+03  0.42008743326E+03 0.  0.
      99925    2    3    3    0    0  0.39965446901E+02  0.22193036094E+02  0.24857870780E+03  0.36474080751E+03  0.26297284060E+03 0.  0.
         25    1    4    4    0    0 -0.15335833319E+02 -0.52018723013E+01  0.10016701318E+03  0.16106888554E+03  0.12509000000E+03 0.  0.
         25    1    4    4    0    0  0.55301280220E+02  0.27394908395E+02  0.14841169463E+03  0.20367192198E+03  0.12509000000E+03 0.  0.
         25    1    3    3    0    0 -0.39965446901E+02 -0.22193036094E+02  0.22107940470E+02  0.13500384042E+03  0.12509000000E+03 0.  0.
<mgrwt>
<rscale>  2 0.42008743E+03</rscale>
<asrwt>0</asrwt>
<pdfrwt beam="1">  1       21 0.56649360E-01 0.42008743E+03</pdfrwt>
<pdfrwt beam="2">  1       21 0.16842500E-01 0.42008743E+03</pdfrwt>
<totfact> 0.86990222E+04</totfact>
</mgrwt>
</event>
<event>
 6    0  0.4779893E-002  0.4545320E+03  0.7546771E-02  0.1026379E+00
         21   -1    0    0  502  501  0.00000000000E+00  0.00000000000E+00  0.25438429507E+03  0.25438429507E+03  0.00000000000E+00 0. -1.
         21   -1    0    0  501  502 -0.00000000000E+00 -0.00000000000E+00 -0.20303860755E+03  0.20303860755E+03  0.00000000000E+00 0. -1.
      99926    2    1    2    0    0  0.00000000000E+00  0.14210854715E-13  0.51345687518E+02  0.45742290261E+03  0.45453199250E+03 0.  0.
         25    1    3    3    0    0 -0.49306671429E+01 -0.16436681989E+02  0.29737782768E+01  0.12629658527E+03  0.12509000000E+03 0.  0.
         25    1    3    3    0    0  0.65984019620E+02  0.62871116710E+02  0.89435583741E+02  0.17875374094E+03  0.12509000000E+03 0.  0.
         25    1    3    3    0    0 -0.61053352477E+02 -0.46434434721E+02 -0.41063674500E+02  0.15237257640E+03  0.12509000000E+03 0.  0.
<mgrwt>
<rscale>  2 0.45453199E+03</rscale>
<asrwt>0</asrwt>
<pdfrwt beam="1">  1       21 0.37409455E-01 0.45453199E+03</pdfrwt>
<pdfrwt beam="2">  1       21 0.29858619E-01 0.45453199E+03</pdfrwt>
<totfact> 0.68624470E+04</totfact>
</mgrwt>
</event>
<event>
 7    0  0.4779893E-002  0.4560541E+03  0.7546771E-02  0.1025932E+00
         21   -1    0    0  502  501  0.00000000000E+00  0.00000000000E+00  0.14518305621E+03  0.14518305621E+03  0.00000000000E+00 0. -1.
         21   -1    0    0  501  502 -0.00000000000E+00 -0.00000000000E+00 -0.35814328449E+03  0.35814328449E+03  0.00000000000E+00 0. -1.
      99926    2    1    2    0    0  0.00000000000E+00  0.00000000000E+00 -0.21296022828E+03  0.50332634070E+03  0.45605410470E+03 0.  0.
      99925    2    3    3    0    0  0.23722405374E+02  0.10728567949E+03 -0.16835235104E+03  0.33095946351E+03  0.26290432261E+03 0.  0.
         25    1    4    4    0    0  0.98918143442E+00  0.85688267212E+02 -0.62045413310E+02  0.16383100754E+03  0.12509000000E+03 0.  0.
         25    1    4    4    0    0  0.22733223939E+02  0.21597412276E+02 -0.10630693773E+03  0.16712845598E+03  0.12509000000E+03 0.  0.
         25    1    3    3    0    0 -0.23722405374E+02 -0.10728567949E+03 -0.44607877236E+02  0.17236687719E+03  0.12509000000E+03 0.  0.
<mgrwt>
<rscale>  2 0.45605410E+03</rscale>
<asrwt>0</asrwt>
<pdfrwt beam="1">  1       21 0.21350450E-01 0.45605410E+03</pdfrwt>
<pdfrwt beam="2">  1       21 0.52668129E-01 0.45605410E+03</pdfrwt>
<totfact> 0.64496263E+04</totfact>
</mgrwt>
</event>
<event>
 7    0  0.4779893E-002  0.4504940E+03  0.7546771E-02  0.1027575E+00
         21   -1    0    0  502  501  0.00000000000E+00  0.00000000000E+00  0.45625126538E+03  0.45625126538E+03  0.00000000000E+00 0.  1.
         21   -1    0    0  501  502 -0.00000000000E+00 -0.00000000000E+00 -0.11120234879E+03  0.11120234879E+03  0.00000000000E+00 0.  1.
      99926    2    1    2    0    0 -0.22204460493E-15  0.00000000000E+00  0.34504891659E+03  0.56745361417E+03  0.45049400596E+03 0.  0.
      99925    2    3    3    0    0 -0.10341093246E+01 -0.42523765026E+02  0.34432030145E+03  0.43532723924E+03  0.26295245817E+03 0.  0.
         25    1    4    4    0    0  0.72766535970E+00 -0.88429393005E+01  0.23260491760E+03  0.26425609333E+03  0.12509000000E+03 0.  0.
         25    1    3    3    0    0  0.10341093246E+01  0.42523765026E+02  0.72861513644E+00  0.13212637494E+03  0.12509000000E+03 0.  0.
         25    1    4    4    0    0 -0.17617746843E+01 -0.33680825726E+02  0.11171538385E+03  0.17107114590E+03  0.12509000000E+03 0.  0.
<mgrwt>
<rscale>  2 0.45049401E+03</rscale>
<asrwt>0</asrwt>
<pdfrwt beam="1">  1       21 0.67095774E-01 0.45049401E+03</pdfrwt>
<pdfrwt beam="2">  1       21 0.16353287E-01 0.45049401E+03</pdfrwt>
<totfact> 0.62940746E+04</totfact>
</mgrwt>
</event>
<event>
 7    0  0.4779893E-002  0.4618923E+03  0.7546771E-02  0.1024234E+00
         21   -1    0    0  502  501  0.00000000000E+00  0.00000000000E+00  0.13754335193E+03  0.13754335193E+03  0.00000000000E+00 0. -1.
         21   -1    0    0  501  502 -0.00000000000E+00 -0.00000000000E+00 -0.38777687552E+03  0.38777687552E+03  0.00000000000E+00 0. -1.
      99926    2    1    2    0    0  0.71054273576E-14  0.00000000000E+00 -0.25023352359E+03  0.52532022746E+03  0.46189233058E+03 0.  0.
      99925    2    3    3    0    0  0.58548053291E+02  0.99620511742E+02 -0.12296509223E+03  0.31272464278E+03  0.26329482978E+03 0.  0.
         25    1    4    4    0    0  0.69329545181E+02  0.56252099183E+02 -0.79044184861E+02  0.17281891030E+03  0.12509000000E+03 0.  0.
         25    1    4    4    0    0 -0.10781491890E+02  0.43368412559E+02 -0.43920907365E+02  0.13990573247E+03  0.12509000000E+03 0.  0.
         25    1    3    3    0    0 -0.58548053291E+02 -0.99620511742E+02 -0.12726843137E+03  0.21259558468E+03  0.12509000000E+03 0.  0.
<mgrwt>
<rscale>  2 0.46189233E+03</rscale>
<asrwt>0</asrwt>
<pdfrwt beam="1">  1       21 0.20226964E-01 0.46189233E+03</pdfrwt>
<pdfrwt beam="2">  1       21 0.57026011E-01 0.46189233E+03</pdfrwt>
<totfact> 0.60168256E+04</totfact>
</mgrwt>
</event>
<event>
 7    0  0.4779893E-002  0.4607457E+03  0.7546771E-02  0.1024565E+00
         21   -1    0    0  502  501  0.00000000000E+00  0.00000000000E+00  0.59776290415E+02  0.59776290415E+02  0.00000000000E+00 0.  1.
         21   -1    0    0  501  502 -0.00000000000E+00 -0.00000000000E+00 -0.88783771392E+03  0.88783771392E+03  0.00000000000E+00 0.  1.
      99926    2    1    2    0    0  0.00000000000E+00  0.00000000000E+00 -0.82806142350E+03  0.94761400433E+03  0.46074567834E+03 0.  0.
      99925    2    3    3    0    0 -0.32536237195E+02  0.75353223172E+02 -0.69412619556E+03  0.74680845571E+03  0.26301136703E+03 0.  0.
         25    1    4    4    0    0 -0.83053459376E+01  0.55806996382E+02 -0.26058071797E+03  0.29450503951E+03  0.12509000000E+03 0.  0.
         25    1    4    4    0    0 -0.24230891257E+02  0.19546226790E+02 -0.43354547758E+03  0.45230341620E+03  0.12509000000E+03 0.  0.
         25    1    3    3    0    0  0.32536237195E+02 -0.75353223172E+02 -0.13393522795E+03  0.20080554862E+03  0.12509000000E+03 0.  0.
<mgrwt>
<rscale>  2 0.46074568E+03</rscale>
<asrwt>0</asrwt>
<pdfrwt beam="1">  1       21 0.87906309E-02 0.46074568E+03</pdfrwt>
<pdfrwt beam="2">  1       21 0.13056437E+00 0.46074568E+03</pdfrwt>
<totfact> 0.39435614E+04</totfact>
</mgrwt>
</event>
<event>
 7    0  0.4779893E-002  0.4533955E+03  0.7546771E-02  0.1026714E+00
         21   -1    0    0  502  501  0.00000000000E+00  0.00000000000E+00  0.40583534250E+02  0.40583534250E+02  0.00000000000E+00 0. -1.
         21   -1    0    0  501  502 -0.00000000000E+00 -0.00000000000E+00 -0.12663231379E+04  0.12663231379E+04  0.00000000000E+00 0. -1.
      99926    2    1    2    0    0  0.14210854715E-13  0.00000000000E+00 -0.12257396037E+04  0.13069066722E+04  0.45339549376E+03 0.  0.
      99925    2    3    3    0    0  0.10789815030E+03  0.27743773616E+02 -0.75076391278E+03  0.80325883603E+03  0.26299539371E+03 0.  0.
         25    1    3    3    0    0 -0.10789815030E+03 -0.27743773616E+02 -0.47497569090E+03  0.50364783615E+03  0.12509000000E+03 0.  0.
         25    1    4    4    0    0  0.75046082730E+02  0.40880312945E+02 -0.47106296962E+03  0.49482415459E+03  0.12509000000E+03 0.  0.
         25    1    4    4    0    0  0.32852067572E+02 -0.13136539329E+02 -0.27970094315E+03  0.30843468143E+03  0.12509000000E+03 0.  0.
<mgrwt>
<rscale>  2 0.45339549E+03</rscale>
<asrwt>0</asrwt>
<pdfrwt beam="1">  1       21 0.59681670E-02 0.45339549E+03</pdfrwt>
<pdfrwt beam="2">  1       21 0.18622398E+00 0.45339549E+03</pdfrwt>
<totfact> 0.29278383E+04</totfact>
</mgrwt>
</event>
<event>
 7    0  0.4779893E-002  0.4422892E+03  0.7546771E-02  0.1030047E+00
         21   -1    0    0  502  501  0.00000000000E+00  0.00000000000E+00  0.11455532741E+03  0.11455532741E+03  0.00000000000E+00 0. -1.
         21   -1    0    0  501  502 -0.00000000000E+00 -0.00000000000E+00 -0.42691094594E+03  0.42691094594E+03  0.00000000000E+00 0. -1.
      99926    2    1    2    0    0  0.14210854715E-13  0.00000000000E+00 -0.31235561853E+03  0.54146627334E+03  0.44228915060E+03 0.  0.
      99925    2    3    3    0    0 -0.84095538124E+02  0.10870063577E+02 -0.13318048657E+03  0.30707033945E+03  0.26337223383E+03 0.  0.
         25    1    3    3    0    0  0.84095538124E+02 -0.10870063577E+02 -0.17917513196E+03  0.23439593390E+03  0.12509000000E+03 0.  0.
         25    1    4    4    0    0 -0.53731248266E+02 -0.32909116072E+02 -0.78168851394E+02  0.16039929672E+03  0.12509000000E+03 0.  0.
         25    1    4    4    0    0 -0.30364289858E+02  0.43779179649E+02 -0.55011635178E+02  0.14667104273E+03  0.12509000000E+03 0.  0.
<mgrwt>
<rscale>  2 0.44228915E+03</rscale>
<asrwt>0</asrwt>
<pdfrwt beam="1">  1       21 0.16846372E-01 0.44228915E+03</pdfrwt>
<pdfrwt beam="2">  1       21 0.62781022E-01 0.44228915E+03</pdfrwt>
<totfact> 0.69129505E+04</totfact>
</mgrwt>
</event>
<event>
 7    0  0.4779893E-002  0.4469404E+03  0.7546771E-02  0.1028638E+00
         21   -1    0    0  502  501  0.00000000000E+00  0.00000000000E+00  0.56362638086E+02  0.56362638086E+02  0.00000000000E+00 0.  1.
         21   -1    0    0  501  502 -0.00000000000E+00 -0.00000000000E+00 -0.88602884693E+03  0.88602884693E+03  0.00000000000E+00 0.  1.
      99926    2    1    2    0    0  0.00000000000E+00  0.00000000000E+00 -0.82966620884E+03  0.94239148502E+03  0.44694036843E+03 0.  0.
      99925    2    3    3    0    0  0.32545662171E+02  0.76572617648E+02 -0.38925540453E+03  0.47706174111E+03  0.26295541254E+03 0.  0.
         25    1    4    4    0    0  0.47115872412E+02  0.12338906146E+02 -0.18060563836E+03  0.22502901756E+03  0.12509000000E+03 0.  0.
         25    1    3    3    0    0 -0.32545662171E+02 -0.76572617648E+02 -0.44041080432E+03  0.46532974390E+03  0.12509000000E+03 0.  0.
         25    1    4    4    0    0 -0.14570210241E+02  0.64233711502E+02 -0.20864976617E+03  0.25203272355E+03  0.12509000000E+03 0.  0.
<mgrwt>
<rscale>  2 0.44694037E+03</rscale>
<asrwt>0</asrwt>
<pdfrwt beam="1">  1       21 0.82886245E-02 0.44694037E+03</pdfrwt>
<pdfrwt beam="2">  1       21 0.13029834E+00 0.44694037E+03</pdfrwt>
<totfact> 0.44169368E+04</totfact>
</mgrwt>
</event>
<event>
 7    0  0.4779893E-002  0.4541974E+03  0.7546771E-02  0.1026478E+00
         21   -1    0    0  502  501  0.00000000000E+00  0.00000000000E+00  0.99702647501E+03  0.99702647501E+03  0.00000000000E+00 0. -1.
         21   -1    0    0  501  502 -0.00000000000E+00 -0.00000000000E+00 -0.51727634570E+02  0.51727634570E+02  0.00000000000E+00 0. -1.
      99926    2    1    2    0    0  0.00000000000E+00  0.00000000000E+00  0.94529884044E+03  0.10487541096E+04  0.45419740711E+03 0.  0.
      99925    2    3    3    0    0  0.78566015000E+02 -0.41143467962E+02  0.43717162584E+03  0.51799410922E+03  0.26331248181E+03 0.  0.
         25    1    4    4    0    0  0.31762424777E+02 -0.61040100740E+02  0.22944196656E+03  0.27023299141E+03  0.12509000000E+03 0.  0.
         25    1    3    3    0    0 -0.78566015000E+02  0.41143467962E+02  0.50812721459E+03  0.53076000036E+03  0.12509000000E+03 0.  0.
         25    1    4    4    0    0  0.46803590223E+02  0.19896632778E+02  0.20772965928E+03  0.24776111781E+03  0.12509000000E+03 0.  0.
<mgrwt>
<rscale>  2 0.45419741E+03</rscale>
<asrwt>0</asrwt>
<pdfrwt beam="1">  1       21 0.14662153E+00 0.45419741E+03</pdfrwt>
<pdfrwt beam="2">  1       21 0.76070057E-02 0.45419741E+03</pdfrwt>
<totfact> 0.37557868E+04</totfact>
</mgrwt>
</event>
<event>
 7    0  0.4779893E-002  0.4507244E+03  0.7546771E-02  0.1027506E+00
         21   -1    0    0  502  501  0.00000000000E+00  0.00000000000E+00  0.30036738458E+03  0.30036738458E+03  0.00000000000E+00 0. -1.
         21   -1    0    0  501  502 -0.00000000000E+00 -0.00000000000E+00 -0.16908664200E+03  0.16908664200E+03  0.00000000000E+00 0. -1.
      99926    2    1    2    0    0  0.00000000000E+00  0.00000000000E+00  0.13128074258E+03  0.46945402659E+03  0.45072436112E+03 0.  0.
      99925    2    3    3    0    0  0.90781817600E+02  0.58929988026E+02  0.10103745000E+03  0.30129860223E+03  0.26240845929E+03 0.  0.
         25    1    3    3    0    0 -0.90781817600E+02 -0.58929988026E+02  0.30243292578E+02  0.16815542436E+03  0.12509000000E+03 0.  0.
         25    1    4    4    0    0  0.55125574429E+02  0.36053639305E+02  0.92518410802E+02  0.16895519613E+03  0.12509000000E+03 0.  0.
         25    1    4    4    0    0  0.35656243171E+02  0.22876348721E+02  0.85190391982E+01  0.13234340609E+03  0.12509000000E+03 0.  0.
<mgrwt>
<rscale>  2 0.45072436E+03</rscale>
<asrwt>0</asrwt>
<pdfrwt beam="1">  1       21 0.44171674E-01 0.45072436E+03</pdfrwt>
<pdfrwt beam="2">  1       21 0.24865683E-01 0.45072436E+03</pdfrwt>
<totfact> 0.69814793E+04</totfact>
</mgrwt>
</event>
<event>
 7    0  0.4779893E-002  0.4070464E+03  0.7546771E-02  0.1041367E+00
         21   -1    0    0  502  501  0.00000000000E+00  0.00000000000E+00  0.43674176320E+02  0.43674176320E+02  0.00000000000E+00 0. -1.
         21   -1    0    0  501  502 -0.00000000000E+00 -0.00000000000E+00 -0.94842515766E+03  0.94842515766E+03  0.00000000000E+00 0. -1.
      99926    2    1    2    0    0  0.00000000000E+00  0.00000000000E+00 -0.90475098134E+03  0.99209933398E+03  0.40704637358E+03 0.  0.
      99925    2    3    3    0    0  0.46823286293E+02  0.33024801255E+02 -0.58023808868E+03  0.63962354298E+03  0.26298094901E+03 0.  0.
         25    1    4    4    0    0  0.26444020624E+00  0.23347999500E+02 -0.20551454314E+03  0.24172077807E+03  0.12509000000E+03 0.  0.
         25    1    3    3    0    0 -0.46823286293E+02 -0.33024801255E+02 -0.32451289266E+03  0.35247579100E+03  0.12509000000E+03 0.  0.
         25    1    4    4    0    0  0.46558846086E+02  0.96768017551E+01 -0.37472354554E+03  0.39790276491E+03  0.12509000000E+03 0.  0.
<mgrwt>
<rscale>  2 0.40704637E+03</rscale>
<asrwt>0</asrwt>
<pdfrwt beam="1">  1       21 0.64226736E-02 0.40704637E+03</pdfrwt>
<pdfrwt beam="2">  1       21 0.13947427E+00 0.40704637E+03</pdfrwt>
<totfact> 0.58505485E+04</totfact>
</mgrwt>
</event>
<event>
 7    0  0.4779893E-002  0.4573056E+03  0.7546771E-02  0.1025566E+00
         21   -1    0    0  502  501  0.00000000000E+00  0.00000000000E+00  0.45706371725E+03  0.45706371725E+03  0.00000000000E+00 0.  1.
         21   -1    0    0  501  502 -0.00000000000E+00 -0.00000000000E+00 -0.11438691771E+03  0.11438691771E+03  0.00000000000E+00 0.  1.
      99926    2    1    2    0    0  0.00000000000E+00  0.00000000000E+00  0.34267679954E+03  0.57145063496E+03  0.45730563002E+03 0.  0.
      99925    2    3    3    0    0  0.29567209014E+02  0.57270952568E+02  0.95856619417E+02  0.28733465287E+03  0.26309414551E+03 0.  0.
         25    1    4    4    0    0  0.17828082512E+02  0.23657640095E+02  0.49309972187E+01  0.12864426647E+03  0.12509000000E+03 0.  0.
         25    1    4    4    0    0  0.11739126502E+02  0.33613312472E+02  0.90925622198E+02  0.15869038641E+03  0.12509000000E+03 0.  0.
         25    1    3    3    0    0 -0.29567209014E+02 -0.57270952568E+02  0.24682018012E+03  0.28411598208E+03  0.12509000000E+03 0.  0.
<mgrwt>
<rscale>  2 0.45730563E+03</rscale>
<asrwt>0</asrwt>
<pdfrwt beam="1">  1       21 0.67215252E-01 0.45730563E+03</pdfrwt>
<pdfrwt beam="2">  1       21 0.16821606E-01 0.45730563E+03</pdfrwt>
<totfact> 0.59380839E+04</totfact>
</mgrwt>
</event>
<event>
 7    0  0.4779893E-002  0.4494761E+03  0.7546771E-02  0.1027878E+00
         21   -1    0    0  502  501  0.00000000000E+00  0.00000000000E+00  0.24559249038E+03  0.24559249038E+03  0.00000000000E+00 0. -1.
         21   -1    0    0  501  502 -0.00000000000E+00 -0.00000000000E+00 -0.20565448283E+03  0.20565448283E+03  0.00000000000E+00 0. -1.
      99926    2    1    2    0    0  0.00000000000E+00  0.00000000000E+00  0.39938007556E+02  0.45124697321E+03  0.44947612437E+03 0.  0.
      99925    2    3    3    0    0  0.93748691630E+02 -0.26865670682E+02 -0.20946846472E+02  0.28134978372E+03  0.26307479731E+03 0.  0.
         25    1    4    4    0    0  0.78340192678E+02 -0.34510070737E+02  0.80688258674E+01  0.15179178114E+03  0.12509000000E+03 0.  0.
         25    1    4    4    0    0  0.15408498952E+02  0.76444000549E+01 -0.29015672339E+02  0.12955800258E+03  0.12509000000E+03 0.  0.
         25    1    3    3    0    0 -0.93748691630E+02  0.26865670682E+02  0.60884854028E+02  0.16989718948E+03  0.12509000000E+03 0.  0.
<mgrwt>
<rscale>  2 0.44947612E+03</rscale>
<asrwt>0</asrwt>
<pdfrwt beam="1">  1       21 0.36116543E-01 0.44947612E+03</pdfrwt>
<pdfrwt beam="2">  1       21 0.30243306E-01 0.44947612E+03</pdfrwt>
<totfact> 0.71940365E+04</totfact>
</mgrwt>
</event>
<event>
 7    0  0.4779893E-002  0.4434247E+03  0.7546771E-02  0.1029701E+00
         21   -1    0    0  502  501  0.00000000000E+00  0.00000000000E+00  0.34942154392E+03  0.34942154392E+03  0.00000000000E+00 0. -1.
         21   -1    0    0  501  502 -0.00000000000E+00 -0.00000000000E+00 -0.14067928930E+03  0.14067928930E+03  0.00000000000E+00 0. -1.
      99926    2    1    2    0    0  0.00000000000E+00  0.00000000000E+00  0.20874225463E+03  0.49010083322E+03  0.44342473754E+03 0.  0.
      99925    2    3    3    0    0 -0.73241006685E+02 -0.69355166156E+02  0.14701179978E+03  0.31795978266E+03  0.26327090607E+03 0.  0.
         25    1    3    3    0    0  0.73241006685E+02  0.69355166156E+02  0.61730454846E+02  0.17214105056E+03  0.12509000000E+03 0.  0.
         25    1    4    4    0    0 -0.73836282856E+02 -0.38262838512E+02  0.10138785554E+03  0.18122595517E+03  0.12509000000E+03 0.  0.
         25    1    4    4    0    0  0.59527617156E+00 -0.31092327644E+02  0.45623944243E+02  0.13673382749E+03  0.12509000000E+03 0.  0.
<mgrwt>
<rscale>  2 0.44342474E+03</rscale>
<asrwt>0</asrwt>
<pdfrwt beam="1">  1       21 0.51385521E-01 0.44342474E+03</pdfrwt>
<pdfrwt beam="2">  1       21 0.20688131E-01 0.44342474E+03</pdfrwt>
<totfact> 0.72399298E+04</totfact>
</mgrwt>
</event>
<event>
 7    0  0.4779893E-002  0.4658691E+03  0.7546771E-02  0.1023093E+00
         21   -1    0    0  502  501  0.00000000000E+00  0.00000000000E+00  0.20867801876E+03  0.20867801876E+03  0.00000000000E+00 0. -1.
         21   -1    0    0  501  502 -0.00000000000E+00 -0.00000000000E+00 -0.26001068717E+03  0.26001068717E+03  0.00000000000E+00 0. -1.
      99926    2    1    2    0    0  0.00000000000E+00 -0.14210854715E-13 -0.51332668418E+02  0.46868870593E+03  0.46586914495E+03 0.  0.
      99925    2    3    3    0    0 -0.24058172493E+02 -0.11924465399E+03 -0.15309909669E+02  0.29052240603E+03  0.26338335540E+03 0.  0.
         25    1    4    4    0    0  0.49113656785E+01 -0.73286851989E+02  0.27374465187E+02  0.14762097965E+03  0.12509000000E+03 0.  0.
         25    1    4    4    0    0 -0.28969538171E+02 -0.45957802005E+02 -0.42684374856E+02  0.14290142639E+03  0.12509000000E+03 0.  0.
         25    1    3    3    0    0  0.24058172493E+02  0.11924465399E+03 -0.36022758749E+02  0.17816629989E+03  0.12509000000E+03 0.  0.
<mgrwt>
<rscale>  2 0.46586914E+03</rscale>
<asrwt>0</asrwt>
<pdfrwt beam="1">  1       21 0.30687944E-01 0.46586914E+03</pdfrwt>
<pdfrwt beam="2">  1       21 0.38236866E-01 0.46586914E+03</pdfrwt>
<totfact> 0.62000676E+04</totfact>
</mgrwt>
</event>
<event>
 7    0  0.4779893E-002  0.4591506E+03  0.7546771E-02  0.1025028E+00
         21   -1    0    0  502  501  0.00000000000E+00  0.00000000000E+00  0.80617728705E+02  0.80617728705E+02  0.00000000000E+00 0. -1.
         21   -1    0    0  501  502 -0.00000000000E+00 -0.00000000000E+00 -0.65376214505E+03  0.65376214505E+03  0.00000000000E+00 0. -1.
      99926    2    1    2    0    0  0.00000000000E+00  0.00000000000E+00 -0.57314441635E+03  0.73437987376E+03  0.45915060382E+03 0.  0.
      99925    2    3    3    0    0  0.77943822326E+01  0.88744412982E+02 -0.48055865598E+03  0.55505905970E+03  0.26309240714E+03 0.  0.
         25    1    4    4    0    0  0.11371332950E+02  0.81842940922E+02 -0.29849040834E+03  0.33402336170E+03  0.12509000000E+03 0.  0.
         25    1    3    3    0    0 -0.77943822326E+01 -0.88744412982E+02 -0.92585760370E+02  0.17932081405E+03  0.12509000000E+03 0.  0.
         25    1    4    4    0    0 -0.35769507172E+01  0.69014720602E+01 -0.18206824763E+03  0.22103569800E+03  0.12509000000E+03 0.  0.
<mgrwt>
<rscale>  2 0.45915060E+03</rscale>
<asrwt>0</asrwt>
<pdfrwt beam="1">  1       21 0.11855548E-01 0.45915060E+03</pdfrwt>
<pdfrwt beam="2">  1       21 0.96141493E-01 0.45915060E+03</pdfrwt>
<totfact> 0.49442393E+04</totfact>
</mgrwt>
</event>
<event>
 7    0  0.4779893E-002  0.4611932E+03  0.7546771E-02  0.1024436E+00
         21   -1    0    0  502  501  0.00000000000E+00  0.00000000000E+00  0.34421530426E+03  0.34421530426E+03  0.00000000000E+00 0.  1.
         21   -1    0    0  501  502 -0.00000000000E+00 -0.00000000000E+00 -0.15448116760E+03  0.15448116760E+03  0.00000000000E+00 0.  1.
      99926    2    1    2    0    0  0.00000000000E+00  0.00000000000E+00  0.18973413666E+03  0.49869647186E+03  0.46119315740E+03 0.  0.
      99925    2    3    3    0    0  0.74211022721E+02  0.27350104782E+02  0.22539798009E+02  0.27541020022E+03  0.26284488157E+03 0.  0.
         25    1    3    3    0    0 -0.74211022721E+02 -0.27350104782E+02  0.16719433866E+03  0.22328627164E+03  0.12509000000E+03 0.  0.
         25    1    4    4    0    0  0.58269577387E+02  0.26114457371E+02 -0.20981788608E+02  0.14200370448E+03  0.12509000000E+03 0.  0.
         25    1    4    4    0    0  0.15941445334E+02  0.12356474107E+01  0.43521586617E+02  0.13340649574E+03  0.12509000000E+03 0.  0.
<mgrwt>
<rscale>  2 0.46119316E+03</rscale>
<asrwt>0</asrwt>
<pdfrwt beam="1">  1       21 0.50619898E-01 0.46119316E+03</pdfrwt>
<pdfrwt beam="2">  1       21 0.22717819E-01 0.46119316E+03</pdfrwt>
<totfact> 0.62245329E+04</totfact>
</mgrwt>
</event>
<event>
 7    0  0.4779893E-002  0.4564793E+03  0.7546771E-02  0.1025807E+00
         21   -1    0    0  502  501  0.00000000000E+00  0.00000000000E+00  0.15554232298E+04  0.15554232298E+04  0.00000000000E+00 0.  1.
         21   -1    0    0  501  502 -0.00000000000E+00 -0.00000000000E+00 -0.33491424564E+02  0.33491424564E+02  0.00000000000E+00 0.  1.
      99926    2    1    2    0    0  0.00000000000E+00 -0.35527136788E-14  0.15219318052E+04  0.15889146543E+04  0.45647930847E+03 0.  0.
      99925    2    3    3    0    0 -0.10011261081E+03 -0.25539614801E+02  0.78521869164E+03  0.83454834638E+03  0.26311165308E+03 0.  0.
         25    1    4    4    0    0 -0.19818493748E+02 -0.30829511678E+02  0.43349941902E+03  0.45267260341E+03  0.12509000000E+03 0.  0.
         25    1    3    3    0    0  0.10011261081E+03  0.25539614801E+02  0.73671311358E+03  0.75436630796E+03  0.12509000000E+03 0.  0.
         25    1    4    4    0    0 -0.80294117058E+02  0.52898968768E+01  0.35171927261E+03  0.38187574297E+03  0.12509000000E+03 0.  0.
<mgrwt>
<rscale>  2 0.45647931E+03</rscale>
<asrwt>0</asrwt>
<pdfrwt beam="1">  1       21 0.22873866E+00 0.45647931E+03</pdfrwt>
<pdfrwt beam="2">  1       21 0.49252105E-02 0.45647931E+03</pdfrwt>
<totfact> 0.21434162E+04</totfact>
</mgrwt>
</event>
<event>
 7    0  0.4779893E-002  0.4622442E+03  0.7546771E-02  0.1024132E+00
         21   -1    0    0  502  501  0.00000000000E+00  0.00000000000E+00  0.16825230620E+03  0.16825230620E+03  0.00000000000E+00 0. -1.
         21   -1    0    0  501  502 -0.00000000000E+00 -0.00000000000E+00 -0.31748410488E+03  0.31748410488E+03  0.00000000000E+00 0. -1.
      99926    2    1    2    0    0 -0.14210854715E-13  0.35527136788E-14 -0.14923179868E+03  0.48573641107E+03  0.46224423339E+03 0.  0.
      99925    2    3    3    0    0 -0.11586044955E+03  0.30360963867E+02 -0.88152827520E+02  0.30209659863E+03  0.26295627395E+03 0.  0.
         25    1    3    3    0    0  0.11586044955E+03 -0.30360963867E+02 -0.61078971158E+02  0.18363981244E+03  0.12509000000E+03 0.  0.
         25    1    4    4    0    0 -0.37394076020E+02 -0.14942733142E+02 -0.18672928176E+02  0.13273201777E+03  0.12509000000E+03 0.  0.
         25    1    4    4    0    0 -0.78466373526E+02  0.45303697009E+02 -0.69479899343E+02  0.16936458086E+03  0.12509000000E+03 0.  0.
<mgrwt>
<rscale>  2 0.46224423E+03</rscale>
<asrwt>0</asrwt>
<pdfrwt beam="1">  1       21 0.24742986E-01 0.46224423E+03</pdfrwt>
<pdfrwt beam="2">  1       21 0.46688838E-01 0.46224423E+03</pdfrwt>
<totfact> 0.62606584E+04</totfact>
</mgrwt>
</event>
<event>
 7    0  0.4779893E-002  0.4544503E+03  0.7546771E-02  0.1026403E+00
         21   -1    0    0  502  501  0.00000000000E+00  0.00000000000E+00  0.11502814679E+03  0.11502814679E+03  0.00000000000E+00 0.  1.
         21   -1    0    0  501  502 -0.00000000000E+00 -0.00000000000E+00 -0.44885760791E+03  0.44885760791E+03  0.00000000000E+00 0.  1.
      99926    2    1    2    0    0 -0.17763568394E-14  0.00000000000E+00 -0.33382946112E+03  0.56388575470E+03  0.45445025607E+03 0.  0.
      99925    2    3    3    0    0  0.40560282059E+01 -0.33070165092E+02 -0.34373238033E+03  0.43405639326E+03  0.26295040608E+03 0.  0.
         25    1    3    3    0    0 -0.40560282059E+01  0.33070165092E+02  0.99029192013E+01  0.12982936144E+03  0.12509000000E+03 0.  0.
         25    1    4    4    0    0 -0.25571338899E+02  0.13345317679E+02 -0.16494335108E+03  0.20901150218E+03  0.12509000000E+03 0.  0.
         25    1    4    4    0    0  0.29627367105E+02 -0.46415482771E+02 -0.17878902924E+03  0.22504489108E+03  0.12509000000E+03 0.  0.
<mgrwt>
<rscale>  2 0.45445026E+03</rscale>
<asrwt>0</asrwt>
<pdfrwt beam="1">  1       21 0.16915904E-01 0.45445026E+03</pdfrwt>
<pdfrwt beam="2">  1       21 0.66008471E-01 0.45445026E+03</pdfrwt>
<totfact> 0.61223916E+04</totfact>
</mgrwt>
</event>
<event>
 7    0  0.4779893E-002  0.4714671E+03  0.7546771E-02  0.1021507E+00
         21   -1    0    0  502  501  0.00000000000E+00  0.00000000000E+00  0.24513427206E+03  0.24513427206E+03  0.00000000000E+00 0.  1.
         21   -1    0    0  501  502 -0.00000000000E+00 -0.00000000000E+00 -0.22669334425E+03  0.22669334425E+03  0.00000000000E+00 0.  1.
      99926    2    1    2    0    0  0.00000000000E+00  0.00000000000E+00  0.18440927804E+02  0.47182761631E+03  0.47146710563E+03 0.  0.
      99925    2    3    3    0    0 -0.35843936541E+02 -0.87896530768E+01 -0.11125461921E+03  0.28789695328E+03  0.26295440598E+03 0.  0.
         25    1    4    4    0    0  0.17126260753E+02  0.16391102324E+02 -0.50351780989E+02  0.13691160284E+03  0.12509000000E+03 0.  0.
         25    1    3    3    0    0  0.35843936541E+02  0.87896530768E+01  0.12969554701E+03  0.18393066303E+03  0.12509000000E+03 0.  0.
         25    1    4    4    0    0 -0.52970197294E+02 -0.25180755401E+02 -0.60902838220E+02  0.15098535044E+03  0.12509000000E+03 0.  0.
<mgrwt>
<rscale>  2 0.47146711E+03</rscale>
<asrwt>0</asrwt>
<pdfrwt beam="1">  1       21 0.36049158E-01 0.47146711E+03</pdfrwt>
<pdfrwt beam="2">  1       21 0.33337256E-01 0.47146711E+03</pdfrwt>
<totfact> 0.59165862E+04</totfact>
</mgrwt>
</event>
<event>
 7    0  0.4779893E-002  0.4547081E+03  0.7546771E-02  0.1026327E+00
         21   -1    0    0  502  501  0.00000000000E+00  0.00000000000E+00  0.56566478604E+02  0.56566478604E+02  0.00000000000E+00 0.  1.
         21   -1    0    0  501  502 -0.00000000000E+00 -0.00000000000E+00 -0.91378986334E+03  0.91378986334E+03  0.00000000000E+00 0.  1.
      99926    2    1    2    0    0  0.00000000000E+00 -0.14210854715E-13 -0.85722338474E+03  0.97035634195E+03  0.45470814707E+03 0.  0.
      99925    2    3    3    0    0  0.90791349615E+02 -0.65987442624E+02 -0.51459210997E+03  0.58872679605E+03  0.26305282549E+03 0.  0.
         25    1    4    4    0    0  0.53120405328E+02 -0.72743779565E+02 -0.25324723809E+03  0.29647108902E+03  0.12509000000E+03 0.  0.
         25    1    4    4    0    0  0.37670944287E+02  0.67563369407E+01 -0.26134487188E+03  0.29225570703E+03  0.12509000000E+03 0.  0.
         25    1    3    3    0    0 -0.90791349615E+02  0.65987442624E+02 -0.34263127477E+03  0.38162954590E+03  0.12509000000E+03 0.  0.
<mgrwt>
<rscale>  2 0.45470815E+03</rscale>
<asrwt>0</asrwt>
<pdfrwt beam="1">  1       21 0.83186012E-02 0.45470815E+03</pdfrwt>
<pdfrwt beam="2">  1       21 0.13438084E+00 0.45470815E+03</pdfrwt>
<totfact> 0.40419489E+04</totfact>
</mgrwt>
</event>
<event>
 7    0  0.4779893E-002  0.4625244E+03  0.7546771E-02  0.1024052E+00
         21   -1    0    0  502  501  0.00000000000E+00  0.00000000000E+00  0.87976977178E+02  0.87976977178E+02  0.00000000000E+00 0. -1.
         21   -1    0    0  501  502 -0.00000000000E+00 -0.00000000000E+00 -0.60791137594E+03  0.60791137594E+03  0.00000000000E+00 0. -1.
      99926    2    1    2    0    0  0.00000000000E+00  0.71054273576E-14 -0.51993439877E+03  0.69588835312E+03  0.46252440043E+03 0.  0.
      99925    2    3    3    0    0  0.10858768244E+03 -0.37073525623E+02 -0.27139070238E+03  0.39491126397E+03  0.26293775308E+03 0.  0.
         25    1    4    4    0    0  0.63579968519E+02 -0.39207849367E+02 -0.18845757630E+03  0.23820880339E+03  0.12509000000E+03 0.  0.
         25    1    3    3    0    0 -0.10858768244E+03  0.37073525623E+02 -0.24854369639E+03  0.30097708915E+03  0.12509000000E+03 0.  0.
         25    1    4    4    0    0  0.45007713919E+02  0.21343237437E+01 -0.82933126078E+02  0.15670246058E+03  0.12509000000E+03 0.  0.
<mgrwt>
<rscale>  2 0.46252440E+03</rscale>
<asrwt>0</asrwt>
<pdfrwt beam="1">  1       21 0.12937790E-01 0.46252440E+03</pdfrwt>
<pdfrwt beam="2">  1       21 0.89398735E-01 0.46252440E+03</pdfrwt>
<totfact> 0.50093365E+04</totfact>
</mgrwt>
</event>
<event>
 7    0  0.4779893E-002  0.4386421E+03  0.7546771E-02  0.1031164E+00
         21   -1    0    0  502  501  0.00000000000E+00  0.00000000000E+00  0.87669306550E+02  0.87669306550E+02  0.00000000000E+00 0.  1.
         21   -1    0    0  501  502 -0.00000000000E+00 -0.00000000000E+00 -0.54867232518E+03  0.54867232518E+03  0.00000000000E+00 0.  1.
      99926    2    1    2    0    0  0.00000000000E+00  0.14210854715E-13 -0.46100301863E+03  0.63634163173E+03  0.43864209680E+03 0.  0.
      99925    2    3    3    0    0 -0.19203828467E+02  0.81900311500E+02 -0.22429515703E+03  0.35570918903E+03  0.26295296470E+03 0.  0.
         25    1    4    4    0    0 -0.44514673856E+02  0.35886874996E+02 -0.87297293741E+02  0.16290411161E+03  0.12509000000E+03 0.  0.
         25    1    4    4    0    0  0.25310845389E+02  0.46013436504E+02 -0.13699786329E+03  0.19280507742E+03  0.12509000000E+03 0.  0.
         25    1    3    3    0    0  0.19203828467E+02 -0.81900311500E+02 -0.23670786159E+03  0.28063244269E+03  0.12509000000E+03 0.  0.
<mgrwt>
<rscale>  2 0.43864210E+03</rscale>
<asrwt>0</asrwt>
<pdfrwt beam="1">  1       21 0.12892545E-01 0.43864210E+03</pdfrwt>
<pdfrwt beam="2">  1       21 0.80687105E-01 0.43864210E+03</pdfrwt>
<totfact> 0.64416451E+04</totfact>
</mgrwt>
</event>
<event>
 7    0  0.4779893E-002  0.4341872E+03  0.7546771E-02  0.1032545E+00
         21   -1    0    0  502  501  0.00000000000E+00  0.00000000000E+00  0.13429945226E+03  0.13429945226E+03  0.00000000000E+00 0.  1.
         21   -1    0    0  501  502 -0.00000000000E+00 -0.00000000000E+00 -0.35092951315E+03  0.35092951315E+03  0.00000000000E+00 0.  1.
      99926    2    1    2    0    0  0.71054273576E-14  0.00000000000E+00 -0.21663006089E+03  0.48522896542E+03  0.43418724716E+03 0.  0.
      99925    2    3    3    0    0 -0.49759480317E+02 -0.77661081854E+02 -0.13524656959E+03  0.30979228091E+03  0.26300641286E+03 0.  0.
         25    1    3    3    0    0  0.49759480317E+02  0.77661081854E+02 -0.81383491301E+02  0.17543668451E+03  0.12509000000E+03 0.  0.
         25    1    4    4    0    0  0.74617261998E+01 -0.10915468955E+02 -0.63278806850E+02  0.14080674812E+03  0.12509000000E+03 0.  0.
         25    1    4    4    0    0 -0.57221206517E+02 -0.66745612899E+02 -0.71967762740E+02  0.16898553278E+03  0.12509000000E+03 0.  0.
<mgrwt>
<rscale>  2 0.43418725E+03</rscale>
<asrwt>0</asrwt>
<pdfrwt beam="1">  1       21 0.19749919E-01 0.43418725E+03</pdfrwt>
<pdfrwt beam="2">  1       21 0.51607282E-01 0.43418725E+03</pdfrwt>
<totfact> 0.78512984E+04</totfact>
</mgrwt>
</event>
<event>
 7    0  0.4779893E-002  0.4551067E+03  0.7546771E-02  0.1026210E+00
         21   -1    0    0  502  501  0.00000000000E+00  0.00000000000E+00  0.24003521919E+02  0.24003521919E+02  0.00000000000E+00 0.  1.
         21   -1    0    0  501  502 -0.00000000000E+00 -0.00000000000E+00 -0.21572052769E+04  0.21572052769E+04  0.00000000000E+00 0.  1.
      99926    2    1    2    0    0  0.00000000000E+00  0.00000000000E+00 -0.21332017550E+04  0.21812087988E+04  0.45510668704E+03 0.  0.
      99925    2    3    3    0    0 -0.69629060665E+02  0.56082361389E+02 -0.16755267540E+04  0.16983968769E+04  0.26299925981E+03 0.  0.
         25    1    3    3    0    0  0.69629060665E+02 -0.56082361389E+02 -0.45767500096E+03  0.48281192192E+03  0.12509000000E+03 0.  0.
         25    1    4    4    0    0 -0.63831320176E+02 -0.30868167601E+00 -0.83998753098E+03  0.85164610786E+03  0.12509000000E+03 0.  0.
         25    1    4    4    0    0 -0.57977404890E+01  0.56391043065E+02 -0.83553922302E+03  0.84675076903E+03  0.12509000000E+03 0.  0.
<mgrwt>
<rscale>  2 0.45510669E+03</rscale>
<asrwt>0</asrwt>
<pdfrwt beam="1">  1       21 0.35299296E-02 0.45510669E+03</pdfrwt>
<pdfrwt beam="2">  1       21 0.31723608E+00 0.45510669E+03</pdfrwt>
<totfact> 0.10961481E+04</totfact>
</mgrwt>
</event>
<event>
 7    0  0.4779893E-002  0.4552676E+03  0.7546771E-02  0.1026163E+00
         21   -1    0    0  502  501  0.00000000000E+00  0.00000000000E+00  0.27293793415E+02  0.27293793415E+02  0.00000000000E+00 0. -1.
         21   -1    0    0  501  502 -0.00000000000E+00 -0.00000000000E+00 -0.18984956200E+04  0.18984956200E+04  0.00000000000E+00 0. -1.
      99926    2    1    2    0    0 -0.71054273576E-14  0.00000000000E+00 -0.18712018266E+04  0.19257894134E+04  0.45526760153E+03 0.  0.
      99925    2    3    3    0    0  0.49152235267E+02 -0.39820763878E+02 -0.15753433052E+04  0.15984036956E+04  0.26303271530E+03 0.  0.
         25    1    4    4    0    0 -0.24997476071E+01 -0.35493140737E+02 -0.61830950447E+03  0.63183871613E+03  0.12509000000E+03 0.  0.
         25    1    4    4    0    0  0.51651982874E+02 -0.43276231408E+01 -0.95703380074E+03  0.96656497946E+03  0.12509000000E+03 0.  0.
         25    1    3    3    0    0 -0.49152235267E+02  0.39820763878E+02 -0.29585852134E+03  0.32738571780E+03  0.12509000000E+03 0.  0.
<mgrwt>
<rscale>  2 0.45526760E+03</rscale>
<asrwt>0</asrwt>
<pdfrwt beam="1">  1       21 0.40137938E-02 0.45526760E+03</pdfrwt>
<pdfrwt beam="2">  1       21 0.27919049E+00 0.45526760E+03</pdfrwt>
<totfact> 0.14928427E+04</totfact>
</mgrwt>
</event>
<event>
 7    0  0.4779893E-002  0.4586883E+03  0.7546771E-02  0.1025162E+00
         21   -1    0    0  502  501  0.00000000000E+00  0.00000000000E+00  0.21152393015E+04  0.21152393015E+04  0.00000000000E+00 0. -1.
         21   -1    0    0  501  502 -0.00000000000E+00 -0.00000000000E+00 -0.24866563182E+02  0.24866563182E+02  0.00000000000E+00 0. -1.
      99926    2    1    2    0    0  0.14210854715E-13 -0.17763568394E-14  0.20903727383E+04  0.21401058647E+04  0.45868826772E+03 0.  0.
      99925    2    3    3    0    0 -0.10934245421E+03  0.38886733382E+01  0.11227617836E+04  0.11583271921E+04  0.26297712307E+03 0.  0.
         25    1    3    3    0    0  0.10934245421E+03 -0.38886733382E+01  0.96761095472E+03  0.98177867255E+03  0.12509000000E+03 0.  0.
         25    1    4    4    0    0 -0.73269748948E+02 -0.26975979816E+02  0.49658548702E+03  0.51801622911E+03  0.12509000000E+03 0.  0.
         25    1    4    4    0    0 -0.36072705266E+02  0.30864653154E+02  0.62617629655E+03  0.64031096300E+03  0.12509000000E+03 0.  0.
<mgrwt>
<rscale>  2 0.45868827E+03</rscale>
<asrwt>0</asrwt>
<pdfrwt beam="1">  1       21 0.31106448E+00 0.45868827E+03</pdfrwt>
<pdfrwt beam="2">  1       21 0.36568490E-02 0.45868827E+03</pdfrwt>
<totfact> 0.11229196E+04</totfact>
</mgrwt>
</event>
<event>
 7    0  0.4779893E-002  0.4604116E+03  0.7546771E-02  0.1024662E+00
         21   -1    0    0  502  501  0.00000000000E+00  0.00000000000E+00  0.43727471960E+03  0.43727471960E+03  0.00000000000E+00 0.  1.
         21   -1    0    0  501  502 -0.00000000000E+00 -0.00000000000E+00 -0.12119319029E+03  0.12119319029E+03  0.00000000000E+00 0.  1.
      99926    2    1    2    0    0  0.00000000000E+00  0.00000000000E+00  0.31608152931E+03  0.55846790989E+03  0.46041163452E+03 0.  0.
      99925    2    3    3    0    0  0.23953666209E+02  0.55238411090E+02  0.74616396739E+02  0.27993967338E+03  0.26300865743E+03 0.  0.
         25    1    4    4    0    0  0.10535683739E+02  0.68158794160E+02  0.31067769643E+02  0.14618254432E+03  0.12509000000E+03 0.  0.
         25    1    4    4    0    0  0.13417982471E+02 -0.12920383070E+02  0.43548627096E+02  0.13375712906E+03  0.12509000000E+03 0.  0.
         25    1    3    3    0    0 -0.23953666209E+02 -0.55238411090E+02  0.24146513258E+03  0.27852823651E+03  0.12509000000E+03 0.  0.
<mgrwt>
<rscale>  2 0.46041163E+03</rscale>
<asrwt>0</asrwt>
<pdfrwt beam="1">  1       21 0.64305105E-01 0.46041163E+03</pdfrwt>
<pdfrwt beam="2">  1       21 0.17822528E-01 0.46041163E+03</pdfrwt>
<totfact> 0.58754560E+04</totfact>
</mgrwt>
</event>
<event>
 7    0  0.4779893E-002  0.4550141E+03  0.7546771E-02  0.1026237E+00
         21   -1    0    0  502  501  0.00000000000E+00  0.00000000000E+00  0.53253672874E+03  0.53253672874E+03  0.00000000000E+00 0. -1.
         21   -1    0    0  501  502 -0.00000000000E+00 -0.00000000000E+00 -0.97194146145E+02  0.97194146145E+02  0.00000000000E+00 0. -1.
      99926    2    1    2    0    0  0.00000000000E+00 -0.14210854715E-13  0.43534258259E+03  0.62973087488E+03  0.45501407732E+03 0.  0.
      99925    2    3    3    0    0  0.69872546821E+02  0.85434676794E+02  0.30919567331E+03  0.42058545270E+03  0.26288572010E+03 0.  0.
         25    1    4    4    0    0  0.27515155090E+02  0.82466208857E+02  0.15104966041E+03  0.21452567999E+03  0.12509000000E+03 0.  0.
         25    1    4    4    0    0  0.42357391730E+02  0.29684679364E+01  0.15814601290E+03  0.20605977272E+03  0.12509000000E+03 0.  0.
         25    1    3    3    0    0 -0.69872546821E+02 -0.85434676794E+02  0.12614690928E+03  0.20914542218E+03  0.12509000000E+03 0.  0.
<mgrwt>
<rscale>  2 0.45501408E+03</rscale>
<asrwt>0</asrwt>
<pdfrwt beam="1">  1       21 0.78314224E-01 0.45501408E+03</pdfrwt>
<pdfrwt beam="2">  1       21 0.14293257E-01 0.45501408E+03</pdfrwt>
<totfact> 0.56878255E+04</totfact>
</mgrwt>
</event>
<event>
 7    0  0.4779893E-002  0.4520516E+03  0.7546771E-02  0.1027112E+00
         21   -1    0    0  502  501  0.00000000000E+00  0.00000000000E+00  0.52623702017E+03  0.52623702017E+03  0.00000000000E+00 0.  1.
         21   -1    0    0  501  502 -0.00000000000E+00 -0.00000000000E+00 -0.97081094758E+02  0.97081094758E+02  0.00000000000E+00 0.  1.
      99926    2    1    2    0    0 -0.71054273576E-14  0.35527136788E-14  0.42915592541E+03  0.62331811493E+03  0.45205161661E+03 0.  0.
      99925    2    3    3    0    0  0.44831354840E+02 -0.30913944514E+02  0.13831291543E+03  0.30206636490E+03  0.26296027055E+03 0.  0.
         25    1    4    4    0    0 -0.65211697939E+01 -0.31839418591E+02  0.93838338279E+02  0.15971667434E+03  0.12509000000E+03 0.  0.
         25    1    3    3    0    0 -0.44831354840E+02  0.30913944514E+02  0.29084300998E+03  0.32125175003E+03  0.12509000000E+03 0.  0.
         25    1    4    4    0    0  0.51352524634E+02  0.92547407707E+00  0.44474577150E+02  0.14234969056E+03  0.12509000000E+03 0.  0.
<mgrwt>
<rscale>  2 0.45205162E+03</rscale>
<asrwt>0</asrwt>
<pdfrwt beam="1">  1       21 0.77387796E-01 0.45205162E+03</pdfrwt>
<pdfrwt beam="2">  1       21 0.14276632E-01 0.45205162E+03</pdfrwt>
<totfact> 0.58618161E+04</totfact>
</mgrwt>
</event>
<event>
 7    0  0.4779893E-002  0.4515824E+03  0.7546771E-02  0.1027251E+00
         21   -1    0    0  502  501  0.00000000000E+00  0.00000000000E+00  0.34055702452E+03  0.34055702452E+03  0.00000000000E+00 0. -1.
         21   -1    0    0  501  502 -0.00000000000E+00 -0.00000000000E+00 -0.14970080497E+03  0.14970080497E+03  0.00000000000E+00 0. -1.
      99926    2    1    2    0    0  0.88817841970E-15  0.14210854715E-13  0.19085621955E+03  0.49025782950E+03  0.45158237658E+03 0.  0.
      99925    2    3    3    0    0  0.28117543187E+01  0.10219051530E+03  0.16428613904E+03  0.32653768822E+03  0.26303254356E+03 0.  0.
         25    1    4    4    0    0  0.23659861843E+02  0.18126292209E+02  0.91853522830E+02  0.15802825471E+03  0.12509000000E+03 0.  0.
         25    1    3    3    0    0 -0.28117543187E+01 -0.10219051530E+03  0.26570080513E+02  0.16372014127E+03  0.12509000000E+03 0.  0.
         25    1    4    4    0    0 -0.20848107524E+02  0.84064223089E+02  0.72432616211E+02  0.16850943351E+03  0.12509000000E+03 0.  0.
<mgrwt>
<rscale>  2 0.45158238E+03</rscale>
<asrwt>0</asrwt>
<pdfrwt beam="1">  1       21 0.50081915E-01 0.45158238E+03</pdfrwt>
<pdfrwt beam="2">  1       21 0.22014824E-01 0.45158238E+03</pdfrwt>
<totfact> 0.67781053E+04</totfact>
</mgrwt>
</event>
<event>
 7    0  0.4779893E-002  0.4555775E+03  0.7546771E-02  0.1026072E+00
         21   -1    0    0  502  501  0.00000000000E+00  0.00000000000E+00  0.38598189503E+03  0.38598189503E+03  0.00000000000E+00 0.  1.
         21   -1    0    0  501  502 -0.00000000000E+00 -0.00000000000E+00 -0.13443042955E+03  0.13443042955E+03  0.00000000000E+00 0.  1.
      99926    2    1    2    0    0  0.00000000000E+00  0.00000000000E+00  0.25155146547E+03  0.52041232458E+03  0.45557748824E+03 0.  0.
      99925    2    3    3    0    0 -0.16134650261E+02 -0.79755798346E+02  0.24895597783E+03  0.37116233642E+03  0.26298495542E+03 0.  0.
         25    1    3    3    0    0  0.16134650261E+02  0.79755798346E+02  0.25954876468E+01  0.14924998816E+03  0.12509000000E+03 0.  0.
         25    1    4    4    0    0 -0.18402054493E+02 -0.10196925263E+02  0.81098824568E+02  0.15055610363E+03  0.12509000000E+03 0.  0.
         25    1    4    4    0    0  0.22674042322E+01 -0.69558873083E+02  0.16785715326E+03  0.22060623279E+03  0.12509000000E+03 0.  0.
<mgrwt>
<rscale>  2 0.45557749E+03</rscale>
<asrwt>0</asrwt>
<pdfrwt beam="1">  1       21 0.56762043E-01 0.45557749E+03</pdfrwt>
<pdfrwt beam="2">  1       21 0.19769181E-01 0.45557749E+03</pdfrwt>
<totfact> 0.63567438E+04</totfact>
</mgrwt>
</event>
<event>
 7    0  0.4779893E-002  0.4217795E+03  0.7546771E-02  0.1036489E+00
         21   -1    0    0  502  501  0.00000000000E+00  0.00000000000E+00  0.94612731035E+02  0.94612731035E+02  0.00000000000E+00 0. -1.
         21   -1    0    0  501  502 -0.00000000000E+00 -0.00000000000E+00 -0.47006876960E+03  0.47006876960E+03  0.00000000000E+00 0. -1.
      99926    2    1    2    0    0  0.00000000000E+00 -0.71054273576E-14 -0.37545603857E+03  0.56468150063E+03  0.42177951617E+03 0.  0.
      99925    2    3    3    0    0 -0.46869068354E+01 -0.58028577297E+02 -0.17463710528E+03  0.32103209073E+03  0.26300988929E+03 0.  0.
         25    1    3    3    0    0  0.46869068354E+01  0.58028577297E+02 -0.20081893329E+03  0.24364940990E+03  0.12509000000E+03 0.  0.
         25    1    4    4    0    0  0.35478856476E+00 -0.58228581674E+02 -0.57151775204E+02  0.14934700234E+03  0.12509000000E+03 0.  0.
         25    1    4    4    0    0 -0.50416954001E+01  0.20000437683E+00 -0.11748533008E+03  0.17168508840E+03  0.12509000000E+03 0.  0.
<mgrwt>
<rscale>  2 0.42177952E+03</rscale>
<asrwt>0</asrwt>
<pdfrwt beam="1">  1       21 0.13913637E-01 0.42177952E+03</pdfrwt>
<pdfrwt beam="2">  1       21 0.69127761E-01 0.42177952E+03</pdfrwt>
<totfact> 0.79924509E+04</totfact>
</mgrwt>
</event>
<event>
 7    0  0.4779893E-002  0.4619804E+03  0.7546771E-02  0.1024208E+00
         21   -1    0    0  502  501  0.00000000000E+00  0.00000000000E+00  0.18399394123E+04  0.18399394123E+04  0.00000000000E+00 0.  1.
         21   -1    0    0  501  502 -0.00000000000E+00 -0.00000000000E+00 -0.28999035661E+02  0.28999035661E+02  0.00000000000E+00 0.  1.
      99926    2    1    2    0    0  0.00000000000E+00  0.28421709430E-13  0.18109403766E+04  0.18689384479E+04  0.46198038326E+03 0.  0.
      99925    2    3    3    0    0 -0.47811500775E+02 -0.10932842056E+03  0.11701283445E+04  0.12052169613E+04  0.26288578924E+03 0.  0.
         25    1    3    3    0    0  0.47811500775E+02  0.10932842056E+03  0.64081203213E+03  0.66372148660E+03  0.12509000000E+03 0.  0.
         25    1    4    4    0    0 -0.18046967897E+02 -0.91115218262E+02  0.55036919133E+03  0.57199775430E+03  0.12509000000E+03 0.  0.
         25    1    4    4    0    0 -0.29764532878E+02 -0.18213202297E+02  0.61975915314E+03  0.63321920703E+03  0.12509000000E+03 0.  0.
<mgrwt>
<rscale>  2 0.46198038E+03</rscale>
<asrwt>0</asrwt>
<pdfrwt beam="1">  1       21 0.27057925E+00 0.46198038E+03</pdfrwt>
<pdfrwt beam="2">  1       21 0.42645653E-02 0.46198038E+03</pdfrwt>
<totfact> 0.15133383E+04</totfact>
</mgrwt>
</event>
<event>
 7    0  0.4779893E-002  0.4642853E+03  0.7546771E-02  0.1023546E+00
         21   -1    0    0  502  501  0.00000000000E+00  0.00000000000E+00  0.10310633922E+04  0.10310633922E+04  0.00000000000E+00 0. -1.
         21   -1    0    0  501  502 -0.00000000000E+00 -0.00000000000E+00 -0.52266623124E+02  0.52266623124E+02  0.00000000000E+00 0. -1.
      99926    2    1    2    0    0 -0.14210854715E-13  0.00000000000E+00  0.97879676904E+03  0.10833300153E+04  0.46428526462E+03 0.  0.
      99925    2    3    3    0    0  0.86568464154E+02 -0.54574092256E+02  0.45721738256E+03  0.53728514989E+03  0.26297369990E+03 0.  0.
         25    1    4    4    0    0  0.85212920864E+02 -0.32699954720E+02  0.23803067890E+03  0.28396591542E+03  0.12509000000E+03 0.  0.
         25    1    3    3    0    0 -0.86568464154E+02  0.54574092256E+02  0.52157938648E+03  0.54604486541E+03  0.12509000000E+03 0.  0.
         25    1    4    4    0    0  0.13555432901E+01 -0.21874137536E+02  0.21918670366E+03  0.25331923447E+03  0.12509000000E+03 0.  0.
<mgrwt>
<rscale>  2 0.46428526E+03</rscale>
<asrwt>0</asrwt>
<pdfrwt beam="1">  1       21 0.15162696E+00 0.46428526E+03</pdfrwt>
<pdfrwt beam="2">  1       21 0.76862688E-02 0.46428526E+03</pdfrwt>
<totfact> 0.33578178E+04</totfact>
</mgrwt>
</event>
<event>
 7    0  0.4779893E-002  0.4534633E+03  0.7546771E-02  0.1026694E+00
         21   -1    0    0  502  501  0.00000000000E+00  0.00000000000E+00  0.15712640119E+03  0.15712640119E+03  0.00000000000E+00 0. -1.
         21   -1    0    0  501  502 -0.00000000000E+00 -0.00000000000E+00 -0.32717122655E+03  0.32717122655E+03  0.00000000000E+00 0. -1.
      99926    2    1    2    0    0  0.00000000000E+00  0.14210854715E-13 -0.17004482536E+03  0.48429762775E+03  0.45346328364E+03 0.  0.
      99925    2    3    3    0    0 -0.34119441749E+02 -0.10157523572E+03 -0.74607059877E+02  0.29393602448E+03  0.26334484671E+03 0.  0.
         25    1    4    4    0    0 -0.24902850078E+02 -0.56972946712E+02 -0.79488272282E+02  0.16072324701E+03  0.12509000000E+03 0.  0.
         25    1    3    3    0    0  0.34119441749E+02  0.10157523572E+03 -0.95437765482E+02  0.19036160327E+03  0.12509000000E+03 0.  0.
         25    1    4    4    0    0 -0.92165916707E+01 -0.44602289011E+02  0.48812124050E+01  0.13321277747E+03  0.12509000000E+03 0.  0.
<mgrwt>
<rscale>  2 0.45346328E+03</rscale>
<asrwt>0</asrwt>
<pdfrwt beam="1">  1       21 0.23106824E-01 0.45346328E+03</pdfrwt>
<pdfrwt beam="2">  1       21 0.48113415E-01 0.45346328E+03</pdfrwt>
<totfact> 0.67204673E+04</totfact>
</mgrwt>
</event>
<event>
 7    0  0.4779893E-002  0.4498897E+03  0.7546771E-02  0.1027755E+00
         21   -1    0    0  502  501  0.00000000000E+00  0.00000000000E+00  0.78443721431E+03  0.78443721431E+03  0.00000000000E+00 0.  1.
         21   -1    0    0  501  502 -0.00000000000E+00 -0.00000000000E+00 -0.64505074046E+02  0.64505074046E+02  0.00000000000E+00 0.  1.
      99926    2    1    2    0    0  0.00000000000E+00 -0.71054273576E-14  0.71993214027E+03  0.84894228836E+03  0.44988967800E+03 0.  0.
      99925    2    3    3    0    0 -0.10811390933E+03  0.47067824336E+01  0.46341452999E+03  0.54372177189E+03  0.26300107876E+03 0.  0.
         25    1    4    4    0    0 -0.71794933673E+02  0.39412695679E+02  0.23736110103E+03  0.28052749146E+03  0.12509000000E+03 0.  0.
         25    1    4    4    0    0 -0.36318975658E+02 -0.34705913245E+02  0.22605342896E+03  0.26319428043E+03  0.12509000000E+03 0.  0.
         25    1    3    3    0    0  0.10811390933E+03 -0.47067824336E+01  0.25651761028E+03  0.30522051647E+03  0.12509000000E+03 0.  0.
<mgrwt>
<rscale>  2 0.44988968E+03</rscale>
<asrwt>0</asrwt>
<pdfrwt beam="1">  1       21 0.11535841E+00 0.44988968E+03</pdfrwt>
<pdfrwt beam="2">  1       21 0.94860407E-02 0.44988968E+03</pdfrwt>
<totfact> 0.47356824E+04</totfact>
</mgrwt>
</event>
<event>
 7    0  0.4779893E-002  0.4530782E+03  0.7546771E-02  0.1026808E+00
         21   -1    0    0  502  501  0.00000000000E+00  0.00000000000E+00  0.50788967710E+03  0.50788967710E+03  0.00000000000E+00 0.  1.
         21   -1    0    0  501  502 -0.00000000000E+00 -0.00000000000E+00 -0.10104549881E+03  0.10104549881E+03  0.00000000000E+00 0.  1.
      99926    2    1    2    0    0  0.00000000000E+00 -0.14210854715E-13  0.40684417830E+03  0.60893517591E+03  0.45307820854E+03 0.  0.
      99925    2    3    3    0    0  0.15270433784E+02  0.10627854778E+03  0.29676894170E+03  0.41071211550E+03  0.26283896438E+03 0.  0.
         25    1    4    4    0    0  0.36627417163E+02  0.83786897024E+02  0.16733292425E+03  0.22805619360E+03  0.12509000000E+03 0.  0.
         25    1    3    3    0    0 -0.15270433784E+02 -0.10627854778E+03  0.11007523660E+03  0.19822306041E+03  0.12509000000E+03 0.  0.
         25    1    4    4    0    0 -0.21356983379E+02  0.22491650759E+02  0.12943601745E+03  0.18265592190E+03  0.12509000000E+03 0.  0.
<mgrwt>
<rscale>  2 0.45307821E+03</rscale>
<asrwt>0</asrwt>
<pdfrwt beam="1">  1       21 0.74689657E-01 0.45307821E+03</pdfrwt>
<pdfrwt beam="2">  1       21 0.14859632E-01 0.45307821E+03</pdfrwt>
<totfact> 0.59022526E+04</totfact>
</mgrwt>
</event>
<event>
 7    0  0.4779893E-002  0.4470773E+03  0.7546771E-02  0.1028597E+00
         21   -1    0    0  502  501  0.00000000000E+00  0.00000000000E+00  0.11294792364E+03  0.11294792364E+03  0.00000000000E+00 0.  1.
         21   -1    0    0  501  502 -0.00000000000E+00 -0.00000000000E+00 -0.44241202556E+03  0.44241202556E+03  0.00000000000E+00 0.  1.
      99926    2    1    2    0    0 -0.35527136788E-14 -0.17763568394E-14 -0.32946410192E+03  0.55535994921E+03  0.44707726259E+03 0.  0.
      99925    2    3    3    0    0 -0.30170900310E+02 -0.52515594873E+01 -0.33380667121E+03  0.42650255473E+03  0.26370376058E+03 0.  0.
         25    1    4    4    0    0 -0.38549897304E+02 -0.21848929143E+02 -0.12454540769E+03  0.18199598062E+03  0.12509000000E+03 0.  0.
         25    1    4    4    0    0  0.83789969945E+01  0.16597369656E+02 -0.20926126352E+03  0.24450657411E+03  0.12509000000E+03 0.  0.
         25    1    3    3    0    0  0.30170900310E+02  0.52515594873E+01  0.43425692948E+01  0.12885739447E+03  0.12509000000E+03 0.  0.
<mgrwt>
<rscale>  2 0.44707726E+03</rscale>
<asrwt>0</asrwt>
<pdfrwt beam="1">  1       21 0.16609988E-01 0.44707726E+03</pdfrwt>
<pdfrwt beam="2">  1       21 0.65060593E-01 0.44707726E+03</pdfrwt>
<totfact> 0.65524891E+04</totfact>
</mgrwt>
</event>
<event>
 7    0  0.4779893E-002  0.4642537E+03  0.7546771E-02  0.1023555E+00
         21   -1    0    0  502  501  0.00000000000E+00  0.00000000000E+00  0.17186411498E+03  0.17186411498E+03  0.00000000000E+00 0. -1.
         21   -1    0    0  501  502 -0.00000000000E+00 -0.00000000000E+00 -0.31352023907E+03  0.31352023907E+03  0.00000000000E+00 0. -1.
      99926    2    1    2    0    0  0.00000000000E+00  0.00000000000E+00 -0.14165612410E+03  0.48538435405E+03  0.46425371691E+03 0.  0.
      99925    2    3    3    0    0  0.34766134710E+02  0.11653331321E+03 -0.90474341820E+02  0.30357186783E+03  0.26302390614E+03 0.  0.
         25    1    3    3    0    0 -0.34766134710E+02 -0.11653331321E+03 -0.51181782276E+02  0.18181248623E+03  0.12509000000E+03 0.  0.
         25    1    4    4    0    0 -0.11845520189E+02  0.87635529500E+02 -0.47813701314E+02  0.16048040539E+03  0.12509000000E+03 0.  0.
         25    1    4    4    0    0  0.46611654900E+02  0.28897783710E+02 -0.42660640506E+02  0.14309146244E+03  0.12509000000E+03 0.  0.
<mgrwt>
<rscale>  2 0.46425372E+03</rscale>
<asrwt>0</asrwt>
<pdfrwt beam="1">  1       21 0.25274135E-01 0.46425372E+03</pdfrwt>
<pdfrwt beam="2">  1       21 0.46105917E-01 0.46425372E+03</pdfrwt>
<totfact> 0.61655598E+04</totfact>
</mgrwt>
</event>
<event>
 7    0  0.4779893E-002  0.4517674E+03  0.7546771E-02  0.1027196E+00
         21   -1    0    0  502  501  0.00000000000E+00  0.00000000000E+00  0.74272257667E+02  0.74272257667E+02  0.00000000000E+00 0.  1.
         21   -1    0    0  501  502 -0.00000000000E+00 -0.00000000000E+00 -0.68697859338E+03  0.68697859338E+03  0.00000000000E+00 0.  1.
      99926    2    1    2    0    0  0.00000000000E+00  0.00000000000E+00 -0.61270633571E+03  0.76125085104E+03  0.45176742290E+03 0.  0.
      99925    2    3    3    0    0 -0.32407743223E+02 -0.84922554730E+02 -0.28213765790E+03  0.39630529213E+03  0.26304776076E+03 0.  0.
         25    1    4    4    0    0 -0.62326346756E+00 -0.42214649371E+02 -0.85649481310E+02  0.15737155660E+03  0.12509000000E+03 0.  0.
         25    1    3    3    0    0  0.32407743223E+02  0.84922554730E+02 -0.33056867781E+03  0.36494555891E+03  0.12509000000E+03 0.  0.
         25    1    4    4    0    0 -0.31784479755E+02 -0.42707905359E+02 -0.19648817659E+03  0.23893373553E+03  0.12509000000E+03 0.  0.
<mgrwt>
<rscale>  2 0.45176742E+03</rscale>
<asrwt>0</asrwt>
<pdfrwt beam="1">  1       21 0.10922391E-01 0.45176742E+03</pdfrwt>
<pdfrwt beam="2">  1       21 0.10102626E+00 0.45176742E+03</pdfrwt>
<totfact> 0.50977309E+04</totfact>
</mgrwt>
</event>
<event>
 7    0  0.4779893E-002  0.4597555E+03  0.7546771E-02  0.1024852E+00
         21   -1    0    0  502  501  0.00000000000E+00  0.00000000000E+00  0.58540383292E+02  0.58540383292E+02  0.00000000000E+00 0. -1.
         21   -1    0    0  501  502 -0.00000000000E+00 -0.00000000000E+00 -0.90268937697E+03  0.90268937697E+03  0.00000000000E+00 0. -1.
      99926    2    1    2    0    0 -0.35527136788E-14 -0.35527136788E-14 -0.84414899367E+03  0.96122976026E+03  0.45975550947E+03 0.  0.
      99925    2    3    3    0    0 -0.16867719628E+02 -0.74185195357E+01 -0.77171849854E+03  0.81551346356E+03  0.26300801102E+03 0.  0.
         25    1    4    4    0    0 -0.39799375766E+02  0.21364659204E+02 -0.40796474292E+03  0.42909576850E+03  0.12509000000E+03 0.  0.
         25    1    4    4    0    0  0.22931656138E+02 -0.28783178740E+02 -0.36375375562E+03  0.38641769507E+03  0.12509000000E+03 0.  0.
         25    1    3    3    0    0  0.16867719628E+02  0.74185195357E+01 -0.72430495130E+02  0.14571629669E+03  0.12509000000E+03 0.  0.
<mgrwt>
<rscale>  2 0.45975551E+03</rscale>
<asrwt>0</asrwt>
<pdfrwt beam="1">  1       21 0.86088805E-02 0.45975551E+03</pdfrwt>
<pdfrwt beam="2">  1       21 0.13274843E+00 0.45975551E+03</pdfrwt>
<totfact> 0.39211025E+04</totfact>
</mgrwt>
</event>
<event>
 7    0  0.4779893E-002  0.4545891E+03  0.7546771E-02  0.1026362E+00
         21   -1    0    0  502  501  0.00000000000E+00  0.00000000000E+00  0.57918293413E+02  0.57918293413E+02  0.00000000000E+00 0.  1.
         21   -1    0    0  501  502 -0.00000000000E+00 -0.00000000000E+00 -0.89199470913E+03  0.89199470913E+03  0.00000000000E+00 0.  1.
      99926    2    1    2    0    0  0.00000000000E+00  0.00000000000E+00 -0.83407641571E+03  0.94991300254E+03  0.45458909483E+03 0.  0.
      99925    2    3    3    0    0 -0.11110800272E+03  0.21879921963E+02 -0.51186158785E+03  0.58619109964E+03  0.26228610509E+03 0.  0.
         25    1    3    3    0    0  0.11110800272E+03 -0.21879921963E+02 -0.32221482786E+03  0.36372190290E+03  0.12509000000E+03 0.  0.
         25    1    4    4    0    0 -0.96739716513E+02  0.17245899416E+02 -0.30465892821E+03  0.34368672426E+03  0.12509000000E+03 0.  0.
         25    1    4    4    0    0 -0.14368286210E+02  0.46340225469E+01 -0.20720265964E+03  0.24250437537E+03  0.12509000000E+03 0.  0.
<mgrwt>
<rscale>  2 0.45458909E+03</rscale>
<asrwt>0</asrwt>
<pdfrwt beam="1">  1       21 0.85173967E-02 0.45458909E+03</pdfrwt>
<pdfrwt beam="2">  1       21 0.13117568E+00 0.45458909E+03</pdfrwt>
<totfact> 0.41276803E+04</totfact>
</mgrwt>
</event>
<event>
 7    0  0.4779893E-002  0.4571105E+03  0.7546771E-02  0.1025623E+00
         21   -1    0    0  502  501  0.00000000000E+00  0.00000000000E+00  0.24023877304E+03  0.24023877304E+03  0.00000000000E+00 0.  1.
         21   -1    0    0  501  502 -0.00000000000E+00 -0.00000000000E+00 -0.21743992601E+03  0.21743992601E+03  0.00000000000E+00 0.  1.
      99926    2    1    2    0    0  0.71054273576E-14  0.00000000000E+00  0.22798847036E+02  0.45767869905E+03  0.45711049446E+03 0.  0.
      99925    2    3    3    0    0 -0.39624294653E+02  0.10183561420E+03  0.50620740674E+02  0.28926806129E+03  0.26300755664E+03 0.  0.
         25    1    3    3    0    0  0.39624294653E+02 -0.10183561420E+03 -0.27821893638E+02  0.16841063776E+03  0.12509000000E+03 0.  0.
         25    1    4    4    0    0  0.18758289716E+01  0.19423910884E+02  0.27821848421E+01  0.12663354888E+03  0.12509000000E+03 0.  0.
         25    1    4    4    0    0 -0.41500123625E+02  0.82411703316E+02  0.47838555832E+02  0.16263451241E+03  0.12509000000E+03 0.  0.
<mgrwt>
<rscale>  2 0.45711049E+03</rscale>
<asrwt>0</asrwt>
<pdfrwt beam="1">  1       21 0.35329231E-01 0.45711049E+03</pdfrwt>
<pdfrwt beam="2">  1       21 0.31976460E-01 0.45711049E+03</pdfrwt>
<totfact> 0.67211084E+04</totfact>
</mgrwt>
</event>
<event>
 7    0  0.4779893E-002  0.4674479E+03  0.7546771E-02  0.1022643E+00
         21   -1    0    0  502  501  0.00000000000E+00  0.00000000000E+00  0.14738150379E+03  0.14738150379E+03  0.00000000000E+00 0.  1.
         21   -1    0    0  501  502 -0.00000000000E+00 -0.00000000000E+00 -0.37064945769E+03  0.37064945769E+03  0.00000000000E+00 0.  1.
      99926    2    1    2    0    0  0.00000000000E+00  0.14210854715E-13 -0.22326795390E+03  0.51803096148E+03  0.46744785572E+03 0.  0.
      99925    2    3    3    0    0 -0.21282355498E+02  0.64073665126E+02 -0.25556200394E+03  0.37226132478E+03  0.26212245773E+03 0.  0.
         25    1    4    4    0    0  0.10221169666E+02  0.65101196357E+02 -0.12499807054E+03  0.18871847767E+03  0.12509000000E+03 0.  0.
         25    1    4    4    0    0 -0.31503525164E+02 -0.10275312308E+01 -0.13056393340E+03  0.18354284710E+03  0.12509000000E+03 0.  0.
         25    1    3    3    0    0  0.21282355498E+02 -0.64073665126E+02  0.32294050042E+02  0.14576963671E+03  0.12509000000E+03 0.  0.
<mgrwt>
<rscale>  2 0.46744786E+03</rscale>
<asrwt>0</asrwt>
<pdfrwt beam="1">  1       21 0.21673751E-01 0.46744786E+03</pdfrwt>
<pdfrwt beam="2">  1       21 0.54507272E-01 0.46744786E+03</pdfrwt>
<totfact> 0.58069570E+04</totfact>
</mgrwt>
</event>
<event>
 7    0  0.4779893E-002  0.4545215E+03  0.7546771E-02  0.1026382E+00
         21   -1    0    0  502  501  0.00000000000E+00  0.00000000000E+00  0.30075029134E+02  0.30075029134E+02  0.00000000000E+00 0. -1.
         21   -1    0    0  501  502 -0.00000000000E+00 -0.00000000000E+00 -0.17172865160E+04  0.17172865160E+04  0.00000000000E+00 0. -1.
      99926    2    1    2    0    0  0.00000000000E+00  0.00000000000E+00 -0.16872114869E+04  0.17473615452E+04  0.45452147145E+03 0.  0.
      99925    2    3    3    0    0 -0.21204059692E+02 -0.10657954365E+03 -0.11738497231E+04  0.12079205197E+04  0.26332489123E+03 0.  0.
         25    1    3    3    0    0  0.21204059692E+02  0.10657954365E+03 -0.51336176384E+03  0.53944102546E+03  0.12509000000E+03 0.  0.
         25    1    4    4    0    0 -0.19687721728E+02 -0.52745388627E+02 -0.41900225091E+03  0.44088555973E+03  0.12509000000E+03 0.  0.
         25    1    4    4    0    0 -0.15163379640E+01 -0.53834155026E+02 -0.75484747215E+03  0.76703495998E+03  0.12509000000E+03 0.  0.
<mgrwt>
<rscale>  2 0.45452147E+03</rscale>
<asrwt>0</asrwt>
<pdfrwt beam="1">  1       21 0.44227988E-02 0.45452147E+03</pdfrwt>
<pdfrwt beam="2">  1       21 0.25254211E+00 0.45452147E+03</pdfrwt>
<totfact> 0.18361302E+04</totfact>
</mgrwt>
</event>
<event>
 7    0  0.4779893E-002  0.4619258E+03  0.7546771E-02  0.1024224E+00
         21   -1    0    0  502  501  0.00000000000E+00  0.00000000000E+00  0.34169848661E+04  0.34169848661E+04  0.00000000000E+00 0. -1.
         21   -1    0    0  501  502 -0.00000000000E+00 -0.00000000000E+00 -0.15611383685E+02  0.15611383685E+02  0.00000000000E+00 0. -1.
      99926    2    1    2    0    0 -0.14210854715E-13  0.00000000000E+00  0.34013734824E+04  0.34325962497E+04  0.46192580265E+03 0.  0.
      99925    2    3    3    0    0 -0.79892331868E+02  0.56874594191E+02  0.16181435592E+04  0.16422962829E+04  0.26292774407E+03 0.  0.
         25    1    4    4    0    0 -0.99327803544E+01  0.31332972686E+02  0.59875728427E+03  0.61256690155E+03  0.12509000000E+03 0.  0.
         25    1    4    4    0    0 -0.69959551514E+02  0.25541621504E+02  0.10193862749E+04  0.10297293814E+04  0.12509000000E+03 0.  0.
         25    1    3    3    0    0  0.79892331868E+02 -0.56874594191E+02  0.17832299232E+04  0.17902999668E+04  0.12509000000E+03 0.  0.
<mgrwt>
<rscale>  2 0.46192580E+03</rscale>
<asrwt>0</asrwt>
<pdfrwt beam="1">  1       21 0.50249726E+00 0.46192580E+03</pdfrwt>
<pdfrwt beam="2">  1       21 0.22957941E-02 0.46192580E+03</pdfrwt>
<totfact> 0.13939935E+03</totfact>
</mgrwt>
</event>
<event>
 7    0  0.4779893E-002  0.4557158E+03  0.7546771E-02  0.1026031E+00
         21   -1    0    0  502  501  0.00000000000E+00  0.00000000000E+00  0.13106840398E+03  0.13106840398E+03  0.00000000000E+00 0. -1.
         21   -1    0    0  501  502 -0.00000000000E+00 -0.00000000000E+00 -0.39612311193E+03  0.39612311193E+03  0.00000000000E+00 0. -1.
      99926    2    1    2    0    0  0.00000000000E+00  0.00000000000E+00 -0.26505470795E+03  0.52719151591E+03  0.45571580645E+03 0.  0.
      99925    2    3    3    0    0 -0.57364595339E+02  0.78360637753E+02 -0.23555107362E+03  0.36610440008E+03  0.26290119272E+03 0.  0.
         25    1    4    4    0    0 -0.14535709476E+02  0.24369306185E+01 -0.85849400583E+02  0.15242983029E+03  0.12509000000E+03 0.  0.
         25    1    3    3    0    0  0.57364595339E+02 -0.78360637753E+02 -0.29503634331E+02  0.16108711583E+03  0.12509000000E+03 0.  0.
         25    1    4    4    0    0 -0.42828885863E+02  0.75923707135E+02 -0.14970167303E+03  0.21367456980E+03  0.12509000000E+03 0.  0.
<mgrwt>
<rscale>  2 0.45571581E+03</rscale>
<asrwt>0</asrwt>
<pdfrwt beam="1">  1       21 0.19274765E-01 0.45571581E+03</pdfrwt>
<pdfrwt beam="2">  1       21 0.58253399E-01 0.45571581E+03</pdfrwt>
<totfact> 0.63038609E+04</totfact>
</mgrwt>
</event>
<event>
 7    0  0.4779893E-002  0.4559502E+03  0.7546771E-02  0.1025962E+00
         21   -1    0    0  502  501  0.00000000000E+00  0.00000000000E+00  0.43772395588E+03  0.43772395588E+03  0.00000000000E+00 0. -1.
         21   -1    0    0  501  502 -0.00000000000E+00 -0.00000000000E+00 -0.11873386073E+03  0.11873386073E+03  0.00000000000E+00 0. -1.
      99926    2    1    2    0    0  0.00000000000E+00  0.00000000000E+00  0.31899009515E+03  0.55645781661E+03  0.45595023946E+03 0.  0.
      99925    2    3    3    0    0 -0.92645556481E+02  0.64615362135E+02  0.22027785214E+03  0.36113767126E+03  0.26294436921E+03 0.  0.
         25    1    3    3    0    0  0.92645556481E+02 -0.64615362135E+02  0.98712243007E+02  0.19532014535E+03  0.12509000000E+03 0.  0.
         25    1    4    4    0    0 -0.56717841654E+02  0.71369707722E+02  0.13507609796E+03  0.20543517002E+03  0.12509000000E+03 0.  0.
         25    1    4    4    0    0 -0.35927714828E+02 -0.67543455865E+01  0.85201754182E+02  0.15570250124E+03  0.12509000000E+03 0.  0.
<mgrwt>
<rscale>  2 0.45595024E+03</rscale>
<asrwt>0</asrwt>
<pdfrwt beam="1">  1       21 0.64371169E-01 0.45595024E+03</pdfrwt>
<pdfrwt beam="2">  1       21 0.17460862E-01 0.45595024E+03</pdfrwt>
<totfact> 0.60982085E+04</totfact>
</mgrwt>
</event>
<event>
 7    0  0.4779893E-002  0.4845721E+03  0.7546771E-02  0.1017886E+00
         21   -1    0    0  502  501  0.00000000000E+00  0.00000000000E+00  0.56269524168E+02  0.56269524168E+02  0.00000000000E+00 0. -1.
         21   -1    0    0  501  502 -0.00000000000E+00 -0.00000000000E+00 -0.10432385239E+04  0.10432385239E+04  0.00000000000E+00 0. -1.
      99926    2    1    2    0    0  0.00000000000E+00  0.00000000000E+00 -0.98696899974E+03  0.10995080481E+04  0.48457212191E+03 0.  0.
      99925    2    3    3    0    0 -0.10557786032E+03 -0.42909168511E+02 -0.78690311655E+03  0.83747418185E+03  0.26298024468E+03 0.  0.
         25    1    4    4    0    0 -0.27502420529E+02 -0.50197679736E+02 -0.33819552093E+03  0.36510260019E+03  0.12509000000E+03 0.  0.
         25    1    3    3    0    0  0.10557786032E+03  0.42909168511E+02 -0.20006588319E+03  0.26203386622E+03  0.12509000000E+03 0.  0.
         25    1    4    4    0    0 -0.78075439796E+02  0.72885112255E+01 -0.44870759562E+03  0.47237158166E+03  0.12509000000E+03 0.  0.
<mgrwt>
<rscale>  2 0.48457212E+03</rscale>
<asrwt>0</asrwt>
<pdfrwt beam="1">  1       21 0.82749312E-02 0.48457212E+03</pdfrwt>
<pdfrwt beam="2">  1       21 0.15341741E+00 0.48457212E+03</pdfrwt>
<totfact> 0.28376996E+04</totfact>
</mgrwt>
</event>
<event>
 7    0  0.4779893E-002  0.4525702E+03  0.7546771E-02  0.1026958E+00
         21   -1    0    0  502  501  0.00000000000E+00  0.00000000000E+00  0.11189644679E+04  0.11189644679E+04  0.00000000000E+00 0. -1.
         21   -1    0    0  501  502 -0.00000000000E+00 -0.00000000000E+00 -0.45761015110E+02  0.45761015110E+02  0.00000000000E+00 0. -1.
      99926    2    1    2    0    0  0.00000000000E+00  0.00000000000E+00  0.10732034528E+04  0.11647254830E+04  0.45257021521E+03 0.  0.
      99925    2    3    3    0    0  0.78487152106E+02  0.77757548048E+02  0.70193909142E+03  0.75767363932E+03  0.26295320180E+03 0.  0.
         25    1    4    4    0    0  0.18569813151E+02  0.71548489130E+02  0.32589808125E+03  0.35682081178E+03  0.12509000000E+03 0.  0.
         25    1    4    4    0    0  0.59917338955E+02  0.62090589184E+01  0.37604101017E+03  0.40085282755E+03  0.12509000000E+03 0.  0.
         25    1    3    3    0    0 -0.78487152106E+02 -0.77757548048E+02  0.37126436136E+03  0.40705184367E+03  0.12509000000E+03 0.  0.
<mgrwt>
<rscale>  2 0.45257022E+03</rscale>
<asrwt>0</asrwt>
<pdfrwt beam="1">  1       21 0.16455358E+00 0.45257022E+03</pdfrwt>
<pdfrwt beam="2">  1       21 0.67295617E-02 0.45257022E+03</pdfrwt>
<totfact> 0.33932450E+04</totfact>
</mgrwt>
</event>
<event>
 7    0  0.4779893E-002  0.4499825E+03  0.7546771E-02  0.1027727E+00
         21   -1    0    0  502  501  0.00000000000E+00  0.00000000000E+00  0.13674332783E+03  0.13674332783E+03  0.00000000000E+00 0. -1.
         21   -1    0    0  501  502 -0.00000000000E+00 -0.00000000000E+00 -0.37019037640E+03  0.37019037640E+03  0.00000000000E+00 0. -1.
      99926    2    1    2    0    0 -0.17763568394E-14  0.00000000000E+00 -0.23344704857E+03  0.50693370423E+03  0.44998250632E+03 0.  0.
      99925    2    3    3    0    0 -0.35268583908E+01 -0.26484922148E+02 -0.26606352166E+03  0.37492903670E+03  0.26280809571E+03 0.  0.
         25    1    3    3    0    0  0.35268583908E+01  0.26484922148E+02  0.32616473088E+02  0.13200466752E+03  0.12509000000E+03 0.  0.
         25    1    4    4    0    0  0.34421076910E+02  0.35648196081E+01 -0.12276740907E+03  0.17865291295E+03  0.12509000000E+03 0.  0.
         25    1    4    4    0    0 -0.37947935301E+02 -0.30049741756E+02 -0.14329611259E+03  0.19627612375E+03  0.12509000000E+03 0.  0.
<mgrwt>
<rscale>  2 0.44998251E+03</rscale>
<asrwt>0</asrwt>
<pdfrwt beam="1">  1       21 0.20109313E-01 0.44998251E+03</pdfrwt>
<pdfrwt beam="2">  1       21 0.54439760E-01 0.44998251E+03</pdfrwt>
<totfact> 0.67431658E+04</totfact>
</mgrwt>
</event>
<event>
 7    0  0.4779893E-002  0.4554030E+03  0.7546771E-02  0.1026123E+00
         21   -1    0    0  502  501  0.00000000000E+00  0.00000000000E+00  0.19124616311E+02  0.19124616311E+02  0.00000000000E+00 0. -1.
         21   -1    0    0  501  502 -0.00000000000E+00 -0.00000000000E+00 -0.27110597401E+04  0.27110597401E+04  0.00000000000E+00 0. -1.
      99926    2    1    2    0    0  0.00000000000E+00  0.00000000000E+00 -0.26919351238E+04  0.27301843564E+04  0.45540301855E+03 0.  0.
      99925    2    3    3    0    0  0.11428047845E+02  0.10677363721E+03 -0.14681258109E+04  0.14953208205E+04  0.26279221782E+03 0.  0.
         25    1    3    3    0    0 -0.11428047845E+02 -0.10677363721E+03 -0.12238093129E+04  0.12348635359E+04  0.12509000000E+03 0.  0.
         25    1    4    4    0    0  0.42307049828E+02  0.50839135319E+02 -0.82362131649E+03  0.83568779172E+03  0.12509000000E+03 0.  0.
         25    1    4    4    0    0 -0.30879001984E+02  0.55934501890E+02 -0.64450449441E+03  0.65963302879E+03  0.12509000000E+03 0.  0.
<mgrwt>
<rscale>  2 0.45540302E+03</rscale>
<asrwt>0</asrwt>
<pdfrwt beam="1">  1       21 0.28124440E-02 0.45540302E+03</pdfrwt>
<pdfrwt beam="2">  1       21 0.39868519E+00 0.45540302E+03</pdfrwt>
<totfact> 0.50360862E+03</totfact>
</mgrwt>
</event>
<event>
 7    0  0.4779893E-002  0.4549505E+03  0.7546771E-02  0.1026256E+00
         21   -1    0    0  502  501  0.00000000000E+00  0.00000000000E+00  0.25847985569E+02  0.25847985569E+02  0.00000000000E+00 0. -1.
         21   -1    0    0  501  502 -0.00000000000E+00 -0.00000000000E+00 -0.20018961235E+04  0.20018961235E+04  0.00000000000E+00 0. -1.
      99926    2    1    2    0    0  0.14210854715E-13  0.00000000000E+00 -0.19760481379E+04  0.20277441090E+04  0.45495046812E+03 0.  0.
      99925    2    3    3    0    0 -0.99348793048E+02 -0.40590216209E+02 -0.13877230138E+04  0.14167680800E+04  0.26445960202E+03 0.  0.
         25    1    3    3    0    0  0.99348793048E+02  0.40590216209E+02 -0.58832512408E+03  0.61097602903E+03  0.12509000000E+03 0.  0.
         25    1    4    4    0    0 -0.10080426983E+02 -0.99257086607E+01 -0.52104458267E+03  0.53603647257E+03  0.12509000000E+03 0.  0.
         25    1    4    4    0    0 -0.89268366065E+02 -0.30664507549E+02 -0.86667843115E+03  0.88073160743E+03  0.12509000000E+03 0.  0.
<mgrwt>
<rscale>  2 0.45495047E+03</rscale>
<asrwt>0</asrwt>
<pdfrwt beam="1">  1       21 0.38011735E-02 0.45495047E+03</pdfrwt>
<pdfrwt beam="2">  1       21 0.29439655E+00 0.45495047E+03</pdfrwt>
<totfact> 0.13267060E+04</totfact>
</mgrwt>
</event>
<event>
 7    0  0.4779893E-002  0.4563440E+03  0.7546771E-02  0.1025847E+00
         21   -1    0    0  502  501  0.00000000000E+00  0.00000000000E+00  0.51275155588E+03  0.51275155588E+03  0.00000000000E+00 0.  1.
         21   -1    0    0  501  502 -0.00000000000E+00 -0.00000000000E+00 -0.10153547364E+03  0.10153547364E+03  0.00000000000E+00 0.  1.
      99926    2    1    2    0    0  0.00000000000E+00  0.00000000000E+00  0.41121608223E+03  0.61428702952E+03  0.45634404604E+03 0.  0.
      99925    2    3    3    0    0 -0.10699370441E+03  0.39498623522E+02  0.24485986143E+03  0.37694825405E+03  0.26291793482E+03 0.  0.
         25    1    4    4    0    0 -0.25531566657E+02  0.26781033374E+01  0.14689362540E+03  0.19463884097E+03  0.12509000000E+03 0.  0.
         25    1    3    3    0    0  0.10699370441E+03 -0.39498623522E+02  0.16635622081E+03  0.23733877547E+03  0.12509000000E+03 0.  0.
         25    1    4    4    0    0 -0.81462137750E+02  0.36820520185E+02  0.97966236031E+02  0.18230941307E+03  0.12509000000E+03 0.  0.
<mgrwt>
<rscale>  2 0.45634405E+03</rscale>
<asrwt>0</asrwt>
<pdfrwt beam="1">  1       21 0.75404639E-01 0.45634405E+03</pdfrwt>
<pdfrwt beam="2">  1       21 0.14931688E-01 0.45634405E+03</pdfrwt>
<totfact> 0.57197783E+04</totfact>
</mgrwt>
</event>
<event>
 7    0  0.4779893E-002  0.4578628E+03  0.7546771E-02  0.1025403E+00
         21   -1    0    0  502  501  0.00000000000E+00  0.00000000000E+00  0.34477220091E+04  0.34477220091E+04  0.00000000000E+00 0.  1.
         21   -1    0    0  501  502 -0.00000000000E+00 -0.00000000000E+00 -0.15201222380E+02  0.15201222380E+02  0.00000000000E+00 0.  1.
      99926    2    1    2    0    0  0.00000000000E+00 -0.17763568394E-14  0.34325207867E+04  0.34629232315E+04  0.45786281335E+03 0.  0.
      99925    2    3    3    0    0 -0.10655135295E+03  0.14594842512E+02  0.24795267772E+04  0.24957566013E+04  0.26302428377E+03 0.  0.
         25    1    4    4    0    0 -0.86097642975E+02  0.20988144436E+02  0.11468466752E+04  0.11570471515E+04  0.12509000000E+03 0.  0.
         25    1    3    3    0    0  0.10655135295E+03 -0.14594842512E+02  0.95299400946E+03  0.96716663012E+03  0.12509000000E+03 0.  0.
         25    1    4    4    0    0 -0.20453709977E+02 -0.63933019240E+01  0.13326801020E+04  0.13387094498E+04  0.12509000000E+03 0.  0.
<mgrwt>
<rscale>  2 0.45786281E+03</rscale>
<asrwt>0</asrwt>
<pdfrwt beam="1">  1       21 0.50701740E+00 0.45786281E+03</pdfrwt>
<pdfrwt beam="2">  1       21 0.22354763E-02 0.45786281E+03</pdfrwt>
<totfact> 0.13555402E+03</totfact>
</mgrwt>
</event>
<event>
 7    0  0.4779893E-002  0.4662604E+03  0.7546771E-02  0.1022981E+00
         21   -1    0    0  502  501  0.00000000000E+00  0.00000000000E+00  0.38870132221E+03  0.38870132221E+03  0.00000000000E+00 0. -1.
         21   -1    0    0  501  502 -0.00000000000E+00 -0.00000000000E+00 -0.13982378420E+03  0.13982378420E+03  0.00000000000E+00 0. -1.
      99926    2    1    2    0    0  0.00000000000E+00  0.00000000000E+00  0.24887753801E+03  0.52852510640E+03  0.46626039846E+03 0.  0.
      99925    2    3    3    0    0 -0.58779119103E+02  0.10052833066E+03  0.10859475574E+03  0.30741948185E+03  0.26296955477E+03 0.  0.
         25    1    4    4    0    0 -0.24017415358E+02  0.58085720462E+02  0.12786159455E+02  0.14057660238E+03  0.12509000000E+03 0.  0.
         25    1    4    4    0    0 -0.34761703745E+02  0.42442610199E+02  0.95808596286E+02  0.16684287947E+03  0.12509000000E+03 0.  0.
         25    1    3    3    0    0  0.58779119103E+02 -0.10052833066E+03  0.14028278227E+03  0.22110562455E+03  0.12509000000E+03 0.  0.
<mgrwt>
<rscale>  2 0.46626040E+03</rscale>
<asrwt>0</asrwt>
<pdfrwt beam="1">  1       21 0.57161959E-01 0.46626040E+03</pdfrwt>
<pdfrwt beam="2">  1       21 0.20562321E-01 0.46626040E+03</pdfrwt>
<totfact> 0.57956953E+04</totfact>
</mgrwt>
</event>
<event>
 7    0  0.4779893E-002  0.4439290E+03  0.7546771E-02  0.1029548E+00
         21   -1    0    0  502  501  0.00000000000E+00  0.00000000000E+00  0.38111270588E+02  0.38111270588E+02  0.00000000000E+00 0. -1.
         21   -1    0    0  501  502 -0.00000000000E+00 -0.00000000000E+00 -0.12927469973E+04  0.12927469973E+04  0.00000000000E+00 0. -1.
      99926    2    1    2    0    0  0.00000000000E+00  0.00000000000E+00 -0.12546357267E+04  0.13308582679E+04  0.44392896106E+03 0.  0.
      99925    2    3    3    0    0  0.10673349712E+02 -0.59135318604E+02 -0.10460504057E+04  0.10803263327E+04  0.26319693688E+03 0.  0.
         25    1    4    4    0    0  0.29762000816E+02 -0.60240459287E+02 -0.60828904065E+03  0.62464210129E+03  0.12509000000E+03 0.  0.
         25    1    4    4    0    0 -0.19088651105E+02  0.11051406823E+01 -0.43776136507E+03  0.45568423145E+03  0.12509000000E+03 0.  0.
         25    1    3    3    0    0 -0.10673349712E+02  0.59135318604E+02 -0.20858532099E+03  0.25053193516E+03  0.12509000000E+03 0.  0.
<mgrwt>
<rscale>  2 0.44392896E+03</rscale>
<asrwt>0</asrwt>
<pdfrwt beam="1">  1       21 0.56045982E-02 0.44392896E+03</pdfrwt>
<pdfrwt beam="2">  1       21 0.19010987E+00 0.44392896E+03</pdfrwt>
<totfact> 0.30798686E+04</totfact>
</mgrwt>
</event>
<event>
 6    0  0.4779893E-002  0.4558139E+03  0.7546771E-02  0.1026002E+00
         21   -1    0    0  502  501  0.00000000000E+00  0.00000000000E+00  0.14299915555E+04  0.14299915555E+04  0.00000000000E+00 0. -1.
         21   -1    0    0  501  502 -0.00000000000E+00 -0.00000000000E+00 -0.36322999428E+02  0.36322999428E+02  0.00000000000E+00 0. -1.
      99926    2    1    2    0    0  0.00000000000E+00  0.14210854715E-13  0.13936685561E+04  0.14663145549E+04  0.45581392016E+03 0.  0.
         25    1    3    3    0    0  0.34343355325E+02  0.88331747624E+02  0.69189606040E+03  0.70947137376E+03  0.12509000000E+03 0.  0.
         25    1    3    3    0    0 -0.28691671961E+02 -0.21103466767E+01  0.37690853529E+03  0.39816481220E+03  0.12509000000E+03 0.  0.
         25    1    3    3    0    0 -0.56516833640E+01 -0.86221400947E+02  0.32486396041E+03  0.35867836899E+03  0.12509000000E+03 0.  0.
<mgrwt>
<rscale>  2 0.45581392E+03</rscale>
<asrwt>0</asrwt>
<pdfrwt beam="1">  1       21 0.21029284E+00 0.45581392E+03</pdfrwt>
<pdfrwt beam="2">  1       21 0.53416185E-02 0.45581392E+03</pdfrwt>
<totfact> 0.24461849E+04</totfact>
</mgrwt>
</event>
<event>
 7    0  0.4779893E-002  0.4518844E+03  0.7546771E-02  0.1027162E+00
         21   -1    0    0  502  501  0.00000000000E+00  0.00000000000E+00  0.36365893985E+03  0.36365893985E+03  0.00000000000E+00 0.  1.
         21   -1    0    0  501  502 -0.00000000000E+00 -0.00000000000E+00 -0.14037844559E+03  0.14037844559E+03  0.00000000000E+00 0.  1.
      99926    2    1    2    0    0  0.14210854715E-13 -0.14210854715E-13  0.22328049425E+03  0.50403738544E+03  0.45188439540E+03 0.  0.
      99925    2    3    3    0    0  0.73705949810E+02 -0.77073193555E+02  0.10983207989E+03  0.30431033414E+03  0.26299971385E+03 0.  0.
         25    1    4    4    0    0  0.31678807925E+02 -0.65377969880E+00  0.69539594122E+02  0.14658525693E+03  0.12509000000E+03 0.  0.
         25    1    3    3    0    0 -0.73705949810E+02  0.77073193555E+02  0.11344841436E+03  0.19972705130E+03  0.12509000000E+03 0.  0.
         25    1    4    4    0    0  0.42027141885E+02 -0.76419413857E+02  0.40292485770E+02  0.15772507720E+03  0.12509000000E+03 0.  0.
<mgrwt>
<rscale>  2 0.45188440E+03</rscale>
<asrwt>0</asrwt>
<pdfrwt beam="1">  1       21 0.53479256E-01 0.45188440E+03</pdfrwt>
<pdfrwt beam="2">  1       21 0.20643889E-01 0.45188440E+03</pdfrwt>
<totfact> 0.66620214E+04</totfact>
</mgrwt>
</event>
<event>
 7    0  0.4779893E-002  0.4536913E+03  0.7546771E-02  0.1026627E+00
         21   -1    0    0  502  501  0.00000000000E+00  0.00000000000E+00  0.29358839589E+03  0.29358839589E+03  0.00000000000E+00 0.  1.
         21   -1    0    0  501  502 -0.00000000000E+00 -0.00000000000E+00 -0.17527583958E+03  0.17527583958E+03  0.00000000000E+00 0.  1.
      99926    2    1    2    0    0 -0.19984014443E-14 -0.14210854715E-13  0.11831255631E+03  0.46886423548E+03  0.45369131613E+03 0.  0.
      99925    2    3    3    0    0  0.14587085451E+01 -0.10919525801E+03  0.10015388668E+03  0.30182239166E+03  0.26294528497E+03 0.  0.
         25    1    4    4    0    0  0.40990501941E+02 -0.59077056525E+02  0.50251075520E+02  0.15278415673E+03  0.12509000000E+03 0.  0.
         25    1    3    3    0    0 -0.14587085451E+01  0.10919525801E+03  0.18158669632E+02  0.16704184382E+03  0.12509000000E+03 0.  0.
         25    1    4    4    0    0 -0.39531793396E+02 -0.50118201489E+02  0.49902811158E+02  0.14903823493E+03  0.12509000000E+03 0.  0.
<mgrwt>
<rscale>  2 0.45369132E+03</rscale>
<asrwt>0</asrwt>
<pdfrwt beam="1">  1       21 0.43174764E-01 0.45369132E+03</pdfrwt>
<pdfrwt beam="2">  1       21 0.25775859E-01 0.45369132E+03</pdfrwt>
<totfact> 0.68225839E+04</totfact>
</mgrwt>
</event>
<event>
 7    0  0.4779893E-002  0.4536622E+03  0.7546771E-02  0.1026636E+00
         21   -1    0    0  502  501  0.00000000000E+00  0.00000000000E+00  0.69650483567E+03  0.69650483567E+03  0.00000000000E+00 0. -1.
         21   -1    0    0  501  502 -0.00000000000E+00 -0.00000000000E+00 -0.73872195837E+02  0.73872195837E+02  0.00000000000E+00 0. -1.
      99926    2    1    2    0    0  0.00000000000E+00  0.00000000000E+00  0.62263263984E+03  0.77037703151E+03  0.45366217220E+03 0.  0.
      99925    2    3    3    0    0 -0.95876779946E+01  0.10227720783E+03  0.31460224688E+03  0.42240751862E+03  0.26248997550E+03 0.  0.
         25    1    4    4    0    0 -0.27649112217E+02  0.86311135155E+02  0.17430189374E+03  0.23290071644E+03  0.12509000000E+03 0.  0.
         25    1    4    4    0    0  0.18061434223E+02  0.15966072677E+02  0.14030035314E+03  0.18950680218E+03  0.12509000000E+03 0.  0.
         25    1    3    3    0    0  0.95876779946E+01 -0.10227720783E+03  0.30803039296E+03  0.34796951289E+03  0.12509000000E+03 0.  0.
<mgrwt>
<rscale>  2 0.45366217E+03</rscale>
<asrwt>0</asrwt>
<pdfrwt beam="1">  1       21 0.10242718E+00 0.45366217E+03</pdfrwt>
<pdfrwt beam="2">  1       21 0.10863559E-01 0.45366217E+03</pdfrwt>
<totfact> 0.49751407E+04</totfact>
</mgrwt>
</event>
<event>
 7    0  0.4779893E-002  0.4543776E+03  0.7546771E-02  0.1026425E+00
         21   -1    0    0  502  501  0.00000000000E+00  0.00000000000E+00  0.20656574623E+03  0.20656574623E+03  0.00000000000E+00 0. -1.
         21   -1    0    0  501  502 -0.00000000000E+00 -0.00000000000E+00 -0.24987086335E+03  0.24987086335E+03  0.00000000000E+00 0. -1.
      99926    2    1    2    0    0  0.00000000000E+00  0.00000000000E+00 -0.43305117122E+02  0.45643660958E+03  0.45437764623E+03 0.  0.
      99925    2    3    3    0    0 -0.87514566431E+02 -0.67252611715E+02 -0.49282830070E+02  0.28950861830E+03  0.26306791825E+03 0.  0.
         25    1    4    4    0    0 -0.28862725209E+01 -0.20298473480E+02 -0.29212223297E+02  0.13008159241E+03  0.12509000000E+03 0.  0.
         25    1    3    3    0    0  0.87514566431E+02  0.67252611715E+02  0.59777129480E+01  0.16692799128E+03  0.12509000000E+03 0.  0.
         25    1    4    4    0    0 -0.84628293910E+02 -0.46954138235E+02 -0.20070606773E+02  0.15942702589E+03  0.12509000000E+03 0.  0.
<mgrwt>
<rscale>  2 0.45437765E+03</rscale>
<asrwt>0</asrwt>
<pdfrwt beam="1">  1       21 0.30377316E-01 0.45437765E+03</pdfrwt>
<pdfrwt beam="2">  1       21 0.36745715E-01 0.45437765E+03</pdfrwt>
<totfact> 0.68781583E+04</totfact>
</mgrwt>
</event>
<event>
 7    0  0.4779893E-002  0.4548821E+03  0.7546771E-02  0.1026276E+00
         21   -1    0    0  502  501  0.00000000000E+00  0.00000000000E+00  0.12756240474E+03  0.12756240474E+03  0.00000000000E+00 0. -1.
         21   -1    0    0  501  502 -0.00000000000E+00 -0.00000000000E+00 -0.40552252129E+03  0.40552252129E+03  0.00000000000E+00 0. -1.
      99926    2    1    2    0    0 -0.99920072216E-15  0.14210854715E-13 -0.27796011655E+03  0.53308492603E+03  0.45488208579E+03 0.  0.
      99925    2    3    3    0    0 -0.82007889253E+00 -0.94523549632E+02 -0.24745657407E+03  0.37335594254E+03  0.26310554881E+03 0.  0.
         25    1    4    4    0    0  0.22785414909E+02 -0.58037198191E+02 -0.16948677845E+03  0.21968333499E+03  0.12509000000E+03 0.  0.
         25    1    4    4    0    0 -0.23605493802E+02 -0.36486351441E+02 -0.77969795626E+02  0.15367260754E+03  0.12509000000E+03 0.  0.
         25    1    3    3    0    0  0.82007889253E+00  0.94523549632E+02 -0.30503542478E+02  0.15972898349E+03  0.12509000000E+03 0.  0.
<mgrwt>
<rscale>  2 0.45488209E+03</rscale>
<asrwt>0</asrwt>
<pdfrwt beam="1">  1       21 0.18759177E-01 0.45488209E+03</pdfrwt>
<pdfrwt beam="2">  1       21 0.59635664E-01 0.45488209E+03</pdfrwt>
<totfact> 0.63057027E+04</totfact>
</mgrwt>
</event>
<event>
 7    0  0.4779893E-002  0.4607712E+03  0.7546771E-02  0.1024558E+00
         21   -1    0    0  502  501  0.00000000000E+00  0.00000000000E+00  0.10304468666E+03  0.10304468666E+03  0.00000000000E+00 0.  1.
         21   -1    0    0  501  502 -0.00000000000E+00 -0.00000000000E+00 -0.51509233917E+03  0.51509233917E+03  0.00000000000E+00 0.  1.
      99926    2    1    2    0    0 -0.35527136788E-14  0.00000000000E+00 -0.41204765251E+03  0.61813702583E+03  0.46077121737E+03 0.  0.
      99925    2    3    3    0    0 -0.20120157534E+02 -0.91830450852E+02 -0.35535688341E+03  0.45170684874E+03  0.26253173175E+03 0.  0.
         25    1    3    3    0    0  0.20120157534E+02  0.91830450852E+02 -0.56690769106E+02  0.16643017709E+03  0.12509000000E+03 0.  0.
         25    1    4    4    0    0 -0.18860097204E+02 -0.27561158221E+02 -0.22685587475E+03  0.26120186967E+03  0.12509000000E+03 0.  0.
         25    1    4    4    0    0 -0.12600603303E+01 -0.64269292631E+02 -0.12850100866E+03  0.19050497908E+03  0.12509000000E+03 0.  0.
<mgrwt>
<rscale>  2 0.46077122E+03</rscale>
<asrwt>0</asrwt>
<pdfrwt beam="1">  1       21 0.15153631E-01 0.46077122E+03</pdfrwt>
<pdfrwt beam="2">  1       21 0.75748873E-01 0.46077122E+03</pdfrwt>
<totfact> 0.55024496E+04</totfact>
</mgrwt>
</event>
<event>
 7    0  0.4779893E-002  0.4429091E+03  0.7546771E-02  0.1029858E+00
         21   -1    0    0  502  501  0.00000000000E+00  0.00000000000E+00  0.30199772604E+03  0.30199772604E+03  0.00000000000E+00 0.  1.
         21   -1    0    0  501  502 -0.00000000000E+00 -0.00000000000E+00 -0.16239232576E+03  0.16239232576E+03  0.00000000000E+00 0.  1.
      99926    2    1    2    0    0  0.35527136788E-14 -0.14210854715E-13  0.13960540028E+03  0.46439005180E+03  0.44290907918E+03 0.  0.
      99925    2    3    3    0    0  0.26589851742E+02 -0.92552377490E+02  0.12232880325E+03  0.30558529211E+03  0.26295450529E+03 0.  0.
         25    1    3    3    0    0 -0.26589851742E+02  0.92552377490E+02  0.17276597025E+02  0.15880475969E+03  0.12509000000E+03 0.  0.
         25    1    4    4    0    0  0.50442563454E+02 -0.31905345545E+02  0.52627306687E+02  0.14825499921E+03  0.12509000000E+03 0.  0.
         25    1    4    4    0    0 -0.23852711712E+02 -0.60647031945E+02  0.69701496567E+02  0.15733029290E+03  0.12509000000E+03 0.  0.
<mgrwt>
<rscale>  2 0.44290908E+03</rscale>
<asrwt>0</asrwt>
<pdfrwt beam="1">  1       21 0.44411430E-01 0.44290908E+03</pdfrwt>
<pdfrwt beam="2">  1       21 0.23881225E-01 0.44290908E+03</pdfrwt>
<totfact> 0.74775192E+04</totfact>
</mgrwt>
</event>
<event>
 7    0  0.4779893E-002  0.4563364E+03  0.7546771E-02  0.1025849E+00
         21   -1    0    0  502  501  0.00000000000E+00  0.00000000000E+00  0.51806870924E+03  0.51806870924E+03  0.00000000000E+00 0.  1.
         21   -1    0    0  501  502 -0.00000000000E+00 -0.00000000000E+00 -0.10049002037E+03  0.10049002037E+03  0.00000000000E+00 0.  1.
      99926    2    1    2    0    0  0.00000000000E+00  0.35527136788E-14  0.41757868887E+03  0.61855872962E+03  0.45633643355E+03 0.  0.
      99925    2    3    3    0    0 -0.65379956607E+02 -0.20267374443E+02  0.13818626352E+03  0.30488223921E+03  0.26300652305E+03 0.  0.
         25    1    4    4    0    0 -0.37508796851E+02 -0.46064196751E+02  0.91916086116E+02  0.16620738567E+03  0.12509000000E+03 0.  0.
         25    1    4    4    0    0 -0.27871159756E+02  0.25796822308E+02  0.46270177400E+02  0.13867485354E+03  0.12509000000E+03 0.  0.
         25    1    3    3    0    0  0.65379956607E+02  0.20267374443E+02  0.27939242535E+03  0.31367649041E+03  0.12509000000E+03 0.  0.
<mgrwt>
<rscale>  2 0.45633643E+03</rscale>
<asrwt>0</asrwt>
<pdfrwt beam="1">  1       21 0.76186574E-01 0.45633643E+03</pdfrwt>
<pdfrwt beam="2">  1       21 0.14777944E-01 0.45633643E+03</pdfrwt>
<totfact> 0.56946844E+04</totfact>
</mgrwt>
</event>
<event>
 7    0  0.4779893E-002  0.4552561E+03  0.7546771E-02  0.1026166E+00
         21   -1    0    0  502  501  0.00000000000E+00  0.00000000000E+00  0.59527914801E+03  0.59527914801E+03  0.00000000000E+00 0.  1.
         21   -1    0    0  501  502 -0.00000000000E+00 -0.00000000000E+00 -0.87042394823E+02  0.87042394823E+02  0.00000000000E+00 0.  1.
      99926    2    1    2    0    0  0.00000000000E+00  0.00000000000E+00  0.50823675319E+03  0.68232154283E+03  0.45525607137E+03 0.  0.
      99925    2    3    3    0    0 -0.61552817730E+02  0.96811744409E+02  0.32695753611E+03  0.43398522678E+03  0.26130572787E+03 0.  0.
         25    1    4    4    0    0 -0.48815520463E+02  0.16711343481E+02  0.17359768271E+03  0.22010426525E+03  0.12509000000E+03 0.  0.
         25    1    3    3    0    0  0.61552817730E+02 -0.96811744409E+02  0.18127921708E+03  0.24833631605E+03  0.12509000000E+03 0.  0.
         25    1    4    4    0    0 -0.12737297267E+02  0.80100400928E+02  0.15335985340E+03  0.21388096153E+03  0.12509000000E+03 0.  0.
<mgrwt>
<rscale>  2 0.45525607E+03</rscale>
<asrwt>0</asrwt>
<pdfrwt beam="1">  1       21 0.87541050E-01 0.45525607E+03</pdfrwt>
<pdfrwt beam="2">  1       21 0.12800352E-01 0.45525607E+03</pdfrwt>
<totfact> 0.53765174E+04</totfact>
</mgrwt>
</event>
<event>
 7    0  0.4779893E-002  0.4581530E+03  0.7546771E-02  0.1025318E+00
         21   -1    0    0  502  501  0.00000000000E+00  0.00000000000E+00  0.73148726754E+02  0.73148726754E+02  0.00000000000E+00 0.  1.
         21   -1    0    0  501  502 -0.00000000000E+00 -0.00000000000E+00 -0.71738847854E+03  0.71738847854E+03  0.00000000000E+00 0.  1.
      99926    2    1    2    0    0  0.00000000000E+00  0.00000000000E+00 -0.64423975178E+03  0.79053720529E+03  0.45815304776E+03 0.  0.
      99925    2    3    3    0    0 -0.45047342527E+01 -0.44222494075E+02 -0.58934670015E+03  0.64688249137E+03  0.26296673374E+03 0.  0.
         25    1    4    4    0    0 -0.89133871380E+01 -0.38370888815E+02 -0.21210699315E+03  0.24937653904E+03  0.12509000000E+03 0.  0.
         25    1    3    3    0    0  0.45047342527E+01  0.44222494075E+02 -0.54893051630E+02  0.14365471392E+03  0.12509000000E+03 0.  0.
         25    1    4    4    0    0  0.44086528853E+01 -0.58516052599E+01 -0.37723970700E+03  0.39750595234E+03  0.12509000000E+03 0.  0.
<mgrwt>
<rscale>  2 0.45815305E+03</rscale>
<asrwt>0</asrwt>
<pdfrwt beam="1">  1       21 0.10757165E-01 0.45815305E+03</pdfrwt>
<pdfrwt beam="2">  1       21 0.10549831E+00 0.45815305E+03</pdfrwt>
<totfact> 0.47050753E+04</totfact>
</mgrwt>
</event>
<event>
 7    0  0.4779893E-002  0.4522360E+03  0.7546771E-02  0.1027057E+00
         21   -1    0    0  502  501  0.00000000000E+00  0.00000000000E+00  0.95312081092E+02  0.95312081092E+02  0.00000000000E+00 0.  1.
         21   -1    0    0  501  502 -0.00000000000E+00 -0.00000000000E+00 -0.53644147053E+03  0.53644147053E+03  0.00000000000E+00 0.  1.
      99926    2    1    2    0    0  0.00000000000E+00  0.00000000000E+00 -0.44112938944E+03  0.63175355162E+03  0.45223601334E+03 0.  0.
      99925    2    3    3    0    0  0.71436514253E+02  0.51527284992E+02 -0.18532233428E+03  0.33368813223E+03  0.26314476119E+03 0.  0.
         25    1    3    3    0    0 -0.71436514253E+02 -0.51527284992E+02 -0.25580705516E+03  0.29806541939E+03  0.12509000000E+03 0.  0.
         25    1    4    4    0    0  0.95961078536E+01  0.22574052751E+02 -0.12626932868E+03  0.17942442590E+03  0.12509000000E+03 0.  0.
         25    1    4    4    0    0  0.61840406400E+02  0.28953232241E+02 -0.59053005598E+02  0.15426370633E+03  0.12509000000E+03 0.  0.
<mgrwt>
<rscale>  2 0.45223601E+03</rscale>
<asrwt>0</asrwt>
<pdfrwt beam="1">  1       21 0.14016482E-01 0.45223601E+03</pdfrwt>
<pdfrwt beam="2">  1       21 0.78888452E-01 0.45223601E+03</pdfrwt>
<totfact> 0.58020645E+04</totfact>
</mgrwt>
</event>
<event>
 7    0  0.4779893E-002  0.4565342E+03  0.7546771E-02  0.1025791E+00
         21   -1    0    0  502  501  0.00000000000E+00  0.00000000000E+00  0.20919744275E+03  0.20919744275E+03  0.00000000000E+00 0.  1.
         21   -1    0    0  501  502 -0.00000000000E+00 -0.00000000000E+00 -0.24907502689E+03  0.24907502689E+03  0.00000000000E+00 0.  1.
      99926    2    1    2    0    0  0.00000000000E+00  0.00000000000E+00 -0.39877584144E+02  0.45827246964E+03  0.45653415504E+03 0.  0.
      99925    2    3    3    0    0  0.99082839950E+02  0.57545846626E+02 -0.23450702568E+02  0.28784276515E+03  0.26301062404E+03 0.  0.
         25    1    4    4    0    0  0.50194882797E+02  0.68757496759E+02 -0.23156369798E+02  0.15307137284E+03  0.12509000000E+03 0.  0.
         25    1    3    3    0    0 -0.99082839950E+02 -0.57545846626E+02 -0.16426881576E+02  0.17042970450E+03  0.12509000000E+03 0.  0.
         25    1    4    4    0    0  0.48887957154E+02 -0.11211650133E+02 -0.29433277001E+00  0.13477139231E+03  0.12509000000E+03 0.  0.
<mgrwt>
<rscale>  2 0.45653416E+03</rscale>
<asrwt>0</asrwt>
<pdfrwt beam="1">  1       21 0.30764330E-01 0.45653416E+03</pdfrwt>
<pdfrwt beam="2">  1       21 0.36628680E-01 0.45653416E+03</pdfrwt>
<totfact> 0.67476997E+04</totfact>
</mgrwt>
</event>
<event>
 7    0  0.4779893E-002  0.4394057E+03  0.7546771E-02  0.1030929E+00
         21   -1    0    0  502  501  0.00000000000E+00  0.00000000000E+00  0.28341104415E+03  0.28341104415E+03  0.00000000000E+00 0. -1.
         21   -1    0    0  501  502 -0.00000000000E+00 -0.00000000000E+00 -0.17031564439E+03  0.17031564439E+03  0.00000000000E+00 0. -1.
      99926    2    1    2    0    0  0.00000000000E+00  0.00000000000E+00  0.11309539976E+03  0.45372668855E+03  0.43940566502E+03 0.  0.
      99925    2    3    3    0    0  0.32237574730E+02 -0.68527722586E+02  0.81723336079E+01  0.27374983477E+03  0.26293891878E+03 0.  0.
         25    1    4    4    0    0  0.51181993474E+02 -0.45587160554E+02 -0.13813595533E+02  0.14330425390E+03  0.12509000000E+03 0.  0.
         25    1    3    3    0    0 -0.32237574730E+02  0.68527722586E+02  0.10492306615E+03  0.17997685378E+03  0.12509000000E+03 0.  0.
         25    1    4    4    0    0 -0.18944418744E+02 -0.22940562032E+02  0.21985929141E+02  0.13044558087E+03  0.12509000000E+03 0.  0.
<mgrwt>
<rscale>  2 0.43940567E+03</rscale>
<asrwt>0</asrwt>
<pdfrwt beam="1">  1       21 0.41678095E-01 0.43940567E+03</pdfrwt>
<pdfrwt beam="2">  1       21 0.25046418E-01 0.43940567E+03</pdfrwt>
<totfact> 0.77859817E+04</totfact>
</mgrwt>
</event>
<event>
 7    0  0.4779893E-002  0.4548938E+03  0.7546771E-02  0.1026273E+00
         21   -1    0    0  502  501  0.00000000000E+00  0.00000000000E+00  0.32979617864E+03  0.32979617864E+03  0.00000000000E+00 0. -1.
         21   -1    0    0  501  502 -0.00000000000E+00 -0.00000000000E+00 -0.15686077859E+03  0.15686077859E+03  0.00000000000E+00 0. -1.
      99926    2    1    2    0    0  0.35527136788E-14  0.00000000000E+00  0.17293540005E+03  0.48665695724E+03  0.45489376940E+03 0.  0.
      99925    2    3    3    0    0  0.24847886769E+02 -0.31837076024E+02  0.22175424421E+03  0.34643640050E+03  0.26308215044E+03 0.  0.
         25    1    4    4    0    0  0.39438809738E+02  0.10072989013E+02  0.89786394088E+02  0.15926703829E+03  0.12509000000E+03 0.  0.
         25    1    4    4    0    0 -0.14590922969E+02 -0.41910065037E+02  0.13196785012E+03  0.18716936221E+03  0.12509000000E+03 0.  0.
         25    1    3    3    0    0 -0.24847886769E+02  0.31837076024E+02 -0.48818844160E+02  0.14022055674E+03  0.12509000000E+03 0.  0.
<mgrwt>
<rscale>  2 0.45489377E+03</rscale>
<asrwt>0</asrwt>
<pdfrwt beam="1">  1       21 0.48499438E-01 0.45489377E+03</pdfrwt>
<pdfrwt beam="2">  1       21 0.23067761E-01 0.45489377E+03</pdfrwt>
<totfact> 0.66274498E+04</totfact>
</mgrwt>
</event>
<event>
 7    0  0.4779893E-002  0.4575077E+03  0.7546771E-02  0.1025507E+00
         21   -1    0    0  502  501  0.00000000000E+00  0.00000000000E+00  0.52355535319E+03  0.52355535319E+03  0.00000000000E+00 0.  1.
         21   -1    0    0  501  502 -0.00000000000E+00 -0.00000000000E+00 -0.99948042016E+02  0.99948042016E+02  0.00000000000E+00 0.  1.
      99926    2    1    2    0    0 -0.14210854715E-13 -0.35527136788E-14  0.42360731118E+03  0.62350339521E+03  0.45750773737E+03 0.  0.
      99925    2    3    3    0    0  0.89142955792E+02 -0.23898102952E+02  0.17140309111E+03  0.32723989322E+03  0.26303867050E+03 0.  0.
         25    1    3    3    0    0 -0.89142955792E+02  0.23898102952E+02  0.25220422006E+03  0.29626350199E+03  0.12509000000E+03 0.  0.
         25    1    4    4    0    0  0.39916558398E+02  0.28180443722E+02  0.90285658384E+02  0.16182236326E+03  0.12509000000E+03 0.  0.
         25    1    4    4    0    0  0.49226397394E+02 -0.52078546674E+02  0.81117432730E+02  0.16541752996E+03  0.12509000000E+03 0.  0.
<mgrwt>
<rscale>  2 0.45750774E+03</rscale>
<asrwt>0</asrwt>
<pdfrwt beam="1">  1       21 0.76993433E-01 0.45750774E+03</pdfrwt>
<pdfrwt beam="2">  1       21 0.14698242E-01 0.45750774E+03</pdfrwt>
<totfact> 0.56134619E+04</totfact>
</mgrwt>
</event>
<event>
 7    0  0.4779893E-002  0.4589516E+03  0.7546771E-02  0.1025086E+00
         21   -1    0    0  502  501  0.00000000000E+00  0.00000000000E+00  0.97454637144E+03  0.97454637144E+03  0.00000000000E+00 0.  1.
         21   -1    0    0  501  502 -0.00000000000E+00 -0.00000000000E+00 -0.54034525218E+02  0.54034525218E+02  0.00000000000E+00 0.  1.
      99926    2    1    2    0    0  0.00000000000E+00  0.00000000000E+00  0.92051184622E+03  0.10285808967E+04  0.45895163355E+03 0.  0.
      99925    2    3    3    0    0 -0.87920064068E+02  0.53375029223E+02  0.45356490066E+03  0.53434837094E+03  0.26311258237E+03 0.  0.
         25    1    4    4    0    0 -0.22690284876E+02  0.37950978378E+02  0.15682466157E+03  0.20541813057E+03  0.12509000000E+03 0.  0.
         25    1    4    4    0    0 -0.65229779193E+02  0.15424050845E+02  0.29674023909E+03  0.32893024037E+03  0.12509000000E+03 0.  0.
         25    1    3    3    0    0  0.87920064068E+02 -0.53375029223E+02  0.46694694556E+03  0.49423252572E+03  0.12509000000E+03 0.  0.
<mgrwt>
<rscale>  2 0.45895163E+03</rscale>
<asrwt>0</asrwt>
<pdfrwt beam="1">  1       21 0.14331563E+00 0.45895163E+03</pdfrwt>
<pdfrwt beam="2">  1       21 0.79462543E-02 0.45895163E+03</pdfrwt>
<totfact> 0.36921016E+04</totfact>
</mgrwt>
</event>
<event>
 7    0  0.4779893E-002  0.4517155E+03  0.7546771E-02  0.1027212E+00
         21   -1    0    0  502  501  0.00000000000E+00  0.00000000000E+00  0.90590098769E+03  0.90590098769E+03  0.00000000000E+00 0. -1.
         21   -1    0    0  501  502 -0.00000000000E+00 -0.00000000000E+00 -0.56310492818E+02  0.56310492818E+02  0.00000000000E+00 0. -1.
      99926    2    1    2    0    0  0.00000000000E+00  0.00000000000E+00  0.84959049487E+03  0.96221148051E+03  0.45171553465E+03 0.  0.
      99925    2    3    3    0    0  0.86589242014E+02  0.41638479144E+02  0.42201351666E+03  0.50646918471E+03  0.26302883310E+03 0.  0.
         25    1    4    4    0    0  0.75296988538E+02  0.28870231087E+02  0.27497812395E+03  0.31267171838E+03  0.12509000000E+03 0.  0.
         25    1    4    4    0    0  0.11292253476E+02  0.12768248057E+02  0.14703539271E+03  0.19379746633E+03  0.12509000000E+03 0.  0.
         25    1    3    3    0    0 -0.86589242014E+02 -0.41638479144E+02  0.42757697821E+03  0.45574229579E+03  0.12509000000E+03 0.  0.
<mgrwt>
<rscale>  2 0.45171553E+03</rscale>
<asrwt>0</asrwt>
<pdfrwt beam="1">  1       21 0.13322072E+00 0.45171553E+03</pdfrwt>
<pdfrwt beam="2">  1       21 0.82809554E-02 0.45171553E+03</pdfrwt>
<totfact> 0.41711163E+04</totfact>
</mgrwt>
</event>
<event>
 7    0  0.4779893E-002  0.4442837E+03  0.7546771E-02  0.1029441E+00
         21   -1    0    0  502  501  0.00000000000E+00  0.00000000000E+00  0.41817655558E+03  0.41817655558E+03  0.00000000000E+00 0.  1.
         21   -1    0    0  501  502 -0.00000000000E+00 -0.00000000000E+00 -0.11800520731E+03  0.11800520731E+03  0.00000000000E+00 0.  1.
      99926    2    1    2    0    0  0.00000000000E+00 -0.14210854715E-13  0.30017134828E+03  0.53618176289E+03  0.44428374327E+03 0.  0.
      99925    2    3    3    0    0 -0.39867508820E+02 -0.94802869301E+02  0.19314452013E+03  0.34207031982E+03  0.26292640750E+03 0.  0.
         25    1    3    3    0    0  0.39867508820E+02  0.94802869301E+02  0.10702682814E+03  0.19411144307E+03  0.12509000000E+03 0.  0.
         25    1    4    4    0    0 -0.12663673647E+02 -0.41034021007E+02  0.14213459773E+03  0.19414919902E+03  0.12509000000E+03 0.  0.
         25    1    4    4    0    0 -0.27203835173E+02 -0.53768848294E+02  0.51009922404E+02  0.14792112080E+03  0.12509000000E+03 0.  0.
<mgrwt>
<rscale>  2 0.44428374E+03</rscale>
<asrwt>0</asrwt>
<pdfrwt beam="1">  1       21 0.61496552E-01 0.44428374E+03</pdfrwt>
<pdfrwt beam="2">  1       21 0.17353707E-01 0.44428374E+03</pdfrwt>
<totfact> 0.68409038E+04</totfact>
</mgrwt>
</event>
<event>
 7    0  0.4779893E-002  0.4500357E+03  0.7546771E-02  0.1027711E+00
         21   -1    0    0  502  501  0.00000000000E+00  0.00000000000E+00  0.48939367900E+02  0.48939367900E+02  0.00000000000E+00 0. -1.
         21   -1    0    0  501  502 -0.00000000000E+00 -0.00000000000E+00 -0.10346076266E+04  0.10346076266E+04  0.00000000000E+00 0. -1.
      99926    2    1    2    0    0  0.00000000000E+00  0.00000000000E+00 -0.98566825867E+03  0.10835469945E+04  0.45003574644E+03 0.  0.
      99925    2    3    3    0    0  0.57674622509E+02  0.85106571334E+02 -0.70500492187E+03  0.75952707643E+03  0.26321084589E+03 0.  0.
         25    1    4    4    0    0 -0.59883459376E+01  0.29750835814E+02 -0.37996754245E+03  0.40117803272E+03  0.12509000000E+03 0.  0.
         25    1    3    3    0    0 -0.57674622509E+02 -0.85106571334E+02 -0.28066333679E+03  0.32401991804E+03  0.12509000000E+03 0.  0.
         25    1    4    4    0    0  0.63662968447E+02  0.55355735520E+02 -0.32503737942E+03  0.35834904371E+03  0.12509000000E+03 0.  0.
<mgrwt>
<rscale>  2 0.45003575E+03</rscale>
<asrwt>0</asrwt>
<pdfrwt beam="1">  1       21 0.71969658E-02 0.45003575E+03</pdfrwt>
<pdfrwt beam="2">  1       21 0.15214818E+00 0.45003575E+03</pdfrwt>
<totfact> 0.37501623E+04</totfact>
</mgrwt>
</event>
<event>
 7    0  0.4779893E-002  0.4490158E+03  0.7546771E-02  0.1028016E+00
         21   -1    0    0  502  501  0.00000000000E+00  0.00000000000E+00  0.82626063331E+02  0.82626063331E+02  0.00000000000E+00 0.  1.
         21   -1    0    0  501  502 -0.00000000000E+00 -0.00000000000E+00 -0.61002298596E+03  0.61002298596E+03  0.00000000000E+00 0.  1.
      99926    2    1    2    0    0  0.00000000000E+00  0.00000000000E+00 -0.52739692263E+03  0.69264904929E+03  0.44901580316E+03 0.  0.
      99925    2    3    3    0    0 -0.72025149898E+02  0.13362421916E+02 -0.45493168374E+03  0.53058456988E+03  0.26304176930E+03 0.  0.
         25    1    4    4    0    0  0.60737077792E+01  0.47622096279E+01 -0.21035991157E+03  0.24486398074E+03  0.12509000000E+03 0.  0.
         25    1    4    4    0    0 -0.78098857678E+02  0.86002122884E+01 -0.24457177216E+03  0.28572058915E+03  0.12509000000E+03 0.  0.
         25    1    3    3    0    0  0.72025149898E+02 -0.13362421916E+02 -0.72465238893E+02  0.16206447941E+03  0.12509000000E+03 0.  0.
<mgrwt>
<rscale>  2 0.44901580E+03</rscale>
<asrwt>0</asrwt>
<pdfrwt beam="1">  1       21 0.12150892E-01 0.44901580E+03</pdfrwt>
<pdfrwt beam="2">  1       21 0.89709262E-01 0.44901580E+03</pdfrwt>
<totfact> 0.55890400E+04</totfact>
</mgrwt>
</event>
<event>
 7    0  0.4779893E-002  0.4518388E+03  0.7546771E-02  0.1027175E+00
         21   -1    0    0  502  501  0.00000000000E+00  0.00000000000E+00  0.25868861570E+03  0.25868861570E+03  0.00000000000E+00 0. -1.
         21   -1    0    0  501  502 -0.00000000000E+00 -0.00000000000E+00 -0.19730122820E+03  0.19730122820E+03  0.00000000000E+00 0. -1.
      99926    2    1    2    0    0  0.00000000000E+00  0.00000000000E+00  0.61387387507E+02  0.45598984390E+03  0.45183882790E+03 0.  0.
      99925    2    3    3    0    0  0.87311606053E+02 -0.34754215470E+01  0.10624482294E+03  0.29694553335E+03  0.26316020266E+03 0.  0.
         25    1    4    4    0    0  0.65485078913E+02 -0.15848558936E+01  0.93411951640E+02  0.16930477884E+03  0.12509000000E+03 0.  0.
         25    1    4    4    0    0  0.21826527140E+02 -0.18905656534E+01  0.12832871303E+02  0.12764075451E+03  0.12509000000E+03 0.  0.
         25    1    3    3    0    0 -0.87311606053E+02  0.34754215470E+01 -0.44857435436E+02  0.15904431056E+03  0.12509000000E+03 0.  0.
<mgrwt>
<rscale>  2 0.45183883E+03</rscale>
<asrwt>0</asrwt>
<pdfrwt beam="1">  1       21 0.38042444E-01 0.45183883E+03</pdfrwt>
<pdfrwt beam="2">  1       21 0.29014886E-01 0.45183883E+03</pdfrwt>
<totfact> 0.70227597E+04</totfact>
</mgrwt>
</event>
<event>
 7    0  0.4779893E-002  0.4657156E+03  0.7546771E-02  0.1023136E+00
         21   -1    0    0  502  501  0.00000000000E+00  0.00000000000E+00  0.69912960744E+02  0.69912960744E+02  0.00000000000E+00 0.  1.
         21   -1    0    0  501  502 -0.00000000000E+00 -0.00000000000E+00 -0.77557509065E+03  0.77557509065E+03  0.00000000000E+00 0.  1.
      99926    2    1    2    0    0  0.00000000000E+00  0.35527136788E-14 -0.70566212991E+03  0.84548805140E+03  0.46571558216E+03 0.  0.
      99925    2    3    3    0    0 -0.11287758609E+03 -0.11939534214E+02 -0.52613750692E+03  0.59899160056E+03  0.26284284169E+03 0.  0.
         25    1    4    4    0    0 -0.26800403323E+02 -0.35068652960E+02 -0.23770473090E+03  0.27221153398E+03  0.12509000000E+03 0.  0.
         25    1    3    3    0    0  0.11287758609E+03  0.11939534214E+02 -0.17952462298E+03  0.24649645084E+03  0.12509000000E+03 0.  0.
         25    1    4    4    0    0 -0.86077182769E+02  0.23129118746E+02 -0.28843277602E+03  0.32678006657E+03  0.12509000000E+03 0.  0.
<mgrwt>
<rscale>  2 0.46571558E+03</rscale>
<asrwt>0</asrwt>
<pdfrwt beam="1">  1       21 0.10281318E-01 0.46571558E+03</pdfrwt>
<pdfrwt beam="2">  1       21 0.11405516E+00 0.46571558E+03</pdfrwt>
<totfact> 0.41998392E+04</totfact>
</mgrwt>
</event>
<event>
 7    0  0.4779893E-002  0.4446028E+03  0.7546771E-02  0.1029344E+00
         21   -1    0    0  502  501  0.00000000000E+00  0.00000000000E+00  0.64344982844E+02  0.64344982844E+02  0.00000000000E+00 0. -1.
         21   -1    0    0  501  502 -0.00000000000E+00 -0.00000000000E+00 -0.76801517203E+03  0.76801517203E+03  0.00000000000E+00 0. -1.
      99926    2    1    2    0    0  0.35527136788E-14  0.00000000000E+00 -0.70367018918E+03  0.83236015487E+03  0.44460284780E+03 0.  0.
      99925    2    3    3    0    0 -0.25774974349E+02 -0.94467072183E+02 -0.38720006166E+03  0.47825674237E+03  0.26309170805E+03 0.  0.
         25    1    3    3    0    0  0.25774974349E+02  0.94467072183E+02 -0.31647012753E+03  0.35410341250E+03  0.12509000000E+03 0.  0.
         25    1    4    4    0    0 -0.46098788086E+02 -0.26809427834E+02 -0.16737117020E+03  0.21564892858E+03  0.12509000000E+03 0.  0.
         25    1    4    4    0    0  0.20323813737E+02 -0.67657644349E+02 -0.21982889146E+03  0.26260781379E+03  0.12509000000E+03 0.  0.
<mgrwt>
<rscale>  2 0.44460285E+03</rscale>
<asrwt>0</asrwt>
<pdfrwt beam="1">  1       21 0.94624985E-02 0.44460285E+03</pdfrwt>
<pdfrwt beam="2">  1       21 0.11294340E+00 0.44460285E+03</pdfrwt>
<totfact> 0.50211428E+04</totfact>
</mgrwt>
</event>
<event>
 7    0  0.4779893E-002  0.4568247E+03  0.7546771E-02  0.1025706E+00
         21   -1    0    0  502  501  0.00000000000E+00  0.00000000000E+00  0.23359903105E+03  0.23359903105E+03  0.00000000000E+00 0.  1.
         21   -1    0    0  501  502 -0.00000000000E+00 -0.00000000000E+00 -0.22334079291E+03  0.22334079291E+03  0.00000000000E+00 0.  1.
      99926    2    1    2    0    0  0.35527136788E-14  0.00000000000E+00  0.10258238146E+02  0.45693982396E+03  0.45682466140E+03 0.  0.
      99925    2    3    3    0    0  0.18576117851E+02  0.11337747204E+03  0.61234875782E+01  0.28704536383E+03  0.26297912555E+03 0.  0.
         25    1    3    3    0    0 -0.18576117851E+02 -0.11337747204E+03  0.41347505679E+01  0.16989446013E+03  0.12509000000E+03 0.  0.
         25    1    4    4    0    0 -0.22252774518E+02  0.77810665387E+02  0.18716377346E+02  0.15015823821E+03  0.12509000000E+03 0.  0.
         25    1    4    4    0    0  0.40828892369E+02  0.35566806649E+02 -0.12592889768E+02  0.13688712562E+03  0.12509000000E+03 0.  0.
<mgrwt>
<rscale>  2 0.45682466E+03</rscale>
<asrwt>0</asrwt>
<pdfrwt beam="1">  1       21 0.34352799E-01 0.45682466E+03</pdfrwt>
<pdfrwt beam="2">  1       21 0.32844234E-01 0.45682466E+03</pdfrwt>
<totfact> 0.67417045E+04</totfact>
</mgrwt>
</event>
<event>
 7    0  0.4779893E-002  0.4589779E+03  0.7546771E-02  0.1025078E+00
         21   -1    0    0  502  501  0.00000000000E+00  0.00000000000E+00  0.59845297551E+02  0.59845297551E+02  0.00000000000E+00 0. -1.
         21   -1    0    0  501  502 -0.00000000000E+00 -0.00000000000E+00 -0.88002214535E+03  0.88002214535E+03  0.00000000000E+00 0. -1.
      99926    2    1    2    0    0  0.00000000000E+00  0.17763568394E-14 -0.82017684779E+03  0.93986744290E+03  0.45897793908E+03 0.  0.
      99925    2    3    3    0    0  0.81319246584E+02 -0.15347219048E+02 -0.68358574809E+03  0.73700543656E+03  0.26275308090E+03 0.  0.
         25    1    4    4    0    0  0.65430971210E+01  0.13263105539E+02 -0.28267509905E+03  0.30946961372E+03  0.12509000000E+03 0.  0.
         25    1    4    4    0    0  0.74776149463E+02 -0.28610324587E+02 -0.40091064904E+03  0.42753582284E+03  0.12509000000E+03 0.  0.
         25    1    3    3    0    0 -0.81319246584E+02  0.15347219048E+02 -0.13659109970E+03  0.20286200634E+03  0.12509000000E+03 0.  0.
<mgrwt>
<rscale>  2 0.45897794E+03</rscale>
<asrwt>0</asrwt>
<pdfrwt beam="1">  1       21 0.88007794E-02 0.45897794E+03</pdfrwt>
<pdfrwt beam="2">  1       21 0.12941502E+00 0.45897794E+03</pdfrwt>
<totfact> 0.40285856E+04</totfact>
</mgrwt>
</event>
<event>
 7    0  0.4779893E-002  0.4520876E+03  0.7546771E-02  0.1027101E+00
         21   -1    0    0  502  501  0.00000000000E+00  0.00000000000E+00  0.10453842570E+03  0.10453842570E+03  0.00000000000E+00 0. -1.
         21   -1    0    0  501  502 -0.00000000000E+00 -0.00000000000E+00 -0.48877534960E+03  0.48877534960E+03  0.00000000000E+00 0. -1.
      99926    2    1    2    0    0  0.00000000000E+00 -0.71054273576E-14 -0.38423692390E+03  0.59331377531E+03  0.45208762677E+03 0.  0.
      99925    2    3    3    0    0 -0.17576575722E+02 -0.53081460657E+02 -0.36733061967E+03  0.45525614711E+03  0.26305854455E+03 0.  0.
         25    1    4    4    0    0 -0.28710863174E+01  0.14475642761E+02 -0.17656972887E+03  0.21689205754E+03  0.12509000000E+03 0.  0.
         25    1    3    3    0    0  0.17576575722E+02  0.53081460657E+02 -0.16906304235E+02  0.13805762819E+03  0.12509000000E+03 0.  0.
         25    1    4    4    0    0 -0.14705489405E+02 -0.67557103418E+02 -0.19076089080E+03  0.23836408957E+03  0.12509000000E+03 0.  0.
<mgrwt>
<rscale>  2 0.45208763E+03</rscale>
<asrwt>0</asrwt>
<pdfrwt beam="1">  1       21 0.15373298E-01 0.45208763E+03</pdfrwt>
<pdfrwt beam="2">  1       21 0.71878728E-01 0.45208763E+03</pdfrwt>
<totfact> 0.60471533E+04</totfact>
</mgrwt>
</event>
<event>
 7    0  0.4779893E-002  0.4597345E+03  0.7546771E-02  0.1024858E+00
         21   -1    0    0  502  501  0.00000000000E+00  0.00000000000E+00  0.49711458741E+03  0.49711458741E+03  0.00000000000E+00 0. -1.
         21   -1    0    0  501  502 -0.00000000000E+00 -0.00000000000E+00 -0.10629127915E+03  0.10629127915E+03  0.00000000000E+00 0. -1.
      99926    2    1    2    0    0  0.00000000000E+00  0.00000000000E+00  0.39082330826E+03  0.60340586656E+03  0.45973446849E+03 0.  0.
      99925    2    3    3    0    0 -0.71246381465E+02  0.33063853964E+02  0.13006679311E+03  0.30372147657E+03  0.26298307807E+03 0.  0.
         25    1    3    3    0    0  0.71246381465E+02 -0.33063853964E+02  0.26075651515E+03  0.29968438999E+03  0.12509000000E+03 0.  0.
         25    1    4    4    0    0 -0.22173625859E+02  0.54239612502E+02  0.72605347021E+02  0.15605335550E+03  0.12509000000E+03 0.  0.
         25    1    4    4    0    0 -0.49072755605E+02 -0.21175758538E+02  0.57461446086E+02  0.14766812106E+03  0.12509000000E+03 0.  0.
<mgrwt>
<rscale>  2 0.45973447E+03</rscale>
<asrwt>0</asrwt>
<pdfrwt beam="1">  1       21 0.73105085E-01 0.45973447E+03</pdfrwt>
<pdfrwt beam="2">  1       21 0.15631071E-01 0.45973447E+03</pdfrwt>
<totfact> 0.56332228E+04</totfact>
</mgrwt>
</event>
<event>
 7    0  0.4779893E-002  0.4651000E+03  0.7546771E-02  0.1023312E+00
         21   -1    0    0  502  501  0.00000000000E+00  0.00000000000E+00  0.10330055856E+04  0.10330055856E+04  0.00000000000E+00 0.  1.
         21   -1    0    0  501  502 -0.00000000000E+00 -0.00000000000E+00 -0.52351615075E+02  0.52351615075E+02  0.00000000000E+00 0.  1.
      99926    2    1    2    0    0  0.71054273576E-14  0.14210854715E-13  0.98065397050E+03  0.10853572007E+04  0.46510003563E+03 0.  0.
      99925    2    3    3    0    0 -0.50324531426E+02 -0.10338541264E+03  0.70934117569E+03  0.76523340782E+03  0.26305163544E+03 0.  0.
         25    1    3    3    0    0  0.50324531426E+02  0.10338541264E+03  0.27131279481E+03  0.32012379283E+03  0.12509000000E+03 0.  0.
         25    1    4    4    0    0 -0.14958189693E+02 -0.90555524323E+02  0.42119352701E+03  0.44886027416E+03  0.12509000000E+03 0.  0.
         25    1    4    4    0    0 -0.35366341732E+02 -0.12829888313E+02  0.28814764868E+03  0.31637313366E+03  0.12509000000E+03 0.  0.
<mgrwt>
<rscale>  2 0.46510004E+03</rscale>
<asrwt>0</asrwt>
<pdfrwt beam="1">  1       21 0.15191257E+00 0.46510004E+03</pdfrwt>
<pdfrwt beam="2">  1       21 0.76987676E-02 0.46510004E+03</pdfrwt>
<totfact> 0.33303250E+04</totfact>
</mgrwt>
</event>
<event>
 7    0  0.4779893E-002  0.4542391E+03  0.7546771E-02  0.1026465E+00
         21   -1    0    0  502  501  0.00000000000E+00  0.00000000000E+00  0.12699242917E+04  0.12699242917E+04  0.00000000000E+00 0.  1.
         21   -1    0    0  501  502 -0.00000000000E+00 -0.00000000000E+00 -0.40619185222E+02  0.40619185222E+02  0.00000000000E+00 0.  1.
      99926    2    1    2    0    0  0.00000000000E+00  0.00000000000E+00  0.12293051065E+04  0.13105434769E+04  0.45423910014E+03 0.  0.
      99925    2    3    3    0    0  0.10301997182E+03 -0.12692740679E+02  0.65178584631E+03  0.71058495817E+03  0.26330965243E+03 0.  0.
         25    1    4    4    0    0  0.81184216363E+02 -0.21547829842E+01  0.27501500130E+03  0.31285184851E+03  0.12509000000E+03 0.  0.
         25    1    4    4    0    0  0.21835755462E+02 -0.10537957695E+02  0.37677084501E+03  0.39773310966E+03  0.12509000000E+03 0.  0.
         25    1    3    3    0    0 -0.10301997182E+03  0.12692740679E+02  0.57751926018E+03  0.59995851876E+03  0.12509000000E+03 0.  0.
<mgrwt>
<rscale>  2 0.45423910E+03</rscale>
<asrwt>0</asrwt>
<pdfrwt beam="1">  1       21 0.18675355E+00 0.45423910E+03</pdfrwt>
<pdfrwt beam="2">  1       21 0.59734104E-02 0.45423910E+03</pdfrwt>
<totfact> 0.28981121E+04</totfact>
</mgrwt>
</event>
<event>
 7    0  0.4779893E-002  0.4017131E+03  0.7546771E-02  0.1043188E+00
         21   -1    0    0  502  501  0.00000000000E+00  0.00000000000E+00  0.38005499504E+03  0.38005499504E+03  0.00000000000E+00 0.  1.
         21   -1    0    0  501  502 -0.00000000000E+00 -0.00000000000E+00 -0.10615134143E+03  0.10615134143E+03  0.00000000000E+00 0.  1.
      99926    2    1    2    0    0  0.00000000000E+00  0.00000000000E+00  0.27390365361E+03  0.48620633647E+03  0.40171306944E+03 0.  0.
      99925    2    3    3    0    0 -0.50165318289E+01 -0.20327231835E+02  0.23558056678E+03  0.35371283085E+03  0.26301369036E+03 0.  0.
         25    1    4    4    0    0 -0.23504672367E+01 -0.49563782738E+02  0.10686979940E+03  0.17184514942E+03  0.12509000000E+03 0.  0.
         25    1    4    4    0    0 -0.26660645922E+01  0.29236550902E+02  0.12871076739E+03  0.18186768143E+03  0.12509000000E+03 0.  0.
         25    1    3    3    0    0  0.50165318289E+01  0.20327231835E+02  0.38323086828E+02  0.13249350561E+03  0.12509000000E+03 0.  0.
<mgrwt>
<rscale>  2 0.40171307E+03</rscale>
<asrwt>0</asrwt>
<pdfrwt beam="1">  1       21 0.55890440E-01 0.40171307E+03</pdfrwt>
<pdfrwt beam="2">  1       21 0.15610492E-01 0.40171307E+03</pdfrwt>
<totfact> 0.10357598E+05</totfact>
</mgrwt>
</event>
<event>
 7    0  0.4779893E-002  0.4727282E+03  0.7546771E-02  0.1021153E+00
         21   -1    0    0  502  501  0.00000000000E+00  0.00000000000E+00  0.42629771813E+03  0.42629771813E+03  0.00000000000E+00 0. -1.
         21   -1    0    0  501  502 -0.00000000000E+00 -0.00000000000E+00 -0.13105390572E+03  0.13105390572E+03  0.00000000000E+00 0. -1.
      99926    2    1    2    0    0  0.17763568394E-14  0.00000000000E+00  0.29524381241E+03  0.55735162386E+03  0.47272817120E+03 0.  0.
      99925    2    3    3    0    0  0.11222417465E+02  0.12804454817E+03  0.19548889273E+03  0.35212028836E+03  0.26315668587E+03 0.  0.
         25    1    3    3    0    0 -0.11222417465E+02 -0.12804454817E+03  0.99754919679E+02  0.20523133550E+03  0.12509000000E+03 0.  0.
         25    1    4    4    0    0  0.31308267005E+02  0.35946671330E+02  0.67900999004E+02  0.15010138083E+03  0.12509000000E+03 0.  0.
         25    1    4    4    0    0 -0.20085849540E+02  0.92097876842E+02  0.12758789373E+03  0.20201890752E+03  0.12509000000E+03 0.  0.
<mgrwt>
<rscale>  2 0.47272817E+03</rscale>
<asrwt>0</asrwt>
<pdfrwt beam="1">  1       21 0.62690841E-01 0.47272817E+03</pdfrwt>
<pdfrwt beam="2">  1       21 0.19272633E-01 0.47272817E+03</pdfrwt>
<totfact> 0.53476747E+04</totfact>
</mgrwt>
</event>
<event>
 7    0  0.4779893E-002  0.4446453E+03  0.7546771E-02  0.1029331E+00
         21   -1    0    0  502  501  0.00000000000E+00  0.00000000000E+00  0.18934275658E+03  0.18934275658E+03  0.00000000000E+00 0. -1.
         21   -1    0    0  501  502 -0.00000000000E+00 -0.00000000000E+00 -0.26104696553E+03  0.26104696553E+03  0.00000000000E+00 0. -1.
      99926    2    1    2    0    0  0.35527136788E-14  0.17763568394E-14 -0.71704208950E+02  0.45038972210E+03  0.44464526107E+03 0.  0.
      99925    2    3    3    0    0 -0.30110344165E+02  0.14252807964E+02 -0.14433282808E+03  0.30195724662E+03  0.26312817821E+03 0.  0.
         25    1    4    4    0    0 -0.51773853328E+02  0.20195159034E+02 -0.89497331159E+02  0.16354099401E+03  0.12509000000E+03 0.  0.
         25    1    3    3    0    0  0.30110344165E+02 -0.14252807964E+02  0.72628619128E+02  0.14843247548E+03  0.12509000000E+03 0.  0.
         25    1    4    4    0    0  0.21663509163E+02 -0.59423510704E+01 -0.54835496919E+02  0.13841625261E+03  0.12509000000E+03 0.  0.
<mgrwt>
<rscale>  2 0.44464526E+03</rscale>
<asrwt>0</asrwt>
<pdfrwt beam="1">  1       21 0.27844523E-01 0.44464526E+03</pdfrwt>
<pdfrwt beam="2">  1       21 0.38389259E-01 0.44464526E+03</pdfrwt>
<totfact> 0.74881487E+04</totfact>
</mgrwt>
</event>
<event>
 7    0  0.4779893E-002  0.4574335E+03  0.7546771E-02  0.1025528E+00
         21   -1    0    0  502  501  0.00000000000E+00  0.00000000000E+00  0.13623780731E+03  0.13623780731E+03  0.00000000000E+00 0. -1.
         21   -1    0    0  501  502 -0.00000000000E+00 -0.00000000000E+00 -0.38397083718E+03  0.38397083718E+03  0.00000000000E+00 0. -1.
      99926    2    1    2    0    0  0.00000000000E+00  0.00000000000E+00 -0.24773302988E+03  0.52020864449E+03  0.45743347025E+03 0.  0.
      99925    2    3    3    0    0  0.69684960886E+02  0.54477190374E+02 -0.23987307634E+03  0.36680380423E+03  0.26302505584E+03 0.  0.
         25    1    4    4    0    0  0.29426974438E+01  0.85450356506E+01 -0.82833884838E+02  0.15030182194E+03  0.12509000000E+03 0.  0.
         25    1    3    3    0    0 -0.69684960886E+02 -0.54477190374E+02 -0.78599535399E+01  0.15340484026E+03  0.12509000000E+03 0.  0.
         25    1    4    4    0    0  0.66742263442E+02  0.45932154724E+02 -0.15703919150E+03  0.21650198229E+03  0.12509000000E+03 0.  0.
<mgrwt>
<rscale>  2 0.45743347E+03</rscale>
<asrwt>0</asrwt>
<pdfrwt beam="1">  1       21 0.20034972E-01 0.45743347E+03</pdfrwt>
<pdfrwt beam="2">  1       21 0.56466299E-01 0.45743347E+03</pdfrwt>
<totfact> 0.62654591E+04</totfact>
</mgrwt>
</event>
<event>
 7    0  0.4779893E-002  0.4536218E+03  0.7546771E-02  0.1026647E+00
         21   -1    0    0  502  501  0.00000000000E+00  0.00000000000E+00  0.35952165802E+03  0.35952165802E+03  0.00000000000E+00 0. -1.
         21   -1    0    0  501  502 -0.00000000000E+00 -0.00000000000E+00 -0.14308788945E+03  0.14308788945E+03  0.00000000000E+00 0. -1.
      99926    2    1    2    0    0  0.00000000000E+00  0.00000000000E+00  0.21643376857E+03  0.50260954747E+03  0.45362184806E+03 0.  0.
      99925    2    3    3    0    0 -0.82467566806E+02  0.73162058561E+02  0.11484375516E+03  0.30736194745E+03  0.26292335814E+03 0.  0.
         25    1    4    4    0    0 -0.17680250323E+02  0.10045269910E+02  0.26392172233E+02  0.12945096969E+03  0.12509000000E+03 0.  0.
         25    1    3    3    0    0  0.82467566806E+02 -0.73162058561E+02  0.10159001341E+03  0.19524760002E+03  0.12509000000E+03 0.  0.
         25    1    4    4    0    0 -0.64787316483E+02  0.63116788650E+02  0.88451582924E+02  0.17791097776E+03  0.12509000000E+03 0.  0.
<mgrwt>
<rscale>  2 0.45362185E+03</rscale>
<asrwt>0</asrwt>
<pdfrwt beam="1">  1       21 0.52870832E-01 0.45362185E+03</pdfrwt>
<pdfrwt beam="2">  1       21 0.21042337E-01 0.45362185E+03</pdfrwt>
<totfact> 0.65804627E+04</totfact>
</mgrwt>
</event>
<event>
 7    0  0.4779893E-002  0.4601046E+03  0.7546771E-02  0.1024751E+00
         21   -1    0    0  502  501  0.00000000000E+00  0.00000000000E+00  0.75960987342E+02  0.75960987342E+02  0.00000000000E+00 0. -1.
         21   -1    0    0  501  502 -0.00000000000E+00 -0.00000000000E+00 -0.69672700489E+03  0.69672700489E+03  0.00000000000E+00 0. -1.
      99926    2    1    2    0    0  0.00000000000E+00  0.00000000000E+00 -0.62076601755E+03  0.77268799223E+03  0.46010464548E+03 0.  0.
      99925    2    3    3    0    0  0.10076723657E+03  0.32501010525E+02 -0.47559510509E+03  0.55375317642E+03  0.26313784365E+03 0.  0.
         25    1    4    4    0    0  0.63780786791E+02  0.54457530860E+02 -0.23291406126E+03  0.27736272184E+03  0.12509000000E+03 0.  0.
         25    1    3    3    0    0 -0.10076723657E+03 -0.32501010525E+02 -0.14517091246E+03  0.21893481581E+03  0.12509000000E+03 0.  0.
         25    1    4    4    0    0  0.36986449775E+02 -0.21956520335E+02 -0.24268104383E+03  0.27639045458E+03  0.12509000000E+03 0.  0.
<mgrwt>
<rscale>  2 0.46010465E+03</rscale>
<asrwt>0</asrwt>
<pdfrwt beam="1">  1       21 0.11170733E-01 0.46010465E+03</pdfrwt>
<pdfrwt beam="2">  1       21 0.10245986E+00 0.46010465E+03</pdfrwt>
<totfact> 0.47194505E+04</totfact>
</mgrwt>
</event>
<event>
 7    0  0.4779893E-002  0.4562921E+03  0.7546771E-02  0.1025862E+00
         21   -1    0    0  502  501  0.00000000000E+00  0.00000000000E+00  0.39747798204E+03  0.39747798204E+03  0.00000000000E+00 0.  1.
         21   -1    0    0  501  502 -0.00000000000E+00 -0.00000000000E+00 -0.13095222392E+03  0.13095222392E+03  0.00000000000E+00 0.  1.
      99926    2    1    2    0    0  0.00000000000E+00  0.35527136788E-14  0.26652575812E+03  0.52843020596E+03  0.45629212445E+03 0.  0.
      99925    2    3    3    0    0 -0.82237373568E+02 -0.29382663415E+02  0.25309702714E+03  0.37528267762E+03  0.26296892679E+03 0.  0.
         25    1    4    4    0    0 -0.60324602230E+02  0.20933700849E+02  0.13171512689E+03  0.19254521603E+03  0.12509000000E+03 0.  0.
         25    1    3    3    0    0  0.82237373568E+02  0.29382663415E+02  0.13428730979E+02  0.15314752834E+03  0.12509000000E+03 0.  0.
         25    1    4    4    0    0 -0.21912771338E+02 -0.50316364264E+02  0.12138190025E+03  0.18273746159E+03  0.12509000000E+03 0.  0.
<mgrwt>
<rscale>  2 0.45629212E+03</rscale>
<asrwt>0</asrwt>
<pdfrwt beam="1">  1       21 0.58452644E-01 0.45629212E+03</pdfrwt>
<pdfrwt beam="2">  1       21 0.19257680E-01 0.45629212E+03</pdfrwt>
<totfact> 0.62668607E+04</totfact>
</mgrwt>
</event>
<event>
 7    0  0.4779893E-002  0.4412456E+03  0.7546771E-02  0.1030365E+00
         21   -1    0    0  502  501  0.00000000000E+00  0.00000000000E+00  0.37535561269E+03  0.37535561269E+03  0.00000000000E+00 0.  1.
         21   -1    0    0  501  502 -0.00000000000E+00 -0.00000000000E+00 -0.12967546893E+03  0.12967546893E+03  0.00000000000E+00 0.  1.
      99926    2    1    2    0    0 -0.35527136788E-14  0.00000000000E+00  0.24568014376E+03  0.50503108162E+03  0.44124557830E+03 0.  0.
      99925    2    3    3    0    0  0.22034692837E+02 -0.52307698907E+02  0.62775841238E+02  0.27628861719E+03  0.26300754874E+03 0.  0.
         25    1    3    3    0    0 -0.22034692837E+02  0.52307698907E+02  0.18290430252E+03  0.22874246443E+03  0.12509000000E+03 0.  0.
         25    1    4    4    0    0  0.51462268091E+02 -0.31532538339E+02  0.32466226075E+02  0.14263320072E+03  0.12509000000E+03 0.  0.
         25    1    4    4    0    0 -0.29427575254E+02 -0.20775160568E+02  0.30309615162E+02  0.13365541648E+03  0.12509000000E+03 0.  0.
<mgrwt>
<rscale>  2 0.44124558E+03</rscale>
<asrwt>0</asrwt>
<pdfrwt beam="1">  1       21 0.55199354E-01 0.44124558E+03</pdfrwt>
<pdfrwt beam="2">  1       21 0.19069922E-01 0.44124558E+03</pdfrwt>
<totfact> 0.72516288E+04</totfact>
</mgrwt>
</event>
<event>
 7    0  0.4779893E-002  0.4500001E+03  0.7546771E-02  0.1027722E+00
         21   -1    0    0  502  501  0.00000000000E+00  0.00000000000E+00  0.26599041908E+03  0.26599041908E+03  0.00000000000E+00 0. -1.
         21   -1    0    0  501  502 -0.00000000000E+00 -0.00000000000E+00 -0.19032646267E+03  0.19032646267E+03  0.00000000000E+00 0. -1.
      99926    2    1    2    0    0  0.00000000000E+00  0.00000000000E+00  0.75663956404E+02  0.45631688175E+03  0.45000006919E+03 0.  0.
      99925    2    3    3    0    0  0.46109974966E+02 -0.78503958026E+02  0.10722593410E+03  0.29841606556E+03  0.26318386354E+03 0.  0.
         25    1    4    4    0    0  0.24703784682E+02 -0.46815519261E+02  0.11478849605E+02  0.13631302913E+03  0.12509000000E+03 0.  0.
         25    1    4    4    0    0  0.21406190284E+02 -0.31688438766E+02  0.95747084491E+02  0.16210303644E+03  0.12509000000E+03 0.  0.
         25    1    3    3    0    0 -0.46109974966E+02  0.78503958026E+02 -0.31561977692E+02  0.15790081619E+03  0.12509000000E+03 0.  0.
<mgrwt>
<rscale>  2 0.45000007E+03</rscale>
<asrwt>0</asrwt>
<pdfrwt beam="1">  1       21 0.39116238E-01 0.45000007E+03</pdfrwt>
<pdfrwt beam="2">  1       21 0.27989186E-01 0.45000007E+03</pdfrwt>
<totfact> 0.71248420E+04</totfact>
</mgrwt>
</event>
<event>
 7    0  0.4779893E-002  0.4531447E+03  0.7546771E-02  0.1026788E+00
         21   -1    0    0  502  501  0.00000000000E+00  0.00000000000E+00  0.12843002891E+04  0.12843002891E+04  0.00000000000E+00 0.  1.
         21   -1    0    0  501  502 -0.00000000000E+00 -0.00000000000E+00 -0.39971210180E+02  0.39971210180E+02  0.00000000000E+00 0.  1.
      99926    2    1    2    0    0  0.00000000000E+00 -0.44408920985E-15  0.12443290789E+04  0.13242714993E+04  0.45314473092E+03 0.  0.
      99925    2    3    3    0    0  0.11116711943E+03 -0.20735744313E+01  0.80470095022E+03  0.85386441196E+03  0.26301784460E+03 0.  0.
         25    1    3    3    0    0 -0.11116711943E+03  0.20735744313E+01  0.43962812872E+03  0.47040708734E+03  0.12509000000E+03 0.  0.
         25    1    4    4    0    0  0.77457273770E+02 -0.10020200883E+02  0.52844251633E+03  0.54863378938E+03  0.12509000000E+03 0.  0.
         25    1    4    4    0    0  0.33709845663E+02  0.79466264515E+01  0.27625843389E+03  0.30523062258E+03  0.12509000000E+03 0.  0.
<mgrwt>
<rscale>  2 0.45314473E+03</rscale>
<asrwt>0</asrwt>
<pdfrwt beam="1">  1       21 0.18886766E+00 0.45314473E+03</pdfrwt>
<pdfrwt beam="2">  1       21 0.58781200E-02 0.45314473E+03</pdfrwt>
<totfact> 0.28831591E+04</totfact>
</mgrwt>
</event>
<event>
 7    0  0.4779893E-002  0.4475003E+03  0.7546771E-02  0.1028470E+00
         21   -1    0    0  502  501  0.00000000000E+00  0.00000000000E+00  0.46429650589E+03  0.46429650589E+03  0.00000000000E+00 0.  1.
         21   -1    0    0  501  502 -0.00000000000E+00 -0.00000000000E+00 -0.10782790275E+03  0.10782790275E+03  0.00000000000E+00 0.  1.
      99926    2    1    2    0    0  0.00000000000E+00  0.00000000000E+00  0.35646860313E+03  0.57212440864E+03  0.44750025022E+03 0.  0.
      99925    2    3    3    0    0  0.96198623234E+02  0.18210316121E+02  0.27776060404E+03  0.39484426890E+03  0.26299287595E+03 0.  0.
         25    1    4    4    0    0  0.95379533778E+01  0.19078628423E+02  0.14708718906E+03  0.19426043319E+03  0.12509000000E+03 0.  0.
         25    1    3    3    0    0 -0.96198623234E+02 -0.18210316121E+02  0.78707999093E+02  0.17728013974E+03  0.12509000000E+03 0.  0.
         25    1    4    4    0    0  0.86660669856E+02 -0.86831230228E+00  0.13067341497E+03  0.20058383571E+03  0.12509000000E+03 0.  0.
<mgrwt>
<rscale>  2 0.44750025E+03</rscale>
<asrwt>0</asrwt>
<pdfrwt beam="1">  1       21 0.68278897E-01 0.44750025E+03</pdfrwt>
<pdfrwt beam="2">  1       21 0.15857045E-01 0.44750025E+03</pdfrwt>
<totfact> 0.64148075E+04</totfact>
</mgrwt>
</event>
<event>
 7    0  0.4779893E-002  0.4672404E+03  0.7546771E-02  0.1022702E+00
         21   -1    0    0  502  501  0.00000000000E+00  0.00000000000E+00  0.97423492464E+02  0.97423492464E+02  0.00000000000E+00 0.  1.
         21   -1    0    0  501  502 -0.00000000000E+00 -0.00000000000E+00 -0.56021803441E+03  0.56021803441E+03  0.00000000000E+00 0.  1.
      99926    2    1    2    0    0  0.00000000000E+00  0.00000000000E+00 -0.46279454195E+03  0.65764152688E+03  0.46724039831E+03 0.  0.
      99925    2    3    3    0    0 -0.72477443013E+02  0.96735144530E+02 -0.32890320364E+03  0.43813055561E+03  0.26300265866E+03 0.  0.
         25    1    4    4    0    0 -0.39812141242E+02  0.54206057122E+02 -0.10701910495E+03  0.17783110005E+03  0.12509000000E+03 0.  0.
         25    1    4    4    0    0 -0.32665301771E+02  0.42529087408E+02 -0.22188409868E+03  0.26029945556E+03  0.12509000000E+03 0.  0.
         25    1    3    3    0    0  0.72477443013E+02 -0.96735144530E+02 -0.13389133831E+03  0.21951097127E+03  0.12509000000E+03 0.  0.
<mgrwt>
<rscale>  2 0.46724040E+03</rscale>
<asrwt>0</asrwt>
<pdfrwt beam="1">  1       21 0.14326984E-01 0.46724040E+03</pdfrwt>
<pdfrwt beam="2">  1       21 0.82385007E-01 0.46724040E+03</pdfrwt>
<totfact> 0.50234679E+04</totfact>
</mgrwt>
</event>
<event>
 7    0  0.4779893E-002  0.4528360E+03  0.7546771E-02  0.1026880E+00
         21   -1    0    0  502  501  0.00000000000E+00  0.00000000000E+00  0.36197577681E+02  0.36197577681E+02  0.00000000000E+00 0.  1.
         21   -1    0    0  501  502 -0.00000000000E+00 -0.00000000000E+00 -0.14162579608E+04  0.14162579608E+04  0.00000000000E+00 0.  1.
      99926    2    1    2    0    0  0.00000000000E+00  0.00000000000E+00 -0.13800603832E+04  0.14524555385E+04  0.45283598599E+03 0.  0.
      99925    2    3    3    0    0 -0.24348585147E+02  0.77399555743E+02 -0.11134757665E+04  0.11470076530E+04  0.26308692222E+03 0.  0.
         25    1    3    3    0    0  0.24348585147E+02 -0.77399555743E+02 -0.26658461670E+03  0.30544788555E+03  0.12509000000E+03 0.  0.
         25    1    4    4    0    0 -0.14298177256E+02  0.47131433259E+01 -0.41814811193E+03  0.43671730354E+03  0.12509000000E+03 0.  0.
         25    1    4    4    0    0 -0.10050407891E+02  0.72686412417E+02 -0.69532765452E+03  0.71029034943E+03  0.12509000000E+03 0.  0.
<mgrwt>
<rscale>  2 0.45283599E+03</rscale>
<asrwt>0</asrwt>
<pdfrwt beam="1">  1       21 0.53231732E-02 0.45283599E+03</pdfrwt>
<pdfrwt beam="2">  1       21 0.20827323E+00 0.45283599E+03</pdfrwt>
<totfact> 0.25391262E+04</totfact>
</mgrwt>
</event>
<event>
 7    0  0.4779893E-002  0.4555691E+03  0.7546771E-02  0.1026074E+00
         21   -1    0    0  502  501  0.00000000000E+00  0.00000000000E+00  0.26232902228E+04  0.26232902228E+04  0.00000000000E+00 0. -1.
         21   -1    0    0  501  502 -0.00000000000E+00 -0.00000000000E+00 -0.19778899255E+02  0.19778899255E+02  0.00000000000E+00 0. -1.
      99926    2    1    2    0    0  0.14210854715E-13 -0.44408920985E-15  0.26035113235E+04  0.26430691221E+04  0.45556906407E+03 0.  0.
      99925    2    3    3    0    0  0.11199798147E+03 -0.27060831366E+01  0.17511583150E+04  0.17743320905E+04  0.26296017267E+03 0.  0.
         25    1    3    3    0    0 -0.11199798147E+03  0.27060831366E+01  0.85235300851E+03  0.86873703153E+03  0.12509000000E+03 0.  0.
         25    1    4    4    0    0  0.39356619353E+02 -0.21909868151E+02  0.10311475748E+04  0.10396835167E+04  0.12509000000E+03 0.  0.
         25    1    4    4    0    0  0.72641362114E+02  0.19203785014E+02  0.72001074024E+03  0.73464857382E+03  0.12509000000E+03 0.  0.
<mgrwt>
<rscale>  2 0.45556906E+03</rscale>
<asrwt>0</asrwt>
<pdfrwt beam="1">  1       21 0.38577773E+00 0.45556906E+03</pdfrwt>
<pdfrwt beam="2">  1       21 0.29086635E-02 0.45556906E+03</pdfrwt>
<totfact> 0.57505372E+03</totfact>
</mgrwt>
</event>
<event>
 7    0  0.4779893E-002  0.4585068E+03  0.7546771E-02  0.1025215E+00
         21   -1    0    0  502  501  0.00000000000E+00  0.00000000000E+00  0.94787726973E+03  0.94787726973E+03  0.00000000000E+00 0.  1.
         21   -1    0    0  501  502 -0.00000000000E+00 -0.00000000000E+00 -0.55447179487E+02  0.55447179487E+02  0.00000000000E+00 0.  1.
      99926    2    1    2    0    0  0.00000000000E+00  0.00000000000E+00  0.89243009024E+03  0.10033244492E+04  0.45850679867E+03 0.  0.
      99925    2    3    3    0    0  0.51688103436E+02  0.95242297733E+02  0.46623439894E+03  0.54612314706E+03  0.26293197158E+03 0.  0.
         25    1    3    3    0    0 -0.51688103436E+02 -0.95242297733E+02  0.42619569130E+03  0.45720130216E+03  0.12509000000E+03 0.  0.
         25    1    4    4    0    0  0.10698570967E+02  0.62928636852E+02  0.17110619856E+03  0.22135788227E+03  0.12509000000E+03 0.  0.
         25    1    4    4    0    0  0.40989532469E+02  0.32313660881E+02  0.29512820038E+03  0.32476526479E+03  0.12509000000E+03 0.  0.
<mgrwt>
<rscale>  2 0.45850680E+03</rscale>
<asrwt>0</asrwt>
<pdfrwt beam="1">  1       21 0.13939371E+00 0.45850680E+03</pdfrwt>
<pdfrwt beam="2">  1       21 0.81539976E-02 0.45850680E+03</pdfrwt>
<totfact> 0.37986714E+04</totfact>
</mgrwt>
</event>
<event>
 7    0  0.4779893E-002  0.4611353E+03  0.7546771E-02  0.1024452E+00
         21   -1    0    0  502  501  0.00000000000E+00  0.00000000000E+00  0.19394499289E+03  0.19394499289E+03  0.00000000000E+00 0.  1.
         21   -1    0    0  501  502 -0.00000000000E+00 -0.00000000000E+00 -0.27410574312E+03  0.27410574312E+03  0.00000000000E+00 0.  1.
      99926    2    1    2    0    0  0.00000000000E+00  0.17763568394E-14 -0.80160750224E+02  0.46805073601E+03  0.46113527907E+03 0.  0.
      99925    2    3    3    0    0  0.63351939209E+02 -0.57606719271E+01  0.51533270375E+02  0.27559950399E+03  0.26315918206E+03 0.  0.
         25    1    4    4    0    0  0.23232006795E+02 -0.35542045049E+02  0.21047116210E+01  0.13211699746E+03  0.12509000000E+03 0.  0.
         25    1    4    4    0    0  0.40119932414E+02  0.29781373122E+02  0.49428558754E+02  0.14348250654E+03  0.12509000000E+03 0.  0.
         25    1    3    3    0    0 -0.63351939209E+02  0.57606719271E+01 -0.13169402060E+03  0.19245123202E+03  0.12509000000E+03 0.  0.
<mgrwt>
<rscale>  2 0.46113528E+03</rscale>
<asrwt>0</asrwt>
<pdfrwt beam="1">  1       21 0.28521322E-01 0.46113528E+03</pdfrwt>
<pdfrwt beam="2">  1       21 0.40309668E-01 0.46113528E+03</pdfrwt>
<totfact> 0.64386281E+04</totfact>
</mgrwt>
</event>
<event>
 7    0  0.4779893E-002  0.4493899E+03  0.7546771E-02  0.1027904E+00
         21   -1    0    0  502  501  0.00000000000E+00  0.00000000000E+00  0.26444189792E+04  0.26444189792E+04  0.00000000000E+00 0.  1.
         21   -1    0    0  501  502 -0.00000000000E+00 -0.00000000000E+00 -0.19092216982E+02  0.19092216982E+02  0.00000000000E+00 0.  1.
      99926    2    1    2    0    0 -0.71054273576E-14 -0.14210854715E-13  0.26253267622E+04  0.26635111961E+04  0.44938990172E+03 0.  0.
      99925    2    3    3    0    0 -0.58240055894E+02 -0.86070906965E+02  0.14917163691E+04  0.15182949998E+04  0.26306249300E+03 0.  0.
         25    1    3    3    0    0  0.58240055894E+02  0.86070906965E+02  0.11336103930E+04  0.11452161964E+04  0.12509000000E+03 0.  0.
         25    1    4    4    0    0 -0.26418563821E+02 -0.79053236567E+02  0.91543474984E+03  0.92769372319E+03  0.12509000000E+03 0.  0.
         25    1    4    4    0    0 -0.31821492073E+02 -0.70176703981E+01  0.57628161931E+03  0.59060127659E+03  0.12509000000E+03 0.  0.
<mgrwt>
<rscale>  2 0.44938990E+03</rscale>
<asrwt>0</asrwt>
<pdfrwt beam="1">  1       21 0.38888489E+00 0.44938990E+03</pdfrwt>
<pdfrwt beam="2">  1       21 0.28076808E-02 0.44938990E+03</pdfrwt>
<totfact> 0.58504656E+03</totfact>
</mgrwt>
</event>
<event>
 7    0  0.4779893E-002  0.4583664E+03  0.7546771E-02  0.1025256E+00
         21   -1    0    0  502  501  0.00000000000E+00  0.00000000000E+00  0.16160097984E+03  0.16160097984E+03  0.00000000000E+00 0. -1.
         21   -1    0    0  501  502 -0.00000000000E+00 -0.00000000000E+00 -0.32502864583E+03  0.32502864583E+03  0.00000000000E+00 0. -1.
      99926    2    1    2    0    0 -0.14210854715E-13 -0.71054273576E-14 -0.16342766599E+03  0.48662962566E+03  0.45836643699E+03 0.  0.
      99925    2    3    3    0    0 -0.78230445439E+02  0.56404288386E+02 -0.33431038168E+02  0.28206159862E+03  0.26294422367E+03 0.  0.
         25    1    4    4    0    0 -0.79378344290E+02  0.33746102811E+02 -0.30038809101E+02  0.15488563248E+03  0.12509000000E+03 0.  0.
         25    1    3    3    0    0  0.78230445439E+02 -0.56404288386E+02 -0.12999662783E+03  0.20456802704E+03  0.12509000000E+03 0.  0.
         25    1    4    4    0    0  0.11478988508E+01  0.22658185575E+02 -0.33922290668E+01  0.12717596614E+03  0.12509000000E+03 0.  0.
<mgrwt>
<rscale>  2 0.45836644E+03</rscale>
<asrwt>0</asrwt>
<pdfrwt beam="1">  1       21 0.23764850E-01 0.45836644E+03</pdfrwt>
<pdfrwt beam="2">  1       21 0.47798330E-01 0.45836644E+03</pdfrwt>
<totfact> 0.64480130E+04</totfact>
</mgrwt>
</event>
<event>
 7    0  0.4779893E-002  0.4546483E+03  0.7546771E-02  0.1026345E+00
         21   -1    0    0  502  501  0.00000000000E+00  0.00000000000E+00  0.27570584139E+03  0.27570584139E+03  0.00000000000E+00 0. -1.
         21   -1    0    0  501  502 -0.00000000000E+00 -0.00000000000E+00 -0.18743263786E+03  0.18743263786E+03  0.00000000000E+00 0. -1.
      99926    2    1    2    0    0  0.71054273576E-14  0.71054273576E-14  0.88273203532E+02  0.46313847925E+03  0.45464831738E+03 0.  0.
      99925    2    3    3    0    0 -0.55470063240E+02 -0.62826766811E+02 -0.21534693563E+02  0.27678018749E+03  0.26290568388E+03 0.  0.
         25    1    3    3    0    0  0.55470063240E+02  0.62826766811E+02  0.10980789710E+03  0.18635829176E+03  0.12509000000E+03 0.  0.
         25    1    4    4    0    0 -0.50315457027E+02 -0.71785926630E+01  0.12533234773E+02  0.13560150251E+03  0.12509000000E+03 0.  0.
         25    1    4    4    0    0 -0.51546062121E+01 -0.55648174148E+02 -0.34067928336E+02  0.14117868498E+03  0.12509000000E+03 0.  0.
<mgrwt>
<rscale>  2 0.45464832E+03</rscale>
<asrwt>0</asrwt>
<pdfrwt beam="1">  1       21 0.40544977E-01 0.45464832E+03</pdfrwt>
<pdfrwt beam="2">  1       21 0.27563623E-01 0.45464832E+03</pdfrwt>
<totfact> 0.68138895E+04</totfact>
</mgrwt>
</event>
<event>
 7    0  0.4779893E-002  0.4302325E+03  0.7546771E-02  0.1033787E+00
         21   -1    0    0  502  501  0.00000000000E+00  0.00000000000E+00  0.66119199043E+02  0.66119199043E+02  0.00000000000E+00 0.  1.
         21   -1    0    0  501  502 -0.00000000000E+00 -0.00000000000E+00 -0.69987224001E+03  0.69987224001E+03  0.00000000000E+00 0.  1.
      99926    2    1    2    0    0 -0.88817841970E-15  0.14210854715E-13 -0.63375304097E+03  0.76599143905E+03  0.43023245783E+03 0.  0.
      99925    2    3    3    0    0 -0.78970854292E+01  0.77063344587E+02 -0.33958078850E+03  0.43707511952E+03  0.26404246845E+03 0.  0.
         25    1    4    4    0    0  0.13483867510E+02  0.15634425022E+02 -0.21153123939E+03  0.24661553736E+03  0.12509000000E+03 0.  0.
         25    1    3    3    0    0  0.78970854292E+01 -0.77063344587E+02 -0.29417225246E+03  0.32891631954E+03  0.12509000000E+03 0.  0.
         25    1    4    4    0    0 -0.21380952940E+02  0.61428919565E+02 -0.12804954911E+03  0.19045958215E+03  0.12509000000E+03 0.  0.
<mgrwt>
<rscale>  2 0.43023246E+03</rscale>
<asrwt>0</asrwt>
<pdfrwt beam="1">  1       21 0.97234119E-02 0.43023246E+03</pdfrwt>
<pdfrwt beam="2">  1       21 0.10292239E+00 0.43023246E+03</pdfrwt>
<totfact> 0.60362845E+04</totfact>
</mgrwt>
</event>
<event>
 7    0  0.4779893E-002  0.4491038E+03  0.7546771E-02  0.1027990E+00
         21   -1    0    0  502  501  0.00000000000E+00  0.00000000000E+00  0.20261169946E+04  0.20261169946E+04  0.00000000000E+00 0.  1.
         21   -1    0    0  501  502 -0.00000000000E+00 -0.00000000000E+00 -0.24886793331E+02  0.24886793331E+02  0.00000000000E+00 0.  1.
      99926    2    1    2    0    0  0.00000000000E+00  0.00000000000E+00  0.20012302012E+04  0.20510037879E+04  0.44910379606E+03 0.  0.
      99925    2    3    3    0    0  0.58640528507E+02 -0.81941737226E+02  0.14370621071E+04  0.14644150850E+04  0.26307961055E+03 0.  0.
         25    1    3    3    0    0 -0.58640528507E+02  0.81941737226E+02  0.56416809411E+03  0.58658870292E+03  0.12509000000E+03 0.  0.
         25    1    4    4    0    0  0.10454664599E+02 -0.70881454445E+02  0.85034933380E+03  0.86248187122E+03  0.12509000000E+03 0.  0.
         25    1    4    4    0    0  0.48185863908E+02 -0.11060282781E+02  0.58671277333E+03  0.60193321375E+03  0.12509000000E+03 0.  0.
<mgrwt>
<rscale>  2 0.44910380E+03</rscale>
<asrwt>0</asrwt>
<pdfrwt beam="1">  1       21 0.29795827E+00 0.44910380E+03</pdfrwt>
<pdfrwt beam="2">  1       21 0.36598239E-02 0.44910380E+03</pdfrwt>
<totfact> 0.13502420E+04</totfact>
</mgrwt>
</event>
<event>
 7    0  0.4779893E-002  0.4553649E+03  0.7546771E-02  0.1026134E+00
         21   -1    0    0  502  501  0.00000000000E+00  0.00000000000E+00  0.18900537316E+03  0.18900537316E+03  0.00000000000E+00 0. -1.
         21   -1    0    0  501  502 -0.00000000000E+00 -0.00000000000E+00 -0.27427416598E+03  0.27427416598E+03  0.00000000000E+00 0. -1.
      99926    2    1    2    0    0  0.00000000000E+00  0.11102230246E-14 -0.85268792817E+02  0.46327953914E+03  0.45536486948E+03 0.  0.
      99925    2    3    3    0    0 -0.38217346654E+02  0.18322885334E+01 -0.16245101620E+03  0.31139627287E+03  0.26289424343E+03 0.  0.
         25    1    3    3    0    0  0.38217346654E+02 -0.18322885334E+01  0.77182223379E+02  0.15188326627E+03  0.12509000000E+03 0.  0.
         25    1    4    4    0    0  0.15349589876E+02  0.22288071760E+02 -0.74607779025E+02  0.14814248831E+03  0.12509000000E+03 0.  0.
         25    1    4    4    0    0 -0.53566936531E+02 -0.20455783227E+02 -0.87843237171E+02  0.16325378456E+03  0.12509000000E+03 0.  0.
<mgrwt>
<rscale>  2 0.45536487E+03</rscale>
<asrwt>0</asrwt>
<pdfrwt beam="1">  1       21 0.27794908E-01 0.45536487E+03</pdfrwt>
<pdfrwt beam="2">  1       21 0.40334436E-01 0.45536487E+03</pdfrwt>
<totfact> 0.67741367E+04</totfact>
</mgrwt>
</event>
<event>
 7    0  0.4779893E-002  0.4460602E+03  0.7546771E-02  0.1028903E+00
         21   -1    0    0  502  501  0.00000000000E+00  0.00000000000E+00  0.38697407994E+03  0.38697407994E+03  0.00000000000E+00 0. -1.
         21   -1    0    0  501  502 -0.00000000000E+00 -0.00000000000E+00 -0.12854202296E+03  0.12854202296E+03  0.00000000000E+00 0. -1.
      99926    2    1    2    0    0  0.88817841970E-15  0.00000000000E+00  0.25843205698E+03  0.51551610290E+03  0.44606022494E+03 0.  0.
      99925    2    3    3    0    0 -0.51369067447E+01  0.10033062775E+03  0.13031472598E+03  0.31020126837E+03  0.26296440142E+03 0.  0.
         25    1    3    3    0    0  0.51369067447E+01 -0.10033062775E+03  0.12811733099E+03  0.20531483453E+03  0.12509000000E+03 0.  0.
         25    1    4    4    0    0 -0.17888345461E+02  0.52167058855E+02  0.24351260495E+02  0.13885923419E+03  0.12509000000E+03 0.  0.
         25    1    4    4    0    0  0.12751438716E+02  0.48163568898E+02  0.10596346549E+03  0.17134203418E+03  0.12509000000E+03 0.  0.
<mgrwt>
<rscale>  2 0.44606022E+03</rscale>
<asrwt>0</asrwt>
<pdfrwt beam="1">  1       21 0.56907953E-01 0.44606022E+03</pdfrwt>
<pdfrwt beam="2">  1       21 0.18903239E-01 0.44606022E+03</pdfrwt>
<totfact> 0.68956157E+04</totfact>
</mgrwt>
</event>
<event>
 7    0  0.4779893E-002  0.4731249E+03  0.7546771E-02  0.1021042E+00
         21   -1    0    0  502  501  0.00000000000E+00  0.00000000000E+00  0.22121446622E+03  0.22121446622E+03  0.00000000000E+00 0.  1.
         21   -1    0    0  501  502 -0.00000000000E+00 -0.00000000000E+00 -0.25297526226E+03  0.25297526226E+03  0.00000000000E+00 0.  1.
      99926    2    1    2    0    0  0.17763568394E-14  0.71054273576E-14 -0.31760796038E+02  0.47418972848E+03  0.47312487827E+03 0.  0.
      99925    2    3    3    0    0  0.99705467601E+01  0.32194149589E+02  0.10581183509E+03  0.28521985786E+03  0.26271343285E+03 0.  0.
         25    1    4    4    0    0 -0.51974138249E+01  0.37953971190E+02  0.19240264456E+02  0.13223166382E+03  0.12509000000E+03 0.  0.
         25    1    4    4    0    0  0.15167960585E+02 -0.57598216012E+01  0.86571570633E+02  0.15298819404E+03  0.12509000000E+03 0.  0.
         25    1    3    3    0    0 -0.99705467601E+01 -0.32194149589E+02 -0.13757263113E+03  0.18896987063E+03  0.12509000000E+03 0.  0.
<mgrwt>
<rscale>  2 0.47312488E+03</rscale>
<asrwt>0</asrwt>
<pdfrwt beam="1">  1       21 0.32531539E-01 0.47312488E+03</pdfrwt>
<pdfrwt beam="2">  1       21 0.37202244E-01 0.47312488E+03</pdfrwt>
<totfact> 0.58268738E+04</totfact>
</mgrwt>
</event>
<event>
 7    0  0.4779893E-002  0.4494765E+03  0.7546771E-02  0.1027878E+00
         21   -1    0    0  502  501  0.00000000000E+00  0.00000000000E+00  0.53465660433E+02  0.53465660433E+02  0.00000000000E+00 0. -1.
         21   -1    0    0  501  502 -0.00000000000E+00 -0.00000000000E+00 -0.94466763519E+03  0.94466763519E+03  0.00000000000E+00 0. -1.
      99926    2    1    2    0    0  0.00000000000E+00  0.00000000000E+00 -0.89120197476E+03  0.99813329562E+03  0.44947649106E+03 0.  0.
      99925    2    3    3    0    0 -0.80367845891E+02 -0.65144421306E+02 -0.63238135878E+03  0.69261994790E+03  0.26289431911E+03 0.  0.
         25    1    4    4    0    0 -0.25216443416E+02 -0.14306878128E+01 -0.34900841291E+03  0.37160771825E+03  0.12509000000E+03 0.  0.
         25    1    4    4    0    0 -0.55151402476E+02 -0.63713733493E+02 -0.28337294587E+03  0.32101222965E+03  0.12509000000E+03 0.  0.
         25    1    3    3    0    0  0.80367845891E+02  0.65144421306E+02 -0.25882061598E+03  0.30551334772E+03  0.12509000000E+03 0.  0.
<mgrwt>
<rscale>  2 0.44947649E+03</rscale>
<asrwt>0</asrwt>
<pdfrwt beam="1">  1       21 0.78625972E-02 0.44947649E+03</pdfrwt>
<pdfrwt beam="2">  1       21 0.13892171E+00 0.44947649E+03</pdfrwt>
<totfact> 0.40978898E+04</totfact>
</mgrwt>
</event>
<event>
 7    0  0.4779893E-002  0.4517937E+03  0.7546771E-02  0.1027188E+00
         21   -1    0    0  502  501  0.00000000000E+00  0.00000000000E+00  0.12105171316E+04  0.12105171316E+04  0.00000000000E+00 0.  1.
         21   -1    0    0  501  502 -0.00000000000E+00 -0.00000000000E+00 -0.42155037181E+02  0.42155037181E+02  0.00000000000E+00 0.  1.
      99926    2    1    2    0    0  0.35527136788E-14  0.00000000000E+00  0.11683620944E+04  0.12526721688E+04  0.45179373475E+03 0.  0.
      99925    2    3    3    0    0 -0.29365966522E+02  0.40247892903E+02  0.10096122672E+04  0.10445105282E+04  0.26306474587E+03 0.  0.
         25    1    4    4    0    0 -0.26749307186E+02  0.28036781247E+02  0.66290490613E+03  0.67571592346E+03  0.12509000000E+03 0.  0.
         25    1    3    3    0    0  0.29365966522E+02 -0.40247892903E+02  0.15874982718E+03  0.20816164057E+03  0.12509000000E+03 0.  0.
         25    1    4    4    0    0 -0.26166593359E+01  0.12211111656E+02  0.34670736108E+03  0.36879460474E+03  0.12509000000E+03 0.  0.
<mgrwt>
<rscale>  2 0.45179373E+03</rscale>
<asrwt>0</asrwt>
<pdfrwt beam="1">  1       21 0.17801720E+00 0.45179373E+03</pdfrwt>
<pdfrwt beam="2">  1       21 0.61992709E-02 0.45179373E+03</pdfrwt>
<totfact> 0.31294539E+04</totfact>
</mgrwt>
</event>
<event>
 7    0  0.4779893E-002  0.4561009E+03  0.7546771E-02  0.1025918E+00
         21   -1    0    0  502  501  0.00000000000E+00  0.00000000000E+00  0.76368774239E+03  0.76368774239E+03  0.00000000000E+00 0.  1.
         21   -1    0    0  501  502 -0.00000000000E+00 -0.00000000000E+00 -0.68099841790E+02  0.68099841790E+02  0.00000000000E+00 0.  1.
      99926    2    1    2    0    0  0.00000000000E+00 -0.14210854715E-13  0.69558790060E+03  0.83178758418E+03  0.45610092933E+03 0.  0.
      99925    2    3    3    0    0 -0.33624431247E+02  0.10880649681E+03  0.41880598648E+03  0.50740325625E+03  0.26285005994E+03 0.  0.
         25    1    4    4    0    0 -0.58834536717E+01  0.38837708955E+02  0.26311761370E+03  0.29397511698E+03  0.12509000000E+03 0.  0.
         25    1    3    3    0    0  0.33624431247E+02 -0.10880649681E+03  0.27678191412E+03  0.32438432793E+03  0.12509000000E+03 0.  0.
         25    1    4    4    0    0 -0.27740977575E+02  0.69968787859E+02  0.15568837278E+03  0.21342813926E+03  0.12509000000E+03 0.  0.
<mgrwt>
<rscale>  2 0.45610093E+03</rscale>
<asrwt>0</asrwt>
<pdfrwt beam="1">  1       21 0.11230702E+00 0.45610093E+03</pdfrwt>
<pdfrwt beam="2">  1       21 0.10014683E-01 0.45610093E+03</pdfrwt>
<totfact> 0.45867913E+04</totfact>
</mgrwt>
</event>
<event>
 7    0  0.4779893E-002  0.4567624E+03  0.7546771E-02  0.1025724E+00
         21   -1    0    0  502  501  0.00000000000E+00  0.00000000000E+00  0.56844796900E+03  0.56844796900E+03  0.00000000000E+00 0. -1.
         21   -1    0    0  501  502 -0.00000000000E+00 -0.00000000000E+00 -0.91755051542E+02  0.91755051542E+02  0.00000000000E+00 0. -1.
      99926    2    1    2    0    0  0.00000000000E+00  0.71054273576E-14  0.47669291746E+03  0.66020302054E+03  0.45676240079E+03 0.  0.
      99925    2    3    3    0    0  0.33686840675E+02  0.41078441232E+02  0.44663350771E+03  0.52101495430E+03  0.26296929637E+03 0.  0.
         25    1    4    4    0    0  0.10712039409E+02 -0.13625128103E+02  0.25551472852E+03  0.28501873008E+03  0.12509000000E+03 0.  0.
         25    1    4    4    0    0  0.22974801266E+02  0.54703569335E+02  0.19111877918E+03  0.23599622422E+03  0.12509000000E+03 0.  0.
         25    1    3    3    0    0 -0.33686840675E+02 -0.41078441232E+02  0.30059409753E+02  0.13918806624E+03  0.12509000000E+03 0.  0.
<mgrwt>
<rscale>  2 0.45676240E+03</rscale>
<asrwt>0</asrwt>
<pdfrwt beam="1">  1       21 0.83595287E-01 0.45676240E+03</pdfrwt>
<pdfrwt beam="2">  1       21 0.13493390E-01 0.45676240E+03</pdfrwt>
<totfact> 0.54357658E+04</totfact>
</mgrwt>
</event>
<event>
 7    0  0.4779893E-002  0.4552322E+03  0.7546771E-02  0.1026173E+00
         21   -1    0    0  502  501  0.00000000000E+00  0.00000000000E+00  0.49271295015E+03  0.49271295015E+03  0.00000000000E+00 0. -1.
         21   -1    0    0  501  502 -0.00000000000E+00 -0.00000000000E+00 -0.10515064251E+03  0.10515064251E+03  0.00000000000E+00 0. -1.
      99926    2    1    2    0    0  0.00000000000E+00  0.00000000000E+00  0.38756230764E+03  0.59786359265E+03  0.45523217496E+03 0.  0.
      99925    2    3    3    0    0 -0.36948626859E+02  0.86244789327E+02  0.15954186215E+03  0.32137815656E+03  0.26272980231E+03 0.  0.
         25    1    4    4    0    0 -0.45788130756E+02  0.14878551016E+02  0.87873018796E+02  0.16027195553E+03  0.12509000000E+03 0.  0.
         25    1    3    3    0    0  0.36948626859E+02 -0.86244789327E+02  0.22802044549E+03  0.27648543610E+03  0.12509000000E+03 0.  0.
         25    1    4    4    0    0  0.88395038964E+01  0.71366238311E+02  0.71668843354E+02  0.16110620102E+03  0.12509000000E+03 0.  0.
<mgrwt>
<rscale>  2 0.45523217E+03</rscale>
<asrwt>0</asrwt>
<pdfrwt beam="1">  1       21 0.72457786E-01 0.45523217E+03</pdfrwt>
<pdfrwt beam="2">  1       21 0.15463330E-01 0.45523217E+03</pdfrwt>
<totfact> 0.58702193E+04</totfact>
</mgrwt>
</event>
<event>
 7    0  0.4779893E-002  0.4702639E+03  0.7546771E-02  0.1021846E+00
         21   -1    0    0  502  501  0.00000000000E+00  0.00000000000E+00  0.13033674466E+03  0.13033674466E+03  0.00000000000E+00 0. -1.
         21   -1    0    0  501  502 -0.00000000000E+00 -0.00000000000E+00 -0.42418617524E+03  0.42418617524E+03  0.00000000000E+00 0. -1.
      99926    2    1    2    0    0  0.00000000000E+00 -0.35527136788E-14 -0.29384943058E+03  0.55452291990E+03  0.47026394806E+03 0.  0.
      99925    2    3    3    0    0 -0.95572605047E+02  0.14393875886E+02 -0.85405264305E+02  0.29291675588E+03  0.26299212955E+03 0.  0.
         25    1    4    4    0    0 -0.26244992711E+02 -0.22704400810E+02 -0.59954145183E+02  0.14299054893E+03  0.12509000000E+03 0.  0.
         25    1    3    3    0    0  0.95572605047E+02 -0.14393875886E+02 -0.20844416627E+03  0.26160616402E+03  0.12509000000E+03 0.  0.
         25    1    4    4    0    0 -0.69327612336E+02  0.37098276696E+02 -0.25451119122E+02  0.14992620695E+03  0.12509000000E+03 0.  0.
<mgrwt>
<rscale>  2 0.47026395E+03</rscale>
<asrwt>0</asrwt>
<pdfrwt beam="1">  1       21 0.19167168E-01 0.47026395E+03</pdfrwt>
<pdfrwt beam="2">  1       21 0.62380320E-01 0.47026395E+03</pdfrwt>
<totfact> 0.54660553E+04</totfact>
</mgrwt>
</event>
<event>
 7    0  0.4779893E-002  0.4556084E+03  0.7546771E-02  0.1026063E+00
         21   -1    0    0  502  501  0.00000000000E+00  0.00000000000E+00  0.13388647820E+03  0.13388647820E+03  0.00000000000E+00 0.  1.
         21   -1    0    0  501  502 -0.00000000000E+00 -0.00000000000E+00 -0.38760272944E+03  0.38760272944E+03  0.00000000000E+00 0.  1.
      99926    2    1    2    0    0 -0.71054273576E-14 -0.17763568394E-14 -0.25371625123E+03  0.52148920764E+03  0.45560844762E+03 0.  0.
      99925    2    3    3    0    0 -0.63788293945E+02  0.83695642804E+01 -0.52201268215E+02  0.27573568776E+03  0.26299467875E+03 0.  0.
         25    1    4    4    0    0 -0.41968828158E+01  0.28092600434E+02 -0.62394232609E+01  0.12842603524E+03  0.12509000000E+03 0.  0.
         25    1    3    3    0    0  0.63788293945E+02 -0.83695642804E+01 -0.20151498302E+03  0.24575351988E+03  0.12509000000E+03 0.  0.
         25    1    4    4    0    0 -0.59591411130E+02 -0.19723036154E+02 -0.45961844954E+02  0.14730965253E+03  0.12509000000E+03 0.  0.
<mgrwt>
<rscale>  2 0.45560845E+03</rscale>
<asrwt>0</asrwt>
<pdfrwt beam="1">  1       21 0.19689188E-01 0.45560845E+03</pdfrwt>
<pdfrwt beam="2">  1       21 0.57000401E-01 0.45560845E+03</pdfrwt>
<totfact> 0.63478933E+04</totfact>
</mgrwt>
</event>
<event>
 7    0  0.4779893E-002  0.4544773E+03  0.7546771E-02  0.1026395E+00
         21   -1    0    0  502  501  0.00000000000E+00  0.00000000000E+00  0.23196661424E+03  0.23196661424E+03  0.00000000000E+00 0. -1.
         21   -1    0    0  501  502 -0.00000000000E+00 -0.00000000000E+00 -0.22260703261E+03  0.22260703261E+03  0.00000000000E+00 0. -1.
      99926    2    1    2    0    0  0.00000000000E+00  0.00000000000E+00  0.93595816222E+01  0.45457364685E+03  0.45447728067E+03 0.  0.
      99925    2    3    3    0    0  0.35388811928E+02 -0.69095264388E+02 -0.75679622721E+02  0.28455688901E+03  0.26309445874E+03 0.  0.
         25    1    3    3    0    0 -0.35388811928E+02  0.69095264388E+02  0.85039204343E+02  0.17001675784E+03  0.12509000000E+03 0.  0.
         25    1    4    4    0    0  0.56390790048E+02 -0.44485719984E+02 -0.51136835569E+02  0.15304046699E+03  0.12509000000E+03 0.  0.
         25    1    4    4    0    0 -0.21001978119E+02 -0.24609544403E+02 -0.24542787152E+02  0.13151642202E+03  0.12509000000E+03 0.  0.
<mgrwt>
<rscale>  2 0.45447728E+03</rscale>
<asrwt>0</asrwt>
<pdfrwt beam="1">  1       21 0.34112737E-01 0.45447728E+03</pdfrwt>
<pdfrwt beam="2">  1       21 0.32736328E-01 0.45447728E+03</pdfrwt>
<totfact> 0.68863807E+04</totfact>
</mgrwt>
</event>
<event>
 7    0  0.4779893E-002  0.4565029E+03  0.7546771E-02  0.1025800E+00
         21   -1    0    0  502  501  0.00000000000E+00  0.00000000000E+00  0.29798436174E+03  0.29798436174E+03  0.00000000000E+00 0.  1.
         21   -1    0    0  501  502 -0.00000000000E+00 -0.00000000000E+00 -0.17483712603E+03  0.17483712603E+03  0.00000000000E+00 0.  1.
      99926    2    1    2    0    0 -0.44408920985E-15  0.00000000000E+00  0.12314723571E+03  0.47282148777E+03  0.45650292182E+03 0.  0.
      99925    2    3    3    0    0 -0.21604458552E+01  0.66668153986E+02 -0.19076464931E+02  0.27201212691E+03  0.26301592232E+03 0.  0.
         25    1    3    3    0    0  0.21604458552E+01 -0.66668153986E+02  0.14222370064E+03  0.20080936086E+03  0.12509000000E+03 0.  0.
         25    1    4    4    0    0 -0.26403535922E+02  0.39667151344E+02  0.21536503194E+02  0.13558008215E+03  0.12509000000E+03 0.  0.
         25    1    4    4    0    0  0.24243090067E+02  0.27001002642E+02 -0.40612968125E+02  0.13643204477E+03  0.12509000000E+03 0.  0.
<mgrwt>
<rscale>  2 0.45650292E+03</rscale>
<asrwt>0</asrwt>
<pdfrwt beam="1">  1       21 0.43821230E-01 0.45650292E+03</pdfrwt>
<pdfrwt beam="2">  1       21 0.25711342E-01 0.45650292E+03</pdfrwt>
<totfact> 0.66430828E+04</totfact>
</mgrwt>
</event>
<event>
 7    0  0.4779893E-002  0.4546651E+03  0.7546771E-02  0.1026340E+00
         21   -1    0    0  502  501  0.00000000000E+00  0.00000000000E+00  0.51391772308E+03  0.51391772308E+03  0.00000000000E+00 0. -1.
         21   -1    0    0  501  502 -0.00000000000E+00 -0.00000000000E+00 -0.10056100148E+03  0.10056100148E+03  0.00000000000E+00 0. -1.
      99926    2    1    2    0    0  0.35527136788E-14  0.00000000000E+00  0.41335672160E+03  0.61447872456E+03  0.45466506755E+03 0.  0.
      99925    2    3    3    0    0 -0.21088268215E+02  0.78055218597E+02  0.36765238612E+03  0.45867844668E+03  0.26206928134E+03 0.  0.
         25    1    4    4    0    0 -0.11186559601E+02  0.11813103912E+01  0.14552096885E+03  0.19222485554E+03  0.12509000000E+03 0.  0.
         25    1    3    3    0    0  0.21088268215E+02 -0.78055218597E+02  0.45704335480E+02  0.15580027788E+03  0.12509000000E+03 0.  0.
         25    1    4    4    0    0 -0.99017086135E+01  0.76873908206E+02  0.22213141726E+03  0.26645359114E+03  0.12509000000E+03 0.  0.
<mgrwt>
<rscale>  2 0.45466507E+03</rscale>
<asrwt>0</asrwt>
<pdfrwt beam="1">  1       21 0.75576135E-01 0.45466507E+03</pdfrwt>
<pdfrwt beam="2">  1       21 0.14788383E-01 0.45466507E+03</pdfrwt>
<totfact> 0.57948939E+04</totfact>
</mgrwt>
</event>
<event>
 7    0  0.4779893E-002  0.4480391E+03  0.7546771E-02  0.1028308E+00
         21   -1    0    0  502  501  0.00000000000E+00  0.00000000000E+00  0.24155641350E+03  0.24155641350E+03  0.00000000000E+00 0. -1.
         21   -1    0    0  501  502 -0.00000000000E+00 -0.00000000000E+00 -0.20775587753E+03  0.20775587753E+03  0.00000000000E+00 0. -1.
      99926    2    1    2    0    0  0.14210854715E-13 -0.71054273576E-14  0.33800535969E+02  0.44931229104E+03  0.44803912624E+03 0.  0.
      99925    2    3    3    0    0 -0.70256154755E+02  0.57408615105E+02 -0.35113007136E+02  0.28011341133E+03  0.26267646177E+03 0.  0.
         25    1    3    3    0    0  0.70256154755E+02 -0.57408615105E+02  0.68913543105E+02  0.16919887970E+03  0.12509000000E+03 0.  0.
         25    1    4    4    0    0 -0.33695447062E+02  0.54905087089E+02  0.12695336134E+02  0.14127502044E+03  0.12509000000E+03 0.  0.
         25    1    4    4    0    0 -0.36560707692E+02  0.25035280156E+01 -0.47808343270E+02  0.13883839089E+03  0.12509000000E+03 0.  0.
<mgrwt>
<rscale>  2 0.44803913E+03</rscale>
<asrwt>0</asrwt>
<pdfrwt beam="1">  1       21 0.35523002E-01 0.44803913E+03</pdfrwt>
<pdfrwt beam="2">  1       21 0.30552335E-01 0.44803913E+03</pdfrwt>
<totfact> 0.72931685E+04</totfact>
</mgrwt>
</event>
<event>
 7    0  0.4779893E-002  0.4565181E+03  0.7546771E-02  0.1025796E+00
         21   -1    0    0  502  501  0.00000000000E+00  0.00000000000E+00  0.46359560611E+03  0.46359560611E+03  0.00000000000E+00 0. -1.
         21   -1    0    0  501  502 -0.00000000000E+00 -0.00000000000E+00 -0.11238716803E+03  0.11238716803E+03  0.00000000000E+00 0. -1.
      99926    2    1    2    0    0  0.26645352591E-14  0.00000000000E+00  0.35120843808E+03  0.57598277413E+03  0.45651811478E+03 0.  0.
      99925    2    3    3    0    0 -0.42316970476E+01 -0.11278192973E+02  0.36429080449E+03  0.44963499494E+03  0.26328451064E+03 0.  0.
         25    1    3    3    0    0  0.42316970476E+01  0.11278192973E+02 -0.13082366412E+02  0.12634777920E+03  0.12509000000E+03 0.  0.
         25    1    4    4    0    0 -0.35994644906E+02 -0.16170975018E+02  0.21866852103E+03  0.25499126472E+03  0.12509000000E+03 0.  0.
         25    1    4    4    0    0  0.31762947858E+02  0.48927820447E+01  0.14562228346E+03  0.19464373022E+03  0.12509000000E+03 0.  0.
<mgrwt>
<rscale>  2 0.45651811E+03</rscale>
<asrwt>0</asrwt>
<pdfrwt beam="1">  1       21 0.68175824E-01 0.45651811E+03</pdfrwt>
<pdfrwt beam="2">  1       21 0.16527525E-01 0.45651811E+03</pdfrwt>
<totfact> 0.59464512E+04</totfact>
</mgrwt>
</event>
<event>
 7    0  0.4779893E-002  0.4433207E+03  0.7546771E-02  0.1029733E+00
         21   -1    0    0  502  501  0.00000000000E+00  0.00000000000E+00  0.16970709019E+03  0.16970709019E+03  0.00000000000E+00 0.  1.
         21   -1    0    0  501  502 -0.00000000000E+00 -0.00000000000E+00 -0.28951825690E+03  0.28951825690E+03  0.00000000000E+00 0.  1.
      99926    2    1    2    0    0  0.00000000000E+00  0.00000000000E+00 -0.11981116671E+03  0.45922534709E+03  0.44332065567E+03 0.  0.
      99925    2    3    3    0    0  0.95971476048E+02 -0.21545341799E+02 -0.49221917777E+02  0.28514181504E+03  0.26307476414E+03 0.  0.
         25    1    3    3    0    0 -0.95971476048E+02  0.21545341799E+02 -0.70589248930E+02  0.17408353205E+03  0.12509000000E+03 0.  0.
         25    1    4    4    0    0  0.24880377692E+02  0.15168507393E+02  0.83312727879E+00  0.12844188963E+03  0.12509000000E+03 0.  0.
         25    1    4    4    0    0  0.71091098356E+02 -0.36713849192E+02 -0.50055045055E+02  0.15669992541E+03  0.12509000000E+03 0.  0.
<mgrwt>
<rscale>  2 0.44332066E+03</rscale>
<asrwt>0</asrwt>
<pdfrwt beam="1">  1       21 0.24956925E-01 0.44332066E+03</pdfrwt>
<pdfrwt beam="2">  1       21 0.42576214E-01 0.44332066E+03</pdfrwt>
<totfact> 0.74952716E+04</totfact>
</mgrwt>
</event>
<event>
 7    0  0.4779893E-002  0.4852092E+03  0.7546771E-02  0.1017713E+00
         21   -1    0    0  502  501  0.00000000000E+00  0.00000000000E+00  0.58196143269E+03  0.58196143269E+03  0.00000000000E+00 0.  1.
         21   -1    0    0  501  502 -0.00000000000E+00 -0.00000000000E+00 -0.10113557324E+03  0.10113557324E+03  0.00000000000E+00 0.  1.
      99926    2    1    2    0    0  0.00000000000E+00  0.00000000000E+00  0.48082585945E+03  0.68309700594E+03  0.48520924600E+03 0.  0.
      99925    2    3    3    0    0 -0.82539288689E+02 -0.10781743045E+03  0.24922961065E+03  0.38691857484E+03  0.26297005960E+03 0.  0.
         25    1    4    4    0    0 -0.83306886019E+02 -0.54276734270E+02  0.12968308695E+03  0.20579410167E+03  0.12509000000E+03 0.  0.
         25    1    4    4    0    0  0.76759733071E+00 -0.53540696179E+02  0.11954652370E+03  0.18112447317E+03  0.12509000000E+03 0.  0.
         25    1    3    3    0    0  0.82539288689E+02  0.10781743045E+03  0.23159624880E+03  0.29617843109E+03  0.12509000000E+03 0.  0.
<mgrwt>
<rscale>  2 0.48520925E+03</rscale>
<asrwt>0</asrwt>
<pdfrwt beam="1">  1       21 0.85582562E-01 0.48520925E+03</pdfrwt>
<pdfrwt beam="2">  1       21 0.14872879E-01 0.48520925E+03</pdfrwt>
<totfact> 0.42715103E+04</totfact>
</mgrwt>
</event>
<event>
 7    0  0.4779893E-002  0.4563246E+03  0.7546771E-02  0.1025853E+00
         21   -1    0    0  502  501  0.00000000000E+00  0.00000000000E+00  0.17489773679E+03  0.17489773679E+03  0.00000000000E+00 0.  1.
         21   -1    0    0  501  502 -0.00000000000E+00 -0.00000000000E+00 -0.29764835570E+03  0.29764835570E+03  0.00000000000E+00 0.  1.
      99926    2    1    2    0    0 -0.35527136788E-14  0.00000000000E+00 -0.12275061891E+03  0.47254609249E+03  0.45632455016E+03 0.  0.
      99925    2    3    3    0    0  0.25040885209E+02  0.57871497980E+02 -0.17590742713E+03  0.32271515253E+03  0.26310737454E+03 0.  0.
         25    1    4    4    0    0  0.28713265853E+02 -0.31185678304E+01 -0.60678092366E+02  0.14199829610E+03  0.12509000000E+03 0.  0.
         25    1    4    4    0    0 -0.36723806439E+01  0.60990065810E+02 -0.11522933477E+03  0.18071685643E+03  0.12509000000E+03 0.  0.
         25    1    3    3    0    0 -0.25040885209E+02 -0.57871497980E+02  0.53156808216E+02  0.14983093996E+03  0.12509000000E+03 0.  0.
<mgrwt>
<rscale>  2 0.45632455E+03</rscale>
<asrwt>0</asrwt>
<pdfrwt beam="1">  1       21 0.25720256E-01 0.45632455E+03</pdfrwt>
<pdfrwt beam="2">  1       21 0.43771816E-01 0.45632455E+03</pdfrwt>
<totfact> 0.66544799E+04</totfact>
</mgrwt>
</event>
<event>
 7    0  0.4779893E-002  0.4540846E+03  0.7546771E-02  0.1026511E+00
         21   -1    0    0  502  501  0.00000000000E+00  0.00000000000E+00  0.29346200111E+03  0.29346200111E+03  0.00000000000E+00 0. -1.
         21   -1    0    0  501  502 -0.00000000000E+00 -0.00000000000E+00 -0.17565548305E+03  0.17565548305E+03  0.00000000000E+00 0. -1.
      99926    2    1    2    0    0  0.00000000000E+00 -0.71054273576E-14  0.11780651806E+03  0.46911748416E+03  0.45408461573E+03 0.  0.
      99925    2    3    3    0    0  0.92556891050E+02  0.47364323530E+02  0.30663723434E+02  0.28458691222E+03  0.26313359620E+03 0.  0.
         25    1    4    4    0    0  0.74915550718E+02  0.40567444181E-01  0.33701682047E+02  0.14965177198E+03  0.12509000000E+03 0.  0.
         25    1    3    3    0    0 -0.92556891050E+02 -0.47364323530E+02  0.87142794625E+02  0.18453057194E+03  0.12509000000E+03 0.  0.
         25    1    4    4    0    0  0.17641340331E+02  0.47323756086E+02 -0.30379586130E+01  0.13493514024E+03  0.12509000000E+03 0.  0.
<mgrwt>
<rscale>  2 0.45408462E+03</rscale>
<asrwt>0</asrwt>
<pdfrwt beam="1">  1       21 0.43156177E-01 0.45408462E+03</pdfrwt>
<pdfrwt beam="2">  1       21 0.25831688E-01 0.45408462E+03</pdfrwt>
<totfact> 0.67993822E+04</totfact>
</mgrwt>
</event>
<event>
 7    0  0.4779893E-002  0.4521440E+03  0.7546771E-02  0.1027085E+00
         21   -1    0    0  502  501  0.00000000000E+00  0.00000000000E+00  0.63203417953E+03  0.63203417953E+03  0.00000000000E+00 0.  1.
         21   -1    0    0  501  502 -0.00000000000E+00 -0.00000000000E+00 -0.80863568946E+02  0.80863568946E+02  0.00000000000E+00 0.  1.
      99926    2    1    2    0    0  0.17763568394E-14  0.00000000000E+00  0.55117061059E+03  0.71289774848E+03  0.45214395696E+03 0.  0.
      99925    2    3    3    0    0  0.19870195605E+01  0.72154184794E+02  0.47954331631E+03  0.55168933674E+03  0.26303831931E+03 0.  0.
         25    1    4    4    0    0  0.20498558610E+02  0.14067225271E+02  0.28760353607E+03  0.31461306360E+03  0.12509000000E+03 0.  0.
         25    1    3    3    0    0 -0.19870195605E+01 -0.72154184794E+02  0.71627294277E+02  0.16120841174E+03  0.12509000000E+03 0.  0.
         25    1    4    4    0    0 -0.18511539050E+02  0.58086959523E+02  0.19193978025E+03  0.23707627314E+03  0.12509000000E+03 0.  0.
<mgrwt>
<rscale>  2 0.45214396E+03</rscale>
<asrwt>0</asrwt>
<pdfrwt beam="1">  1       21 0.92946200E-01 0.45214396E+03</pdfrwt>
<pdfrwt beam="2">  1       21 0.11891702E-01 0.45214396E+03</pdfrwt>
<totfact> 0.53398001E+04</totfact>
</mgrwt>
</event>
<event>
 7    0  0.4779893E-002  0.4554129E+03  0.7546771E-02  0.1026120E+00
         21   -1    0    0  502  501  0.00000000000E+00  0.00000000000E+00  0.55972595811E+03  0.55972595811E+03  0.00000000000E+00 0. -1.
         21   -1    0    0  501  502 -0.00000000000E+00 -0.00000000000E+00 -0.92635011922E+02  0.92635011922E+02  0.00000000000E+00 0. -1.
      99926    2    1    2    0    0  0.88817841970E-15  0.00000000000E+00  0.46709094619E+03  0.65236097003E+03  0.45541287115E+03 0.  0.
      99925    2    3    3    0    0  0.76761049249E+01  0.11277988269E+03  0.30835855568E+03  0.42079736230E+03  0.26307260734E+03 0.  0.
         25    1    3    3    0    0 -0.76761049249E+01 -0.11277988269E+03  0.15873239051E+03  0.23156360773E+03  0.12509000000E+03 0.  0.
         25    1    4    4    0    0  0.91869376547E+01  0.90642341099E+02  0.20599396128E+03  0.25764598582E+03  0.12509000000E+03 0.  0.
         25    1    4    4    0    0 -0.15108327298E+01  0.22137541596E+02  0.10236459440E+03  0.16315137649E+03  0.12509000000E+03 0.  0.
<mgrwt>
<rscale>  2 0.45541287E+03</rscale>
<asrwt>0</asrwt>
<pdfrwt beam="1">  1       21 0.82312640E-01 0.45541287E+03</pdfrwt>
<pdfrwt beam="2">  1       21 0.13622796E-01 0.45541287E+03</pdfrwt>
<totfact> 0.55385079E+04</totfact>
</mgrwt>
</event>
<event>
 6    0  0.4779893E-002  0.4571571E+03  0.7546771E-02  0.1025609E+00
         21   -1    0    0  502  501  0.00000000000E+00  0.00000000000E+00  0.59024333915E+02  0.59024333915E+02  0.00000000000E+00 0. -1.
         21   -1    0    0  501  502 -0.00000000000E+00 -0.00000000000E+00 -0.88519665633E+03  0.88519665633E+03  0.00000000000E+00 0. -1.
      99926    2    1    2    0    0  0.00000000000E+00  0.00000000000E+00 -0.82617232241E+03  0.94422099024E+03  0.45715705408E+03 0.  0.
         25    1    3    3    0    0 -0.24854364946E+01 -0.58299081994E+02 -0.30070890547E+03  0.33087507353E+03  0.12509000000E+03 0.  0.
         25    1    3    3    0    0  0.17100906439E+02  0.38996064294E+02 -0.90635646285E+02  0.16023564681E+03  0.12509000000E+03 0.  0.
         25    1    3    3    0    0 -0.14615469944E+02  0.19303017701E+02 -0.43482777066E+03  0.45311026990E+03  0.12509000000E+03 0.  0.
<mgrwt>
<rscale>  2 0.45715705E+03</rscale>
<asrwt>0</asrwt>
<pdfrwt beam="1">  1       21 0.86800496E-02 0.45715705E+03</pdfrwt>
<pdfrwt beam="2">  1       21 0.13017597E+00 0.45715705E+03</pdfrwt>
<totfact> 0.40685041E+04</totfact>
</mgrwt>
</event>
<event>
 7    0  0.4779893E-002  0.4598939E+03  0.7546771E-02  0.1024812E+00
         21   -1    0    0  502  501  0.00000000000E+00  0.00000000000E+00  0.69292222781E+02  0.69292222781E+02  0.00000000000E+00 0. -1.
         21   -1    0    0  501  502 -0.00000000000E+00 -0.00000000000E+00 -0.76308122239E+03  0.76308122239E+03  0.00000000000E+00 0. -1.
      99926    2    1    2    0    0  0.00000000000E+00  0.14210854715E-13 -0.69378899961E+03  0.83237344517E+03  0.45989387498E+03 0.  0.
      99925    2    3    3    0    0 -0.18689852279E+02 -0.10417923191E+03 -0.52780915961E+03  0.59913657346E+03  0.26301996454E+03 0.  0.
         25    1    4    4    0    0 -0.30155608377E+02 -0.83495221453E+02 -0.32992506413E+03  0.36383906987E+03  0.12509000000E+03 0.  0.
         25    1    4    4    0    0  0.11465756098E+02 -0.20684010459E+02 -0.19788409548E+03  0.23529750359E+03  0.12509000000E+03 0.  0.
         25    1    3    3    0    0  0.18689852279E+02  0.10417923191E+03 -0.16597984000E+03  0.23323687171E+03  0.12509000000E+03 0.  0.
<mgrwt>
<rscale>  2 0.45989387E+03</rscale>
<asrwt>0</asrwt>
<pdfrwt beam="1">  1       21 0.10190033E-01 0.45989387E+03</pdfrwt>
<pdfrwt beam="2">  1       21 0.11221783E+00 0.45989387E+03</pdfrwt>
<totfact> 0.44504837E+04</totfact>
</mgrwt>
</event>
<event>
 7    0  0.4779893E-002  0.4326488E+03  0.7546771E-02  0.1033026E+00
         21   -1    0    0  502  501  0.00000000000E+00  0.00000000000E+00  0.45613524742E+03  0.45613524742E+03  0.00000000000E+00 0.  1.
         21   -1    0    0  501  502 -0.00000000000E+00 -0.00000000000E+00 -0.10259294165E+03  0.10259294165E+03  0.00000000000E+00 0.  1.
      99926    2    1    2    0    0  0.00000000000E+00  0.00000000000E+00  0.35354230578E+03  0.55872818907E+03  0.43264884986E+03 0.  0.
      99925    2    3    3    0    0  0.74891640547E+02 -0.27342916620E+02  0.17122001652E+03  0.32368496289E+03  0.26286739667E+03 0.  0.
         25    1    4    4    0    0  0.22693561934E+02 -0.42935068656E+02  0.11266767468E+03  0.17521395746E+03  0.12509000000E+03 0.  0.
         25    1    4    4    0    0  0.52198078613E+02  0.15592152036E+02  0.58552341841E+02  0.14847100542E+03  0.12509000000E+03 0.  0.
         25    1    3    3    0    0 -0.74891640547E+02  0.27342916620E+02  0.18232228926E+03  0.23504322618E+03  0.12509000000E+03 0.  0.
<mgrwt>
<rscale>  2 0.43264885E+03</rscale>
<asrwt>0</asrwt>
<pdfrwt beam="1">  1       21 0.67078712E-01 0.43264885E+03</pdfrwt>
<pdfrwt beam="2">  1       21 0.15087197E-01 0.43264885E+03</pdfrwt>
<totfact> 0.73441508E+04</totfact>
</mgrwt>
</event>
<event>
 7    0  0.4779893E-002  0.4235740E+03  0.7546771E-02  0.1035909E+00
         21   -1    0    0  502  501  0.00000000000E+00  0.00000000000E+00  0.25316133407E+03  0.25316133407E+03  0.00000000000E+00 0.  1.
         21   -1    0    0  501  502 -0.00000000000E+00 -0.00000000000E+00 -0.17717450644E+03  0.17717450644E+03  0.00000000000E+00 0.  1.
      99926    2    1    2    0    0  0.00000000000E+00  0.00000000000E+00  0.75986827626E+02  0.43033584051E+03  0.42357400494E+03 0.  0.
      99925    2    3    3    0    0 -0.37286293551E+01  0.79117342758E+02  0.62385768437E+02  0.28165513056E+03  0.26299082087E+03 0.  0.
         25    1    4    4    0    0 -0.70132312216E+00  0.69783068623E+02  0.62247487294E+02  0.15618074880E+03  0.12509000000E+03 0.  0.
         25    1    3    3    0    0  0.37286293551E+01 -0.79117342758E+02  0.13601059190E+02  0.14868070996E+03  0.12509000000E+03 0.  0.
         25    1    4    4    0    0 -0.30273062329E+01  0.93342741352E+01  0.13828114318E+00  0.12547438176E+03  0.12509000000E+03 0.  0.
<mgrwt>
<rscale>  2 0.42357400E+03</rscale>
<asrwt>0</asrwt>
<pdfrwt beam="1">  1       21 0.37229608E-01 0.42357400E+03</pdfrwt>
<pdfrwt beam="2">  1       21 0.26055074E-01 0.42357400E+03</pdfrwt>
<totfact> 0.91191545E+04</totfact>
</mgrwt>
</event>
<event>
 7    0  0.4779893E-002  0.4542075E+03  0.7546771E-02  0.1026475E+00
         21   -1    0    0  502  501  0.00000000000E+00  0.00000000000E+00  0.18692429041E+03  0.18692429041E+03  0.00000000000E+00 0. -1.
         21   -1    0    0  501  502 -0.00000000000E+00 -0.00000000000E+00 -0.27591979217E+03  0.27591979217E+03  0.00000000000E+00 0. -1.
      99926    2    1    2    0    0 -0.35527136788E-14  0.14210854715E-13 -0.88995501763E+02  0.46284408258E+03  0.45420749162E+03 0.  0.
      99925    2    3    3    0    0  0.27661463494E+02  0.10548400582E+03 -0.83183563684E+02  0.29679192580E+03  0.26319937292E+03 0.  0.
         25    1    4    4    0    0  0.50486535100E+02  0.36053377891E+02 -0.48599962850E+02  0.14784519192E+03  0.12509000000E+03 0.  0.
         25    1    3    3    0    0 -0.27661463494E+02 -0.10548400582E+03 -0.58119380787E+01  0.16605215678E+03  0.12509000000E+03 0.  0.
         25    1    4    4    0    0 -0.22825071606E+02  0.69430627930E+02 -0.34583600834E+02  0.14894673389E+03  0.12509000000E+03 0.  0.
<mgrwt>
<rscale>  2 0.45420749E+03</rscale>
<asrwt>0</asrwt>
<pdfrwt beam="1">  1       21 0.27488866E-01 0.45420749E+03</pdfrwt>
<pdfrwt beam="2">  1       21 0.40576440E-01 0.45420749E+03</pdfrwt>
<totfact> 0.68400443E+04</totfact>
</mgrwt>
</event>
<event>
 7    0  0.4779893E-002  0.4479214E+03  0.7546771E-02  0.1028344E+00
         21   -1    0    0  502  501  0.00000000000E+00  0.00000000000E+00  0.12449674283E+03  0.12449674283E+03  0.00000000000E+00 0. -1.
         21   -1    0    0  501  502 -0.00000000000E+00 -0.00000000000E+00 -0.40288926068E+03  0.40288926068E+03  0.00000000000E+00 0. -1.
      99926    2    1    2    0    0 -0.17763568394E-14 -0.14210854715E-13 -0.27839251786E+03  0.52738600351E+03  0.44792142469E+03 0.  0.
      99925    2    3    3    0    0 -0.65918986541E+01 -0.95876024964E+02 -0.12242585657E+03  0.30555549879E+03  0.26294563543E+03 0.  0.
         25    1    4    4    0    0 -0.26898379354E+02 -0.15830889549E+02 -0.70394562374E+02  0.14689126042E+03  0.12509000000E+03 0.  0.
         25    1    4    4    0    0  0.20306480700E+02 -0.80045135415E+02 -0.52031294198E+02  0.15866423837E+03  0.12509000000E+03 0.  0.
         25    1    3    3    0    0  0.65918986541E+01  0.95876024964E+02 -0.15596666129E+03  0.22183050472E+03  0.12509000000E+03 0.  0.
<mgrwt>
<rscale>  2 0.44792142E+03</rscale>
<asrwt>0</asrwt>
<pdfrwt beam="1">  1       21 0.18308345E-01 0.44792142E+03</pdfrwt>
<pdfrwt beam="2">  1       21 0.59248420E-01 0.44792142E+03</pdfrwt>
<totfact> 0.67065929E+04</totfact>
</mgrwt>
</event>
<event>
 7    0  0.4779893E-002  0.4497932E+03  0.7546771E-02  0.1027784E+00
         21   -1    0    0  502  501  0.00000000000E+00  0.00000000000E+00  0.60698987893E+03  0.60698987893E+03  0.00000000000E+00 0. -1.
         21   -1    0    0  501  502 -0.00000000000E+00 -0.00000000000E+00 -0.83326738000E+02  0.83326738000E+02  0.00000000000E+00 0. -1.
      99926    2    1    2    0    0  0.00000000000E+00  0.00000000000E+00  0.52366314093E+03  0.69031661693E+03  0.44979322632E+03 0.  0.
      99925    2    3    3    0    0 -0.42398075587E+02  0.37562095419E+02  0.18985796242E+03  0.32937075794E+03  0.26311697487E+03 0.  0.
         25    1    3    3    0    0  0.42398075587E+02 -0.37562095419E+02  0.33380517851E+03  0.36094585900E+03  0.12509000000E+03 0.  0.
         25    1    4    4    0    0 -0.32610280047E+02  0.20669885204E+01  0.13783274846E+03  0.18897903972E+03  0.12509000000E+03 0.  0.
         25    1    4    4    0    0 -0.97877955400E+01  0.35495106899E+02  0.52025213961E+02  0.14039171821E+03  0.12509000000E+03 0.  0.
<mgrwt>
<rscale>  2 0.44979323E+03</rscale>
<asrwt>0</asrwt>
<pdfrwt beam="1">  1       21 0.89263215E-01 0.44979323E+03</pdfrwt>
<pdfrwt beam="2">  1       21 0.12253932E-01 0.44979323E+03</pdfrwt>
<totfact> 0.55679205E+04</totfact>
</mgrwt>
</event>
<event>
 7    0  0.4779893E-002  0.4625215E+03  0.7546771E-02  0.1024052E+00
         21   -1    0    0  502  501  0.00000000000E+00  0.00000000000E+00  0.63204940614E+02  0.63204940614E+02  0.00000000000E+00 0.  1.
         21   -1    0    0  501  502 -0.00000000000E+00 -0.00000000000E+00 -0.84616066230E+03  0.84616066230E+03  0.00000000000E+00 0.  1.
      99926    2    1    2    0    0  0.00000000000E+00  0.14210854715E-13 -0.78295572168E+03  0.90936560291E+03  0.46252149965E+03 0.  0.
      99925    2    3    3    0    0  0.12779905295E+02 -0.79862129033E+02 -0.31709179417E+03  0.42026643844E+03  0.26369563461E+03 0.  0.
         25    1    4    4    0    0 -0.15393754285E+02 -0.73792687872E+02 -0.18980043367E+03  0.23948703760E+03  0.12509000000E+03 0.  0.
         25    1    3    3    0    0 -0.12779905295E+02  0.79862129033E+02 -0.46586392751E+03  0.48909916447E+03  0.12509000000E+03 0.  0.
         25    1    4    4    0    0  0.28173659579E+02 -0.60694411611E+01 -0.12729136050E+03  0.18077940084E+03  0.12509000000E+03 0.  0.
<mgrwt>
<rscale>  2 0.46252150E+03</rscale>
<asrwt>0</asrwt>
<pdfrwt beam="1">  1       21 0.92948448E-02 0.46252150E+03</pdfrwt>
<pdfrwt beam="2">  1       21 0.12443538E+00 0.46252150E+03</pdfrwt>
<totfact> 0.40399406E+04</totfact>
</mgrwt>
</event>
<event>
 7    0  0.4779893E-002  0.4054838E+03  0.7546771E-02  0.1041897E+00
         21   -1    0    0  502  501  0.00000000000E+00  0.00000000000E+00  0.22971852678E+03  0.22971852678E+03  0.00000000000E+00 0. -1.
         21   -1    0    0  501  502 -0.00000000000E+00 -0.00000000000E+00 -0.17893327020E+03  0.17893327020E+03  0.00000000000E+00 0. -1.
      99926    2    1    2    0    0 -0.71054273576E-14 -0.17763568394E-14  0.50785256585E+02  0.40865179698E+03  0.40548384541E+03 0.  0.
      99925    2    3    3    0    0  0.37216503714E+02  0.10844537901E+02  0.73349601254E+02  0.27576338552E+03  0.26298784884E+03 0.  0.
         25    1    4    4    0    0 -0.37404901588E+01 -0.24933368690E+02  0.19355916683E+02  0.12906519187E+03  0.12509000000E+03 0.  0.
         25    1    3    3    0    0 -0.37216503714E+02 -0.10844537901E+02 -0.22564344670E+02  0.13288841146E+03  0.12509000000E+03 0.  0.
         25    1    4    4    0    0  0.40956993873E+02  0.35777906591E+02  0.53993684571E+02  0.14669819365E+03  0.12509000000E+03 0.  0.
<mgrwt>
<rscale>  2 0.40548385E+03</rscale>
<asrwt>0</asrwt>
<pdfrwt beam="1">  1       21 0.33782136E-01 0.40548385E+03</pdfrwt>
<pdfrwt beam="2">  1       21 0.26313716E-01 0.40548385E+03</pdfrwt>
<totfact> 0.10928065E+05</totfact>
</mgrwt>
</event>
<event>
 7    0  0.4779893E-002  0.4648360E+03  0.7546771E-02  0.1023388E+00
         21   -1    0    0  502  501  0.00000000000E+00  0.00000000000E+00  0.58278908394E+02  0.58278908394E+02  0.00000000000E+00 0. -1.
         21   -1    0    0  501  502 -0.00000000000E+00 -0.00000000000E+00 -0.92688977636E+03  0.92688977636E+03  0.00000000000E+00 0. -1.
      99926    2    1    2    0    0  0.00000000000E+00 -0.71054273576E-14 -0.86861086796E+03  0.98516868475E+03  0.46483598986E+03 0.  0.
      99925    2    3    3    0    0 -0.99705218450E+02 -0.63304251485E+02 -0.60803684431E+03  0.67292696950E+03  0.26300825728E+03 0.  0.
         25    1    3    3    0    0  0.99705218450E+02  0.63304251485E+02 -0.26057402365E+03  0.31224171525E+03  0.12509000000E+03 0.  0.
         25    1    4    4    0    0 -0.29900090254E+02 -0.23233641859E+02 -0.36820084127E+03  0.39070856802E+03  0.12509000000E+03 0.  0.
         25    1    4    4    0    0 -0.69805128196E+02 -0.40070609625E+02 -0.23983600303E+03  0.28221840147E+03  0.12509000000E+03 0.  0.
<mgrwt>
<rscale>  2 0.46483599E+03</rscale>
<asrwt>0</asrwt>
<pdfrwt beam="1">  1       21 0.85704285E-02 0.46483599E+03</pdfrwt>
<pdfrwt beam="2">  1       21 0.13630731E+00 0.46483599E+03</pdfrwt>
<totfact> 0.36833770E+04</totfact>
</mgrwt>
</event>
<event>
 7    0  0.4779893E-002  0.4545206E+03  0.7546771E-02  0.1026382E+00
         21   -1    0    0  502  501  0.00000000000E+00  0.00000000000E+00  0.11574562768E+04  0.11574562768E+04  0.00000000000E+00 0. -1.
         21   -1    0    0  501  502 -0.00000000000E+00 -0.00000000000E+00 -0.44621328580E+02  0.44621328580E+02  0.00000000000E+00 0. -1.
      99926    2    1    2    0    0  0.00000000000E+00  0.00000000000E+00  0.11128349482E+04  0.12020776054E+04  0.45452056870E+03 0.  0.
      99925    2    3    3    0    0  0.93908972524E+02 -0.61325683088E+02  0.73021717127E+03  0.78419771131E+03  0.26300037773E+03 0.  0.
         25    1    4    4    0    0  0.84255738384E+02 -0.20211705384E+02  0.43354946684E+03  0.45947817226E+03  0.12509000000E+03 0.  0.
         25    1    4    4    0    0  0.96532341410E+01 -0.41113977704E+02  0.29666770443E+03  0.32471953906E+03  0.12509000000E+03 0.  0.
         25    1    3    3    0    0 -0.93908972524E+02  0.61325683088E+02  0.38261777695E+03  0.41787989407E+03  0.12509000000E+03 0.  0.
<mgrwt>
<rscale>  2 0.45452057E+03</rscale>
<asrwt>0</asrwt>
<pdfrwt beam="1">  1       21 0.17021414E+00 0.45452057E+03</pdfrwt>
<pdfrwt beam="2">  1       21 0.65619608E-02 0.45452057E+03</pdfrwt>
<totfact> 0.32210298E+04</totfact>
</mgrwt>
</event>
<event>
 7    0  0.4779893E-002  0.4567031E+03  0.7546771E-02  0.1025742E+00
         21   -1    0    0  502  501  0.00000000000E+00  0.00000000000E+00  0.76445141088E+02  0.76445141088E+02  0.00000000000E+00 0. -1.
         21   -1    0    0  501  502 -0.00000000000E+00 -0.00000000000E+00 -0.68211571854E+03  0.68211571854E+03  0.00000000000E+00 0. -1.
      99926    2    1    2    0    0  0.00000000000E+00  0.00000000000E+00 -0.60567057746E+03  0.75856085963E+03  0.45670310856E+03 0.  0.
      99925    2    3    3    0    0 -0.77832073731E+02  0.79076676990E+02 -0.42904138598E+03  0.51534011231E+03  0.26303605823E+03 0.  0.
         25    1    4    4    0    0 -0.34570168754E+02  0.34212578979E+02 -0.28293951292E+03  0.31315790458E+03  0.12509000000E+03 0.  0.
         25    1    3    3    0    0  0.77832073731E+02 -0.79076676990E+02 -0.17662919148E+03  0.24322074732E+03  0.12509000000E+03 0.  0.
         25    1    4    4    0    0 -0.43261904977E+02  0.44864098010E+02 -0.14610187306E+03  0.20218220773E+03  0.12509000000E+03 0.  0.
<mgrwt>
<rscale>  2 0.45670311E+03</rscale>
<asrwt>0</asrwt>
<pdfrwt beam="1">  1       21 0.11241932E-01 0.45670311E+03</pdfrwt>
<pdfrwt beam="2">  1       21 0.10031114E+00 0.45670311E+03</pdfrwt>
<totfact> 0.49173081E+04</totfact>
</mgrwt>
</event>
<event>
 7    0  0.4779893E-002  0.4636077E+03  0.7546771E-02  0.1023740E+00
         21   -1    0    0  502  501  0.00000000000E+00  0.00000000000E+00  0.28234897572E+03  0.28234897572E+03  0.00000000000E+00 0.  1.
         21   -1    0    0  501  502 -0.00000000000E+00 -0.00000000000E+00 -0.19030716008E+03  0.19030716008E+03  0.00000000000E+00 0.  1.
      99926    2    1    2    0    0  0.00000000000E+00  0.00000000000E+00  0.92041815637E+02  0.47265613580E+03  0.46360772953E+03 0.  0.
      99925    2    3    3    0    0 -0.11877367103E+03  0.14565739946E+02  0.75046424633E+02  0.29871448717E+03  0.26320910563E+03 0.  0.
         25    1    4    4    0    0 -0.97011113570E+02 -0.13895604575E+02  0.45282392967E+02  0.16523391660E+03  0.12509000000E+03 0.  0.
         25    1    3    3    0    0  0.11877367103E+03 -0.14565739946E+02  0.16995391005E+02  0.17394164862E+03  0.12509000000E+03 0.  0.
         25    1    4    4    0    0 -0.21762557461E+02  0.28461344521E+02  0.29764031666E+02  0.13348057057E+03  0.12509000000E+03 0.  0.
<mgrwt>
<rscale>  2 0.46360773E+03</rscale>
<asrwt>0</asrwt>
<pdfrwt beam="1">  1       21 0.41521908E-01 0.46360773E+03</pdfrwt>
<pdfrwt beam="2">  1       21 0.27986347E-01 0.46360773E+03</pdfrwt>
<totfact> 0.62834891E+04</totfact>
</mgrwt>
</event>
<event>
 7    0  0.4779893E-002  0.4411862E+03  0.7546771E-02  0.1030383E+00
         21   -1    0    0  502  501  0.00000000000E+00  0.00000000000E+00  0.77734374484E+03  0.77734374484E+03  0.00000000000E+00 0. -1.
         21   -1    0    0  501  502 -0.00000000000E+00 -0.00000000000E+00 -0.62599491765E+02  0.62599491765E+02  0.00000000000E+00 0. -1.
      99926    2    1    2    0    0  0.00000000000E+00  0.00000000000E+00  0.71474425307E+03  0.83994323660E+03  0.44118623439E+03 0.  0.
      99925    2    3    3    0    0 -0.85491702257E+02 -0.16013383289E+02  0.54832699547E+03  0.61431639572E+03  0.26297695810E+03 0.  0.
         25    1    3    3    0    0  0.85491702257E+02  0.16013383289E+02  0.16641725760E+03  0.22562684088E+03  0.12509000000E+03 0.  0.
         25    1    4    4    0    0 -0.53962345495E+02  0.66125743965E+01  0.19910088922E+03  0.24133862737E+03  0.12509000000E+03 0.  0.
         25    1    4    4    0    0 -0.31529356761E+02 -0.22625957686E+02  0.34922610625E+03  0.37297776835E+03  0.12509000000E+03 0.  0.
<mgrwt>
<rscale>  2 0.44118623E+03</rscale>
<asrwt>0</asrwt>
<pdfrwt beam="1">  1       21 0.11431525E+00 0.44118623E+03</pdfrwt>
<pdfrwt beam="2">  1       21 0.92058081E-02 0.44118623E+03</pdfrwt>
<totfact> 0.51222136E+04</totfact>
</mgrwt>
</event>
<event>
 7    0  0.4779893E-002  0.4535287E+03  0.7546771E-02  0.1026675E+00
         21   -1    0    0  502  501  0.00000000000E+00  0.00000000000E+00  0.55579832144E+02  0.55579832144E+02  0.00000000000E+00 0.  1.
         21   -1    0    0  501  502 -0.00000000000E+00 -0.00000000000E+00 -0.92519284527E+03  0.92519284527E+03  0.00000000000E+00 0.  1.
      99926    2    1    2    0    0  0.00000000000E+00  0.00000000000E+00 -0.86961301312E+03  0.98077267741E+03  0.45352866741E+03 0.  0.
      99925    2    3    3    0    0  0.50082868634E+02  0.75115269783E+02 -0.40564896220E+03  0.49183429056E+03  0.26305758182E+03 0.  0.
         25    1    4    4    0    0  0.14156099826E+02 -0.37186701784E+01 -0.18615419987E+03  0.22475568491E+03  0.12509000000E+03 0.  0.
         25    1    4    4    0    0  0.35926768808E+02  0.78833939961E+02 -0.21949476233E+03  0.26707860565E+03  0.12509000000E+03 0.  0.
         25    1    3    3    0    0 -0.50082868634E+02 -0.75115269783E+02 -0.46396405093E+03  0.48893838685E+03  0.12509000000E+03 0.  0.
<mgrwt>
<rscale>  2 0.45352867E+03</rscale>
<asrwt>0</asrwt>
<pdfrwt beam="1">  1       21 0.81735055E-02 0.45352867E+03</pdfrwt>
<pdfrwt beam="2">  1       21 0.13605776E+00 0.45352867E+03</pdfrwt>
<totfact> 0.40381501E+04</totfact>
</mgrwt>
</event>
<event>
 7    0  0.4779893E-002  0.4511095E+03  0.7546771E-02  0.1027392E+00
         21   -1    0    0  502  501  0.00000000000E+00  0.00000000000E+00  0.50428311892E+03  0.50428311892E+03  0.00000000000E+00 0.  1.
         21   -1    0    0  501  502 -0.00000000000E+00 -0.00000000000E+00 -0.10088570107E+03  0.10088570107E+03  0.00000000000E+00 0.  1.
      99926    2    1    2    0    0 -0.35527136788E-14  0.00000000000E+00  0.40339741786E+03  0.60516881999E+03  0.45110954762E+03 0.  0.
      99925    2    3    3    0    0  0.31683554327E+02 -0.57638558738E+02  0.13760835109E+03  0.30414159999E+03  0.26313495299E+03 0.  0.
         25    1    4    4    0    0  0.25850051270E+02 -0.11734122654E+02  0.10761840289E+03  0.16743698374E+03  0.12509000000E+03 0.  0.
         25    1    3    3    0    0 -0.31683554327E+02  0.57638558738E+02  0.26578906677E+03  0.30102722000E+03  0.12509000000E+03 0.  0.
         25    1    4    4    0    0  0.58335030567E+01 -0.45904436084E+02  0.29989948200E+02  0.13670461625E+03  0.12509000000E+03 0.  0.
<mgrwt>
<rscale>  2 0.45110955E+03</rscale>
<asrwt>0</asrwt>
<pdfrwt beam="1">  1       21 0.74159281E-01 0.45110955E+03</pdfrwt>
<pdfrwt beam="2">  1       21 0.14836133E-01 0.45110955E+03</pdfrwt>
<totfact> 0.60189904E+04</totfact>
</mgrwt>
</event>
<event>
 7    0  0.4779893E-002  0.4387259E+03  0.7546771E-02  0.1031138E+00
         21   -1    0    0  502  501  0.00000000000E+00  0.00000000000E+00  0.37488316978E+03  0.37488316978E+03  0.00000000000E+00 0.  1.
         21   -1    0    0  501  502 -0.00000000000E+00 -0.00000000000E+00 -0.12836029613E+03  0.12836029613E+03  0.00000000000E+00 0.  1.
      99926    2    1    2    0    0  0.14210854715E-13  0.14210854715E-13  0.24652287365E+03  0.50324346591E+03  0.43872594948E+03 0.  0.
      99925    2    3    3    0    0 -0.66200641440E+02 -0.68717513319E+02  0.13668262739E+03  0.31136587639E+03  0.26298659050E+03 0.  0.
         25    1    4    4    0    0 -0.46771119714E+02 -0.69139002795E+02  0.95937741314E+02  0.17837964473E+03  0.12509000000E+03 0.  0.
         25    1    4    4    0    0 -0.19429521726E+02  0.42148947605E+00  0.40744886075E+02  0.13298623165E+03  0.12509000000E+03 0.  0.
         25    1    3    3    0    0  0.66200641440E+02  0.68717513319E+02  0.10984024626E+03  0.19187758953E+03  0.12509000000E+03 0.  0.
<mgrwt>
<rscale>  2 0.43872595E+03</rscale>
<asrwt>0</asrwt>
<pdfrwt beam="1">  1       21 0.55129877E-01 0.43872595E+03</pdfrwt>
<pdfrwt beam="2">  1       21 0.18876514E-01 0.43872595E+03</pdfrwt>
<totfact> 0.74168914E+04</totfact>
</mgrwt>
</event>
<event>
 7    0  0.4779893E-002  0.4545077E+03  0.7546771E-02  0.1026386E+00
         21   -1    0    0  502  501  0.00000000000E+00  0.00000000000E+00  0.22366766708E+03  0.22366766708E+03  0.00000000000E+00 0.  1.
         21   -1    0    0  501  502 -0.00000000000E+00 -0.00000000000E+00 -0.23089750452E+03  0.23089750452E+03  0.00000000000E+00 0.  1.
      99926    2    1    2    0    0  0.00000000000E+00  0.00000000000E+00 -0.72298374405E+01  0.45456517160E+03  0.45450767285E+03 0.  0.
      99925    2    3    3    0    0  0.35256873520E+02 -0.70645468842E+02  0.76133965287E+02  0.28476864306E+03  0.26279834475E+03 0.  0.
         25    1    3    3    0    0 -0.35256873520E+02  0.70645468842E+02 -0.83363802728E+02  0.16979652854E+03  0.12509000000E+03 0.  0.
         25    1    4    4    0    0  0.40173690140E+02 -0.70148360181E+02  0.47742519942E+02  0.15640196331E+03  0.12509000000E+03 0.  0.
         25    1    4    4    0    0 -0.49168166198E+01 -0.49710866148E+00  0.28391445345E+02  0.12836667976E+03  0.12509000000E+03 0.  0.
<mgrwt>
<rscale>  2 0.45450767E+03</rscale>
<asrwt>0</asrwt>
<pdfrwt beam="1">  1       21 0.32892304E-01 0.45450767E+03</pdfrwt>
<pdfrwt beam="2">  1       21 0.33955515E-01 0.45450767E+03</pdfrwt>
<totfact> 0.68847714E+04</totfact>
</mgrwt>
</event>
<event>
 7    0  0.4779893E-002  0.4541383E+03  0.7546771E-02  0.1026495E+00
         21   -1    0    0  502  501  0.00000000000E+00  0.00000000000E+00  0.13849655405E+03  0.13849655405E+03  0.00000000000E+00 0.  1.
         21   -1    0    0  501  502 -0.00000000000E+00 -0.00000000000E+00 -0.37228651234E+03  0.37228651234E+03  0.00000000000E+00 0.  1.
      99926    2    1    2    0    0  0.17763568394E-14  0.14210854715E-13 -0.23378995829E+03  0.51078306639E+03  0.45413830086E+03 0.  0.
      99925    2    3    3    0    0  0.10508601014E+02  0.11213900103E+03 -0.14530276859E+03  0.32061714649E+03  0.26267256008E+03 0.  0.
         25    1    4    4    0    0 -0.15852869120E+02  0.78710109217E+02 -0.10665083557E+03  0.18294399028E+03  0.12509000000E+03 0.  0.
         25    1    4    4    0    0  0.26361470134E+02  0.33428891814E+02 -0.38651933029E+02  0.13767315622E+03  0.12509000000E+03 0.  0.
         25    1    3    3    0    0 -0.10508601014E+02 -0.11213900103E+03 -0.88487189698E+02  0.19016591989E+03  0.12509000000E+03 0.  0.
<mgrwt>
<rscale>  2 0.45413830E+03</rscale>
<asrwt>0</asrwt>
<pdfrwt beam="1">  1       21 0.20367140E-01 0.45413830E+03</pdfrwt>
<pdfrwt beam="2">  1       21 0.54748017E-01 0.45413830E+03</pdfrwt>
<totfact> 0.64962672E+04</totfact>
</mgrwt>
</event>
<event>
 7    0  0.4779893E-002  0.4609844E+03  0.7546771E-02  0.1024496E+00
         21   -1    0    0  502  501  0.00000000000E+00  0.00000000000E+00  0.98718403515E+02  0.98718403515E+02  0.00000000000E+00 0. -1.
         21   -1    0    0  501  502 -0.00000000000E+00 -0.00000000000E+00 -0.53816358840E+03  0.53816358840E+03  0.00000000000E+00 0. -1.
      99926    2    1    2    0    0  0.00000000000E+00  0.00000000000E+00 -0.43944518488E+03  0.63688199191E+03  0.46098438271E+03 0.  0.
      99925    2    3    3    0    0 -0.33364561247E+02 -0.60284689078E+02 -0.14146139674E+03  0.30644397385E+03  0.26296224949E+03 0.  0.
         25    1    3    3    0    0  0.33364561247E+02  0.60284689078E+02 -0.29798378815E+03  0.33043801806E+03  0.12509000000E+03 0.  0.
         25    1    4    4    0    0 -0.22964259348E+02 -0.29026453748E+02 -0.25920463060E+02  0.13300101778E+03  0.12509000000E+03 0.  0.
         25    1    4    4    0    0 -0.10400301899E+02 -0.31258235330E+02 -0.11554093368E+03  0.17344295607E+03  0.12509000000E+03 0.  0.
<mgrwt>
<rscale>  2 0.46098438E+03</rscale>
<asrwt>0</asrwt>
<pdfrwt beam="1">  1       21 0.14517412E-01 0.46098438E+03</pdfrwt>
<pdfrwt beam="2">  1       21 0.79141705E-01 0.46098438E+03</pdfrwt>
<totfact> 0.53873560E+04</totfact>
</mgrwt>
</event>
<event>
 7    0  0.4779893E-002  0.4543426E+03  0.7546771E-02  0.1026435E+00
         21   -1    0    0  502  501  0.00000000000E+00  0.00000000000E+00  0.16997126187E+03  0.16997126187E+03  0.00000000000E+00 0.  1.
         21   -1    0    0  501  502 -0.00000000000E+00 -0.00000000000E+00 -0.30362078663E+03  0.30362078663E+03  0.00000000000E+00 0.  1.
      99926    2    1    2    0    0  0.00000000000E+00  0.00000000000E+00 -0.13364952476E+03  0.47359204850E+03  0.45434263825E+03 0.  0.
      99925    2    3    3    0    0 -0.99342515007E+02  0.47436037119E+02 -0.10789995451E+03  0.30498107206E+03  0.26315763570E+03 0.  0.
         25    1    4    4    0    0 -0.64157265202E+02 -0.12991365391E+02 -0.64720441087E+02  0.15530992836E+03  0.12509000000E+03 0.  0.
         25    1    3    3    0    0  0.99342515007E+02 -0.47436037119E+02 -0.25749570254E+02  0.16861097643E+03  0.12509000000E+03 0.  0.
         25    1    4    4    0    0 -0.35185249805E+02  0.60427402511E+02 -0.43179513422E+02  0.14967114370E+03  0.12509000000E+03 0.  0.
<mgrwt>
<rscale>  2 0.45434264E+03</rscale>
<asrwt>0</asrwt>
<pdfrwt beam="1">  1       21 0.24995774E-01 0.45434264E+03</pdfrwt>
<pdfrwt beam="2">  1       21 0.44650115E-01 0.45434264E+03</pdfrwt>
<totfact> 0.67521145E+04</totfact>
</mgrwt>
</event>
<event>
 7    0  0.4779893E-002  0.4341831E+03  0.7546771E-02  0.1032547E+00
         21   -1    0    0  502  501  0.00000000000E+00  0.00000000000E+00  0.72160447610E+03  0.72160447610E+03  0.00000000000E+00 0. -1.
         21   -1    0    0  501  502 -0.00000000000E+00 -0.00000000000E+00 -0.65311048753E+02  0.65311048753E+02  0.00000000000E+00 0. -1.
      99926    2    1    2    0    0 -0.88817841970E-15  0.00000000000E+00  0.65629342734E+03  0.78691552485E+03  0.43418311860E+03 0.  0.
      99925    2    3    3    0    0  0.54779504798E+01 -0.28544225319E+02  0.26342242636E+03  0.37358767404E+03  0.26330893404E+03 0.  0.
         25    1    3    3    0    0 -0.54779504798E+01  0.28544225319E+02  0.39287100098E+03  0.41332785081E+03  0.12509000000E+03 0.  0.
         25    1    4    4    0    0 -0.36530203524E+02 -0.22459844381E+02  0.11946343686E+03  0.17820752292E+03  0.12509000000E+03 0.  0.
         25    1    4    4    0    0  0.42008154004E+02 -0.60843809376E+01  0.14395898950E+03  0.19538015112E+03  0.12509000000E+03 0.  0.
<mgrwt>
<rscale>  2 0.43418312E+03</rscale>
<asrwt>0</asrwt>
<pdfrwt beam="1">  1       21 0.10611830E+00 0.43418312E+03</pdfrwt>
<pdfrwt beam="2">  1       21 0.96045664E-02 0.43418312E+03</pdfrwt>
<totfact> 0.57191804E+04</totfact>
</mgrwt>
</event>
<event>
 7    0  0.4779893E-002  0.4511016E+03  0.7546771E-02  0.1027394E+00
         21   -1    0    0  502  501  0.00000000000E+00  0.00000000000E+00  0.19575333214E+03  0.19575333214E+03  0.00000000000E+00 0. -1.
         21   -1    0    0  501  502 -0.00000000000E+00 -0.00000000000E+00 -0.25988400028E+03  0.25988400028E+03  0.00000000000E+00 0. -1.
      99926    2    1    2    0    0  0.00000000000E+00  0.00000000000E+00 -0.64130668140E+02  0.45563733243E+03  0.45110158070E+03 0.  0.
      99925    2    3    3    0    0  0.54487485130E+02 -0.78159516473E+02  0.14204333951E+02  0.27996241474E+03  0.26286763687E+03 0.  0.
         25    1    4    4    0    0  0.63667603864E+02 -0.60661301386E+02  0.10475067618E+02  0.15326640992E+03  0.12509000000E+03 0.  0.
         25    1    4    4    0    0 -0.91801187336E+01 -0.17498215087E+02  0.37292663329E+01  0.12669600482E+03  0.12509000000E+03 0.  0.
         25    1    3    3    0    0 -0.54487485130E+02  0.78159516473E+02 -0.78335002091E+02  0.17567491768E+03  0.12509000000E+03 0.  0.
<mgrwt>
<rscale>  2 0.45110158E+03</rscale>
<asrwt>0</asrwt>
<pdfrwt beam="1">  1       21 0.28787255E-01 0.45110158E+03</pdfrwt>
<pdfrwt beam="2">  1       21 0.38218235E-01 0.45110158E+03</pdfrwt>
<totfact> 0.70671356E+04</totfact>
</mgrwt>
</event>
<event>
 7    0  0.4779893E-002  0.4515717E+03  0.7546771E-02  0.1027254E+00
         21   -1    0    0  502  501  0.00000000000E+00  0.00000000000E+00  0.13633122539E+03  0.13633122539E+03  0.00000000000E+00 0. -1.
         21   -1    0    0  501  502 -0.00000000000E+00 -0.00000000000E+00 -0.37393668368E+03  0.37393668368E+03  0.00000000000E+00 0. -1.
      99926    2    1    2    0    0  0.00000000000E+00  0.88817841970E-15 -0.23760545829E+03  0.51026790907E+03  0.45157168337E+03 0.  0.
      99925    2    3    3    0    0  0.10462011579E+03  0.75555325608E+01 -0.18717951225E+03  0.33940908186E+03  0.26298269971E+03 0.  0.
         25    1    4    4    0    0  0.86339148408E+02 -0.18092570087E+02 -0.11619634609E+03  0.19217411008E+03  0.12509000000E+03 0.  0.
         25    1    3    3    0    0 -0.10462011579E+03 -0.75555325608E+01 -0.50425946034E+02  0.17085882721E+03  0.12509000000E+03 0.  0.
         25    1    4    4    0    0  0.18280967383E+02  0.25648102648E+02 -0.70983166162E+02  0.14723497178E+03  0.12509000000E+03 0.  0.
<mgrwt>
<rscale>  2 0.45157168E+03</rscale>
<asrwt>0</asrwt>
<pdfrwt beam="1">  1       21 0.20048710E-01 0.45157168E+03</pdfrwt>
<pdfrwt beam="2">  1       21 0.54990689E-01 0.45157168E+03</pdfrwt>
<totfact> 0.66341789E+04</totfact>
</mgrwt>
</event>
<event>
 7    0  0.4779893E-002  0.4413383E+03  0.7546771E-02  0.1030337E+00
         21   -1    0    0  502  501  0.00000000000E+00  0.00000000000E+00  0.40446656090E+03  0.40446656090E+03  0.00000000000E+00 0.  1.
         21   -1    0    0  501  502 -0.00000000000E+00 -0.00000000000E+00 -0.12039285195E+03  0.12039285195E+03  0.00000000000E+00 0.  1.
      99926    2    1    2    0    0  0.71054273576E-14 -0.35527136788E-14  0.28407370896E+03  0.52485941285E+03  0.44133834089E+03 0.  0.
      99925    2    3    3    0    0 -0.35099177548E+02 -0.31887638749E+02  0.76620407557E+02  0.27801299474E+03  0.26300525588E+03 0.  0.
         25    1    4    4    0    0 -0.33551695522E+02  0.13929608664E+02  0.61131030354E+02  0.14388975378E+03  0.12509000000E+03 0.  0.
         25    1    3    3    0    0  0.35099177548E+02  0.31887638749E+02  0.20745330140E+03  0.24684641811E+03  0.12509000000E+03 0.  0.
         25    1    4    4    0    0 -0.15474820257E+01 -0.45817247413E+02  0.15489377202E+02  0.13412324097E+03  0.12509000000E+03 0.  0.
<mgrwt>
<rscale>  2 0.44133834E+03</rscale>
<asrwt>0</asrwt>
<pdfrwt beam="1">  1       21 0.59480376E-01 0.44133834E+03</pdfrwt>
<pdfrwt beam="2">  1       21 0.17704831E-01 0.44133834E+03</pdfrwt>
<totfact> 0.70924319E+04</totfact>
</mgrwt>
</event>
<event>
 7    0  0.4779893E-002  0.4587875E+03  0.7546771E-02  0.1025133E+00
         21   -1    0    0  502  501  0.00000000000E+00  0.00000000000E+00  0.34283216820E+02  0.34283216820E+02  0.00000000000E+00 0. -1.
         21   -1    0    0  501  502 -0.00000000000E+00 -0.00000000000E+00 -0.15349053278E+04  0.15349053278E+04  0.00000000000E+00 0. -1.
      99926    2    1    2    0    0  0.14210854715E-13 -0.71054273576E-14 -0.15006221110E+04  0.15691885446E+04  0.45878749831E+03 0.  0.
      99925    2    3    3    0    0  0.10781656375E+03 -0.44638675958E+02 -0.94265767415E+03  0.98558864428E+03  0.26299137303E+03 0.  0.
         25    1    3    3    0    0 -0.10781656375E+03  0.44638675958E+02 -0.55796443686E+03  0.58359990037E+03  0.12509000000E+03 0.  0.
         25    1    4    4    0    0  0.82704201672E+02 -0.42365649660E+02 -0.43256101821E+03  0.45977317867E+03  0.12509000000E+03 0.  0.
         25    1    4    4    0    0  0.25112362083E+02 -0.22730262976E+01 -0.51009665594E+03  0.52581546561E+03  0.12509000000E+03 0.  0.
<mgrwt>
<rscale>  2 0.45878750E+03</rscale>
<asrwt>0</asrwt>
<pdfrwt beam="1">  1       21 0.50416492E-02 0.45878750E+03</pdfrwt>
<pdfrwt beam="2">  1       21 0.22572138E+00 0.45878750E+03</pdfrwt>
<totfact> 0.21494033E+04</totfact>
</mgrwt>
</event>
<event>
 7    0  0.4779893E-002  0.4572738E+03  0.7546771E-02  0.1025575E+00
         21   -1    0    0  502  501  0.00000000000E+00  0.00000000000E+00  0.11226891771E+04  0.11226891771E+04  0.00000000000E+00 0.  1.
         21   -1    0    0  501  502 -0.00000000000E+00 -0.00000000000E+00 -0.46562158558E+02  0.46562158558E+02  0.00000000000E+00 0.  1.
      99926    2    1    2    0    0  0.00000000000E+00  0.14210854715E-13  0.10761270185E+04  0.11692513356E+04  0.45727379752E+03 0.  0.
      99925    2    3    3    0    0  0.73218327969E+02  0.84082384976E+02  0.75076498814E+03  0.80327492939E+03  0.26300527325E+03 0.  0.
         25    1    4    4    0    0  0.27187734667E+02  0.20613856209E+02  0.44879305319E+03  0.46714753202E+03  0.12509000000E+03 0.  0.
         25    1    4    4    0    0  0.46030593302E+02  0.63468528767E+02  0.30197193495E+03  0.33612739737E+03  0.12509000000E+03 0.  0.
         25    1    3    3    0    0 -0.73218327969E+02 -0.84082384976E+02  0.32536203036E+03  0.36597640622E+03  0.12509000000E+03 0.  0.
<mgrwt>
<rscale>  2 0.45727380E+03</rscale>
<asrwt>0</asrwt>
<pdfrwt beam="1">  1       21 0.16510133E+00 0.45727380E+03</pdfrwt>
<pdfrwt beam="2">  1       21 0.68473770E-02 0.45727380E+03</pdfrwt>
<totfact> 0.32565247E+04</totfact>
</mgrwt>
</event>
<event>
 7    0  0.4779893E-002  0.4662177E+03  0.7546771E-02  0.1022993E+00
         21   -1    0    0  502  501  0.00000000000E+00  0.00000000000E+00  0.13082167034E+03  0.13082167034E+03  0.00000000000E+00 0.  1.
         21   -1    0    0  501  502 -0.00000000000E+00 -0.00000000000E+00 -0.41537261567E+03  0.41537261567E+03  0.00000000000E+00 0.  1.
      99926    2    1    2    0    0  0.00000000000E+00  0.71054273576E-14 -0.28455094533E+03  0.54619428600E+03  0.46621771478E+03 0.  0.
      99925    2    3    3    0    0  0.81489431546E+02  0.51375844138E+02 -0.84266255918E+02  0.29116199446E+03  0.26152342212E+03 0.  0.
         25    1    3    3    0    0 -0.81489431546E+02 -0.51375844138E+02 -0.20028468941E+03  0.25503229154E+03  0.12509000000E+03 0.  0.
         25    1    4    4    0    0  0.69418111495E+02  0.44835550574E+02 -0.24730244017E+02  0.15194799725E+03  0.12509000000E+03 0.  0.
         25    1    4    4    0    0  0.12071320051E+02  0.65402935646E+01 -0.59536011901E+02  0.13921399722E+03  0.12509000000E+03 0.  0.
<mgrwt>
<rscale>  2 0.46621771E+03</rscale>
<asrwt>0</asrwt>
<pdfrwt beam="1">  1       21 0.19238481E-01 0.46621771E+03</pdfrwt>
<pdfrwt beam="2">  1       21 0.61084208E-01 0.46621771E+03</pdfrwt>
<totfact> 0.56895158E+04</totfact>
</mgrwt>
</event>
<event>
 7    0  0.4779893E-002  0.4547485E+03  0.7546771E-02  0.1026315E+00
         21   -1    0    0  502  501  0.00000000000E+00  0.00000000000E+00  0.19668465580E+03  0.19668465580E+03  0.00000000000E+00 0.  1.
         21   -1    0    0  501  502 -0.00000000000E+00 -0.00000000000E+00 -0.26285244256E+03  0.26285244256E+03  0.00000000000E+00 0.  1.
      99926    2    1    2    0    0 -0.23314683517E-14 -0.17763568394E-14 -0.66167786755E+02  0.45953709836E+03  0.45474846758E+03 0.  0.
      99925    2    3    3    0    0 -0.86511577882E+00 -0.10115422659E+02 -0.15543760677E+03  0.30552515380E+03  0.26283397765E+03 0.  0.
         25    1    3    3    0    0  0.86511577882E+00  0.10115422659E+02  0.89269820013E+02  0.15401194456E+03  0.12509000000E+03 0.  0.
         25    1    4    4    0    0  0.25199460368E+02 -0.32068989740E+00 -0.41881418346E+02  0.13430069601E+03  0.12509000000E+03 0.  0.
         25    1    4    4    0    0 -0.26064576147E+02 -0.97947327617E+01 -0.11355618842E+03  0.17122445780E+03  0.12509000000E+03 0.  0.
<mgrwt>
<rscale>  2 0.45474847E+03</rscale>
<asrwt>0</asrwt>
<pdfrwt beam="1">  1       21 0.28924214E-01 0.45474847E+03</pdfrwt>
<pdfrwt beam="2">  1       21 0.38654771E-01 0.45474847E+03</pdfrwt>
<totfact> 0.68351326E+04</totfact>
</mgrwt>
</event>
<event>
 7    0  0.4779893E-002  0.4404703E+03  0.7546771E-02  0.1030603E+00
         21   -1    0    0  502  501  0.00000000000E+00  0.00000000000E+00  0.48678434060E+03  0.48678434060E+03  0.00000000000E+00 0.  1.
         21   -1    0    0  501  502 -0.00000000000E+00 -0.00000000000E+00 -0.99640655709E+02  0.99640655709E+02  0.00000000000E+00 0.  1.
      99926    2    1    2    0    0 -0.88817841970E-15  0.00000000000E+00  0.38714368489E+03  0.58642499631E+03  0.44047025273E+03 0.  0.
      99925    2    3    3    0    0  0.63325956134E+01 -0.18806476185E+02  0.11769691627E+03  0.28869549738E+03  0.26286639343E+03 0.  0.
         25    1    4    4    0    0 -0.15399790437E+01  0.20162836096E+02  0.87562988422E+02  0.15402498673E+03  0.12509000000E+03 0.  0.
         25    1    3    3    0    0 -0.63325956134E+01  0.18806476185E+02  0.26944676862E+03  0.29772949893E+03  0.12509000000E+03 0.  0.
         25    1    4    4    0    0  0.78725746571E+01 -0.38969312281E+02  0.30133927850E+02  0.13467051065E+03  0.12509000000E+03 0.  0.
<mgrwt>
<rscale>  2 0.44047025E+03</rscale>
<asrwt>0</asrwt>
<pdfrwt beam="1">  1       21 0.71585931E-01 0.44047025E+03</pdfrwt>
<pdfrwt beam="2">  1       21 0.14653038E-01 0.44047025E+03</pdfrwt>
<totfact> 0.66877433E+04</totfact>
</mgrwt>
</event>
<event>
 7    0  0.4779893E-002  0.4563493E+03  0.7546771E-02  0.1025845E+00
         21   -1    0    0  502  501  0.00000000000E+00  0.00000000000E+00  0.12744992814E+03  0.12744992814E+03  0.00000000000E+00 0. -1.
         21   -1    0    0  501  502 -0.00000000000E+00 -0.00000000000E+00 -0.40850289913E+03  0.40850289913E+03  0.00000000000E+00 0. -1.
      99926    2    1    2    0    0  0.00000000000E+00  0.00000000000E+00 -0.28105297099E+03  0.53595282727E+03  0.45634927474E+03 0.  0.
      99925    2    3    3    0    0 -0.38122641214E+02  0.36242710125E+02 -0.56920758493E+02  0.27394208972E+03  0.26274974018E+03 0.  0.
         25    1    3    3    0    0  0.38122641214E+02 -0.36242710125E+02 -0.22413221250E+03  0.26201073755E+03  0.12509000000E+03 0.  0.
         25    1    4    4    0    0 -0.45060641804E+02  0.47831642475E+02 -0.19244923885E+02  0.14260505831E+03  0.12509000000E+03 0.  0.
         25    1    4    4    0    0  0.69380005893E+01 -0.11588932350E+02 -0.37675834608E+02  0.13133703141E+03  0.12509000000E+03 0.  0.
<mgrwt>
<rscale>  2 0.45634927E+03</rscale>
<asrwt>0</asrwt>
<pdfrwt beam="1">  1       21 0.18742637E-01 0.45634927E+03</pdfrwt>
<pdfrwt beam="2">  1       21 0.60073955E-01 0.45634927E+03</pdfrwt>
<totfact> 0.62138140E+04</totfact>
</mgrwt>
</event>
<event>
 7    0  0.4779893E-002  0.4402726E+03  0.7546771E-02  0.1030663E+00
         21   -1    0    0  502  501  0.00000000000E+00  0.00000000000E+00  0.34890626539E+02  0.34890626539E+02  0.00000000000E+00 0.  1.
         21   -1    0    0  501  502 -0.00000000000E+00 -0.00000000000E+00 -0.13889116307E+04  0.13889116307E+04  0.00000000000E+00 0.  1.
      99926    2    1    2    0    0 -0.14210854715E-13 -0.71054273576E-14 -0.13540210042E+04  0.14238022572E+04  0.44027262918E+03 0.  0.
      99925    2    3    3    0    0 -0.88702972297E+02 -0.42247292838E+02 -0.83274212616E+03  0.87879562628E+03  0.26300048104E+03 0.  0.
         25    1    4    4    0    0 -0.79947592480E+02 -0.33158735537E+02 -0.51796733930E+03  0.53984145076E+03  0.12509000000E+03 0.  0.
         25    1    4    4    0    0 -0.87553798167E+01 -0.90885573016E+01 -0.31477478687E+03  0.33895417551E+03  0.12509000000E+03 0.  0.
         25    1    3    3    0    0  0.88702972297E+02  0.42247292838E+02 -0.52127887799E+03  0.54500663096E+03  0.12509000000E+03 0.  0.
<mgrwt>
<rscale>  2 0.44027263E+03</rscale>
<asrwt>0</asrwt>
<pdfrwt beam="1">  1       21 0.51309736E-02 0.44027263E+03</pdfrwt>
<pdfrwt beam="2">  1       21 0.20425174E+00 0.44027263E+03</pdfrwt>
<totfact> 0.28869789E+04</totfact>
</mgrwt>
</event>
<event>
 7    0  0.4779893E-002  0.4611289E+03  0.7546771E-02  0.1024454E+00
         21   -1    0    0  502  501  0.00000000000E+00  0.00000000000E+00  0.11607413123E+04  0.11607413123E+04  0.00000000000E+00 0.  1.
         21   -1    0    0  501  502 -0.00000000000E+00 -0.00000000000E+00 -0.45798292176E+02  0.45798292176E+02  0.00000000000E+00 0.  1.
      99926    2    1    2    0    0 -0.88817841970E-15  0.00000000000E+00  0.11149430201E+04  0.12065396044E+04  0.46112891803E+03 0.  0.
      99925    2    3    3    0    0  0.70645093409E+01 -0.40848843560E+02  0.40643992588E+03  0.48588526433E+03  0.26300673268E+03 0.  0.
         25    1    3    3    0    0 -0.70645093409E+01  0.40848843560E+02  0.70850309422E+03  0.72065434012E+03  0.12509000000E+03 0.  0.
         25    1    4    4    0    0  0.48906996782E+01  0.18298081662E+02  0.16977605033E+03  0.21173132527E+03  0.12509000000E+03 0.  0.
         25    1    4    4    0    0  0.21738096628E+01 -0.59146925222E+02  0.23666387555E+03  0.27415393906E+03  0.12509000000E+03 0.  0.
<mgrwt>
<rscale>  2 0.46112892E+03</rscale>
<asrwt>0</asrwt>
<pdfrwt beam="1">  1       21 0.17069723E+00 0.46112892E+03</pdfrwt>
<pdfrwt beam="2">  1       21 0.67350437E-02 0.46112892E+03</pdfrwt>
<totfact> 0.30468567E+04</totfact>
</mgrwt>
</event>
<event>
 7    0  0.4779893E-002  0.4596019E+03  0.7546771E-02  0.1024897E+00
         21   -1    0    0  502  501  0.00000000000E+00  0.00000000000E+00  0.22579096601E+04  0.22579096601E+04  0.00000000000E+00 0.  1.
         21   -1    0    0  501  502 -0.00000000000E+00 -0.00000000000E+00 -0.23388219298E+02  0.23388219298E+02  0.00000000000E+00 0.  1.
      99926    2    1    2    0    0  0.00000000000E+00  0.00000000000E+00  0.22345214408E+04  0.22812978794E+04  0.45960194206E+03 0.  0.
      99925    2    3    3    0    0  0.10134452438E+03  0.44847546981E+02  0.15937474259E+04  0.16190888026E+04  0.26293664279E+03 0.  0.
         25    1    3    3    0    0 -0.10134452438E+03 -0.44847546981E+02  0.64077401494E+03  0.66220907681E+03  0.12509000000E+03 0.  0.
         25    1    4    4    0    0  0.12614886878E+02  0.81031116954E+01  0.79515478035E+03  0.80507355477E+03  0.12509000000E+03 0.  0.
         25    1    4    4    0    0  0.88729637502E+02  0.36744435286E+02  0.79859264556E+03  0.81401524785E+03  0.12509000000E+03 0.  0.
<mgrwt>
<rscale>  2 0.45960194E+03</rscale>
<asrwt>0</asrwt>
<pdfrwt beam="1">  1       21 0.33204539E+00 0.45960194E+03</pdfrwt>
<pdfrwt beam="2">  1       21 0.34394456E-02 0.45960194E+03</pdfrwt>
<totfact> 0.92997403E+03</totfact>
</mgrwt>
</event>
<event>
 7    0  0.4779893E-002  0.4283470E+03  0.7546771E-02  0.1034383E+00
         21   -1    0    0  502  501  0.00000000000E+00  0.00000000000E+00  0.78804066516E+02  0.78804066516E+02  0.00000000000E+00 0. -1.
         21   -1    0    0  501  502 -0.00000000000E+00 -0.00000000000E+00 -0.58208012532E+03  0.58208012532E+03  0.00000000000E+00 0. -1.
      99926    2    1    2    0    0  0.00000000000E+00  0.00000000000E+00 -0.50327605880E+03  0.66088419183E+03  0.42834696643E+03 0.  0.
      99925    2    3    3    0    0 -0.62587707212E+02 -0.11220223429E+02 -0.41399514728E+03  0.49456611173E+03  0.26298392040E+03 0.  0.
         25    1    4    4    0    0 -0.68712079774E+02  0.11500146250E+02 -0.21259482658E+03  0.25631557046E+03  0.12509000000E+03 0.  0.
         25    1    4    4    0    0  0.61243725628E+01 -0.22720369679E+02 -0.20140032070E+03  0.23825054127E+03  0.12509000000E+03 0.  0.
         25    1    3    3    0    0  0.62587707212E+02  0.11220223429E+02 -0.89280911521E+02  0.16631808011E+03  0.12509000000E+03 0.  0.
<mgrwt>
<rscale>  2 0.42834697E+03</rscale>
<asrwt>0</asrwt>
<pdfrwt beam="1">  1       21 0.11588833E-01 0.42834697E+03</pdfrwt>
<pdfrwt beam="2">  1       21 0.85600019E-01 0.42834697E+03</pdfrwt>
<totfact> 0.68338689E+04</totfact>
</mgrwt>
</event>
<event>
 7    0  0.4779893E-002  0.4285652E+03  0.7546771E-02  0.1034314E+00
         21   -1    0    0  502  501  0.00000000000E+00  0.00000000000E+00  0.32964403661E+03  0.32964403661E+03  0.00000000000E+00 0. -1.
         21   -1    0    0  501  502 -0.00000000000E+00 -0.00000000000E+00 -0.13929277388E+03  0.13929277388E+03  0.00000000000E+00 0. -1.
      99926    2    1    2    0    0  0.00000000000E+00  0.00000000000E+00  0.19035126272E+03  0.46893681049E+03  0.42856519808E+03 0.  0.
      99925    2    3    3    0    0 -0.76237909972E+02 -0.11772846322E+01  0.80316327827E+02  0.28571890767E+03  0.26338370634E+03 0.  0.
         25    1    4    4    0    0 -0.26784961937E+02  0.24384859310E+01 -0.20255267594E+01  0.12796480476E+03  0.12509000000E+03 0.  0.
         25    1    3    3    0    0  0.76237909972E+02  0.11772846322E+01  0.11003493490E+03  0.18321790282E+03  0.12509000000E+03 0.  0.
         25    1    4    4    0    0 -0.49452948035E+02 -0.36157705632E+01  0.82341854586E+02  0.15775410290E+03  0.12509000000E+03 0.  0.
<mgrwt>
<rscale>  2 0.42856520E+03</rscale>
<asrwt>0</asrwt>
<pdfrwt beam="1">  1       21 0.48477064E-01 0.42856520E+03</pdfrwt>
<pdfrwt beam="2">  1       21 0.20484231E-01 0.42856520E+03</pdfrwt>
<totfact> 0.83757546E+04</totfact>
</mgrwt>
</event>
<event>
 7    0  0.4779893E-002  0.4615995E+03  0.7546771E-02  0.1024318E+00
         21   -1    0    0  502  501  0.00000000000E+00  0.00000000000E+00  0.17828496221E+03  0.17828496221E+03  0.00000000000E+00 0. -1.
         21   -1    0    0  501  502 -0.00000000000E+00 -0.00000000000E+00 -0.29878305127E+03  0.29878305127E+03  0.00000000000E+00 0. -1.
      99926    2    1    2    0    0  0.00000000000E+00 -0.44408920985E-14 -0.12049808905E+03  0.47706801348E+03  0.46159950176E+03 0.  0.
      99925    2    3    3    0    0  0.94713042552E+02  0.53635832009E+01 -0.65663453124E+00  0.27956153061E+03  0.26297317311E+03 0.  0.
         25    1    4    4    0    0  0.41592077377E+02  0.32176041681E+02 -0.27528052059E+02  0.13845757585E+03  0.12509000000E+03 0.  0.
         25    1    4    4    0    0  0.53120965175E+02 -0.26812458480E+02  0.26871417528E+02  0.14110395477E+03  0.12509000000E+03 0.  0.
         25    1    3    3    0    0 -0.94713042552E+02 -0.53635832009E+01 -0.11984145452E+03  0.19750648287E+03  0.12509000000E+03 0.  0.
<mgrwt>
<rscale>  2 0.46159950E+03</rscale>
<asrwt>0</asrwt>
<pdfrwt beam="1">  1       21 0.26218377E-01 0.46159950E+03</pdfrwt>
<pdfrwt beam="2">  1       21 0.43938684E-01 0.46159950E+03</pdfrwt>
<totfact> 0.63522003E+04</totfact>
</mgrwt>
</event>
<event>
 7    0  0.4779893E-002  0.4504657E+03  0.7546771E-02  0.1027583E+00
         21   -1    0    0  502  501  0.00000000000E+00  0.00000000000E+00  0.38024735480E+03  0.38024735480E+03  0.00000000000E+00 0. -1.
         21   -1    0    0  501  502 -0.00000000000E+00 -0.00000000000E+00 -0.13341273805E+03  0.13341273805E+03  0.00000000000E+00 0. -1.
      99926    2    1    2    0    0  0.00000000000E+00  0.14210854715E-13  0.24683461675E+03  0.51366009286E+03  0.45046571786E+03 0.  0.
      99925    2    3    3    0    0 -0.81619790370E+01 -0.10739199191E+03  0.17423726060E+03  0.33333388276E+03  0.26296995377E+03 0.  0.
         25    1    4    4    0    0 -0.38063000404E+02 -0.76548989162E+02  0.10180258015E+03  0.18253715558E+03  0.12509000000E+03 0.  0.
         25    1    3    3    0    0  0.81619790370E+01  0.10739199191E+03  0.72597356150E+02  0.18032621010E+03  0.12509000000E+03 0.  0.
         25    1    4    4    0    0  0.29901021367E+02 -0.30843002745E+02  0.72434680455E+02  0.15079672719E+03  0.12509000000E+03 0.  0.
<mgrwt>
<rscale>  2 0.45046572E+03</rscale>
<asrwt>0</asrwt>
<pdfrwt beam="1">  1       21 0.55918728E-01 0.45046572E+03</pdfrwt>
<pdfrwt beam="2">  1       21 0.19619520E-01 0.45046572E+03</pdfrwt>
<totfact> 0.66688503E+04</totfact>
</mgrwt>
</event>
<event>
 7    0  0.4779893E-002  0.4546651E+03  0.7546771E-02  0.1026340E+00
         21   -1    0    0  502  501  0.00000000000E+00  0.00000000000E+00  0.31402213840E+03  0.31402213840E+03  0.00000000000E+00 0. -1.
         21   -1    0    0  501  502 -0.00000000000E+00 -0.00000000000E+00 -0.16457466005E+03  0.16457466005E+03  0.00000000000E+00 0. -1.
      99926    2    1    2    0    0  0.00000000000E+00  0.31086244690E-14  0.14944747835E+03  0.47859679846E+03  0.45466509291E+03 0.  0.
      99925    2    3    3    0    0  0.39725913813E+02 -0.37528287619E+01  0.20517482520E+03  0.33595992651E+03  0.26302116146E+03 0.  0.
         25    1    3    3    0    0 -0.39725913813E+02  0.37528287619E+01 -0.55727346849E+02  0.14263687195E+03  0.12509000000E+03 0.  0.
         25    1    4    4    0    0  0.45172687500E+02  0.24279204251E+02  0.82122307099E+02  0.15818227738E+03  0.12509000000E+03 0.  0.
         25    1    4    4    0    0 -0.54467736876E+01 -0.28032033012E+02  0.12305251810E+03  0.17777764912E+03  0.12509000000E+03 0.  0.
<mgrwt>
<rscale>  2 0.45466509E+03</rscale>
<asrwt>0</asrwt>
<pdfrwt beam="1">  1       21 0.46179726E-01 0.45466509E+03</pdfrwt>
<pdfrwt beam="2">  1       21 0.24202156E-01 0.45466509E+03</pdfrwt>
<totfact> 0.66980250E+04</totfact>
</mgrwt>
</event>
<event>
 7    0  0.4779893E-002  0.4563527E+03  0.7546771E-02  0.1025844E+00
         21   -1    0    0  502  501  0.00000000000E+00  0.00000000000E+00  0.12452760006E+03  0.12452760006E+03  0.00000000000E+00 0.  1.
         21   -1    0    0  501  502 -0.00000000000E+00 -0.00000000000E+00 -0.41809556495E+03  0.41809556495E+03  0.00000000000E+00 0.  1.
      99926    2    1    2    0    0  0.17763568394E-14  0.00000000000E+00 -0.29356796490E+03  0.54262316501E+03  0.45635265880E+03 0.  0.
      99925    2    3    3    0    0  0.11869942891E+02  0.11026720970E+03 -0.15105538344E+03  0.32294818452E+03  0.26301720084E+03 0.  0.
         25    1    4    4    0    0  0.25126457224E+02  0.88845276364E+02 -0.62188504419E+02  0.16745070966E+03  0.12509000000E+03 0.  0.
         25    1    3    3    0    0 -0.11869942891E+02 -0.11026720970E+03 -0.14251258146E+03  0.21967498049E+03  0.12509000000E+03 0.  0.
         25    1    4    4    0    0 -0.13256514332E+02  0.21421933337E+02 -0.88866879020E+02  0.15549747486E+03  0.12509000000E+03 0.  0.
<mgrwt>
<rscale>  2 0.45635266E+03</rscale>
<asrwt>0</asrwt>
<pdfrwt beam="1">  1       21 0.18312883E-01 0.45635266E+03</pdfrwt>
<pdfrwt beam="2">  1       21 0.61484641E-01 0.45635266E+03</pdfrwt>
<totfact> 0.61693593E+04</totfact>
</mgrwt>
</event>
<event>
 7    0  0.4779893E-002  0.4561365E+03  0.7546771E-02  0.1025908E+00
         21   -1    0    0  502  501  0.00000000000E+00  0.00000000000E+00  0.10054176122E+03  0.10054176122E+03  0.00000000000E+00 0.  1.
         21   -1    0    0  501  502 -0.00000000000E+00 -0.00000000000E+00 -0.51734855510E+03  0.51734855510E+03  0.00000000000E+00 0.  1.
      99926    2    1    2    0    0  0.14210854715E-13 -0.71054273576E-14 -0.41680679388E+03  0.61789031633E+03  0.45613653613E+03 0.  0.
      99925    2    3    3    0    0 -0.75591620942E+02  0.32046702663E+02 -0.36954926711E+03  0.46097675336E+03  0.26304338427E+03 0.  0.
         25    1    3    3    0    0  0.75591620942E+02 -0.32046702663E+02 -0.47257526771E+02  0.15691356297E+03  0.12509000000E+03 0.  0.
         25    1    4    4    0    0 -0.58271609411E+02  0.52396324486E+02 -0.20178013443E+03  0.25000737196E+03  0.12509000000E+03 0.  0.
         25    1    4    4    0    0 -0.17320011531E+02 -0.20349621824E+02 -0.16776913268E+03  0.21096938140E+03  0.12509000000E+03 0.  0.
<mgrwt>
<rscale>  2 0.45613654E+03</rscale>
<asrwt>0</asrwt>
<pdfrwt beam="1">  1       21 0.14785553E-01 0.45613654E+03</pdfrwt>
<pdfrwt beam="2">  1       21 0.76080670E-01 0.45613654E+03</pdfrwt>
<totfact> 0.57076362E+04</totfact>
</mgrwt>
</event>
<event>
 7    0  0.4779893E-002  0.4562738E+03  0.7546771E-02  0.1025867E+00
         21   -1    0    0  502  501  0.00000000000E+00  0.00000000000E+00  0.31428224251E+02  0.31428224251E+02  0.00000000000E+00 0.  1.
         21   -1    0    0  501  502 -0.00000000000E+00 -0.00000000000E+00 -0.16560412197E+04  0.16560412197E+04  0.00000000000E+00 0.  1.
      99926    2    1    2    0    0  0.00000000000E+00  0.00000000000E+00 -0.16246129955E+04  0.16874694440E+04  0.45627375477E+03 0.  0.
      99925    2    3    3    0    0 -0.23778022565E+02  0.33033624677E+02 -0.62584751605E+03  0.68007845449E+03  0.26299235007E+03 0.  0.
         25    1    4    4    0    0  0.15368759852E+02 -0.11936199035E+02 -0.32766493657E+03  0.35126982561E+03  0.12509000000E+03 0.  0.
         25    1    3    3    0    0  0.23778022565E+02 -0.33033624677E+02 -0.99876547944E+03  0.10073909895E+04  0.12509000000E+03 0.  0.
         25    1    4    4    0    0 -0.39146782417E+02  0.44969823713E+02 -0.29818257948E+03  0.32880862888E+03  0.12509000000E+03 0.  0.
<mgrwt>
<rscale>  2 0.45627375E+03</rscale>
<asrwt>0</asrwt>
<pdfrwt beam="1">  1       21 0.46217975E-02 0.45627375E+03</pdfrwt>
<pdfrwt beam="2">  1       21 0.24353548E+00 0.45627375E+03</pdfrwt>
<totfact> 0.19331655E+04</totfact>
</mgrwt>
</event>
<event>
 7    0  0.4779893E-002  0.4583828E+03  0.7546771E-02  0.1025251E+00
         21   -1    0    0  502  501  0.00000000000E+00  0.00000000000E+00  0.18639683877E+03  0.18639683877E+03  0.00000000000E+00 0. -1.
         21   -1    0    0  501  502 -0.00000000000E+00 -0.00000000000E+00 -0.28181110386E+03  0.28181110386E+03  0.00000000000E+00 0. -1.
      99926    2    1    2    0    0  0.00000000000E+00 -0.35527136788E-14 -0.95414265090E+02  0.46820794263E+03  0.45838280461E+03 0.  0.
      99925    2    3    3    0    0  0.99698534817E+02 -0.86077334068E+01  0.79660351470E+00  0.28134454264E+03  0.26294529122E+03 0.  0.
         25    1    3    3    0    0 -0.99698534817E+02  0.86077334068E+01 -0.96210868605E+02  0.18686339999E+03  0.12509000000E+03 0.  0.
         25    1    4    4    0    0  0.55836301702E+02 -0.40814108476E+02 -0.16301720753E+02  0.14386360985E+03  0.12509000000E+03 0.  0.
         25    1    4    4    0    0  0.43862233115E+02  0.32206375069E+02  0.17098324268E+02  0.13748093279E+03  0.12509000000E+03 0.  0.
<mgrwt>
<rscale>  2 0.45838280E+03</rscale>
<asrwt>0</asrwt>
<pdfrwt beam="1">  1       21 0.27411300E-01 0.45838280E+03</pdfrwt>
<pdfrwt beam="2">  1       21 0.41442809E-01 0.45838280E+03</pdfrwt>
<totfact> 0.65785944E+04</totfact>
</mgrwt>
</event>
<event>
 7    0  0.4779893E-002  0.4682607E+03  0.7546771E-02  0.1022412E+00
         21   -1    0    0  502  501  0.00000000000E+00  0.00000000000E+00  0.89408573088E+03  0.89408573088E+03  0.00000000000E+00 0.  1.
         21   -1    0    0  501  502 -0.00000000000E+00 -0.00000000000E+00 -0.61310688059E+02  0.61310688059E+02  0.00000000000E+00 0.  1.
      99926    2    1    2    0    0 -0.71054273576E-14  0.14210854715E-13  0.83277504282E+03  0.95539641894E+03  0.46826065965E+03 0.  0.
      99925    2    3    3    0    0  0.20347026789E+02 -0.83175931847E+02  0.33150933985E+03  0.43171039639E+03  0.26295092091E+03 0.  0.
         25    1    3    3    0    0 -0.20347026789E+02  0.83175931847E+02  0.50126570297E+03  0.52368602254E+03  0.12509000000E+03 0.  0.
         25    1    4    4    0    0  0.47647594549E+02 -0.58482209771E+02  0.17021241286E+03  0.22429943317E+03  0.12509000000E+03 0.  0.
         25    1    4    4    0    0 -0.27300567760E+02 -0.24693722076E+02  0.16129692699E+03  0.20741096323E+03  0.12509000000E+03 0.  0.
<mgrwt>
<rscale>  2 0.46826066E+03</rscale>
<asrwt>0</asrwt>
<pdfrwt beam="1">  1       21 0.13148319E+00 0.46826066E+03</pdfrwt>
<pdfrwt beam="2">  1       21 0.90162782E-02 0.46826066E+03</pdfrwt>
<totfact> 0.36940655E+04</totfact>
</mgrwt>
</event>
<event>
 7    0  0.4779893E-002  0.4529153E+03  0.7546771E-02  0.1026856E+00
         21   -1    0    0  502  501  0.00000000000E+00  0.00000000000E+00  0.62127772716E+02  0.62127772716E+02  0.00000000000E+00 0. -1.
         21   -1    0    0  501  502 -0.00000000000E+00 -0.00000000000E+00 -0.82544501630E+03  0.82544501630E+03  0.00000000000E+00 0. -1.
      99926    2    1    2    0    0  0.00000000000E+00  0.00000000000E+00 -0.76331724358E+03  0.88757278902E+03  0.45291526961E+03 0.  0.
      99925    2    3    3    0    0 -0.91827852086E+02  0.56005300252E+02 -0.53571042685E+03  0.60646547997E+03  0.26314590798E+03 0.  0.
         25    1    4    4    0    0 -0.71099273493E+02  0.52594692766E+02 -0.34428137585E+03  0.37682685979E+03  0.12509000000E+03 0.  0.
         25    1    3    3    0    0  0.91827852086E+02 -0.56005300252E+02 -0.22760681673E+03  0.28110730905E+03  0.12509000000E+03 0.  0.
         25    1    4    4    0    0 -0.20728578593E+02  0.34106074851E+01 -0.19142905100E+03  0.22963862019E+03  0.12509000000E+03 0.  0.
<mgrwt>
<rscale>  2 0.45291527E+03</rscale>
<asrwt>0</asrwt>
<pdfrwt beam="1">  1       21 0.91364369E-02 0.45291527E+03</pdfrwt>
<pdfrwt beam="2">  1       21 0.12138898E+00 0.45291527E+03</pdfrwt>
<totfact> 0.44497366E+04</totfact>
</mgrwt>
</event>
<event>
 7    0  0.4779893E-002  0.4543235E+03  0.7546771E-02  0.1026441E+00
         21   -1    0    0  502  501  0.00000000000E+00  0.00000000000E+00  0.25179476109E+03  0.25179476109E+03  0.00000000000E+00 0. -1.
         21   -1    0    0  501  502 -0.00000000000E+00 -0.00000000000E+00 -0.20493859582E+03  0.20493859582E+03  0.00000000000E+00 0. -1.
      99926    2    1    2    0    0 -0.14210854715E-13  0.00000000000E+00  0.46856165270E+02  0.45673335691E+03  0.45432351809E+03 0.  0.
      99925    2    3    3    0    0  0.10102612769E+03  0.49463716284E+02  0.31192814894E+02  0.28777837371E+03  0.26304080095E+03 0.  0.
         25    1    4    4    0    0  0.64112311874E+02  0.54582717935E+01  0.49056623464E+02  0.14897731932E+03  0.12509000000E+03 0.  0.
         25    1    3    3    0    0 -0.10102612769E+03 -0.49463716284E+02  0.15663350376E+02  0.16895498321E+03  0.12509000000E+03 0.  0.
         25    1    4    4    0    0  0.36913815820E+02  0.44005444491E+02 -0.17863808570E+02  0.13880105439E+03  0.12509000000E+03 0.  0.
<mgrwt>
<rscale>  2 0.45432352E+03</rscale>
<asrwt>0</asrwt>
<pdfrwt beam="1">  1       21 0.37028641E-01 0.45432352E+03</pdfrwt>
<pdfrwt beam="2">  1       21 0.30138029E-01 0.45432352E+03</pdfrwt>
<totfact> 0.68789504E+04</totfact>
</mgrwt>
</event>
<event>
 7    0  0.4779893E-002  0.4473030E+03  0.7546771E-02  0.1028529E+00
         21   -1    0    0  502  501  0.00000000000E+00  0.00000000000E+00  0.94037236796E+03  0.94037236796E+03  0.00000000000E+00 0.  1.
         21   -1    0    0  501  502 -0.00000000000E+00 -0.00000000000E+00 -0.53191695224E+02  0.53191695224E+02  0.00000000000E+00 0.  1.
      99926    2    1    2    0    0  0.00000000000E+00  0.00000000000E+00  0.88718067274E+03  0.99356406318E+03  0.44730303104E+03 0.  0.
      99925    2    3    3    0    0  0.48374666270E+02  0.69012097352E+02  0.70395099289E+03  0.75623854498E+03  0.26314816852E+03 0.  0.
         25    1    4    4    0    0  0.21470602074E+00  0.45812879233E+02  0.26352058530E+03  0.29527863617E+03  0.12509000000E+03 0.  0.
         25    1    4    4    0    0  0.48159960249E+02  0.23199218118E+02  0.44043040759E+03  0.46095990881E+03  0.12509000000E+03 0.  0.
         25    1    3    3    0    0 -0.48374666270E+02 -0.69012097352E+02  0.18322967984E+03  0.23732551821E+03  0.12509000000E+03 0.  0.
<mgrwt>
<rscale>  2 0.44730303E+03</rscale>
<asrwt>0</asrwt>
<pdfrwt beam="1">  1       21 0.13829004E+00 0.44730303E+03</pdfrwt>
<pdfrwt beam="2">  1       21 0.78223087E-02 0.44730303E+03</pdfrwt>
<totfact> 0.41879611E+04</totfact>
</mgrwt>
</event>
<event>
 7    0  0.4779893E-002  0.4484042E+03  0.7546771E-02  0.1028199E+00
         21   -1    0    0  502  501  0.00000000000E+00  0.00000000000E+00  0.31135987165E+03  0.31135987165E+03  0.00000000000E+00 0.  1.
         21   -1    0    0  501  502 -0.00000000000E+00 -0.00000000000E+00 -0.16144204464E+03  0.16144204464E+03  0.00000000000E+00 0.  1.
      99926    2    1    2    0    0  0.00000000000E+00  0.00000000000E+00  0.14991782701E+03  0.47280191629E+03  0.44840416723E+03 0.  0.
      99925    2    3    3    0    0  0.41223258849E+02  0.69727284683E+02  0.21392053232E+02  0.27600853753E+03  0.26298639042E+03 0.  0.
         25    1    4    4    0    0  0.13965815335E+02  0.66545131904E+02  0.36706698380E+02  0.14703124969E+03  0.12509000000E+03 0.  0.
         25    1    3    3    0    0 -0.41223258849E+02 -0.69727284683E+02  0.12852577378E+03  0.19679337876E+03  0.12509000000E+03 0.  0.
         25    1    4    4    0    0  0.27257443514E+02  0.31821527798E+01 -0.15314645148E+02  0.12897728784E+03  0.12509000000E+03 0.  0.
<mgrwt>
<rscale>  2 0.44840417E+03</rscale>
<asrwt>0</asrwt>
<pdfrwt beam="1">  1       21 0.45788217E-01 0.44840417E+03</pdfrwt>
<pdfrwt beam="2">  1       21 0.23741477E-01 0.44840417E+03</pdfrwt>
<totfact> 0.70865509E+04</totfact>
</mgrwt>
</event>
<event>
 7    0  0.4779893E-002  0.4553859E+03  0.7546771E-02  0.1026128E+00
         21   -1    0    0  502  501  0.00000000000E+00  0.00000000000E+00  0.18079326601E+03  0.18079326601E+03  0.00000000000E+00 0.  1.
         21   -1    0    0  501  502 -0.00000000000E+00 -0.00000000000E+00 -0.28675893918E+03  0.28675893918E+03  0.00000000000E+00 0.  1.
      99926    2    1    2    0    0  0.00000000000E+00  0.00000000000E+00 -0.10596567317E+03  0.46755220519E+03  0.45538592500E+03 0.  0.
      99925    2    3    3    0    0  0.72895742281E+02  0.86878085070E+02 -0.69357391347E+02  0.29478280597E+03  0.26310618399E+03 0.  0.
         25    1    4    4    0    0  0.77036355795E+02  0.36755120381E+02 -0.30557712215E+02  0.15448890207E+03  0.12509000000E+03 0.  0.
         25    1    4    4    0    0 -0.41406135145E+01  0.50122964689E+02 -0.38799679132E+02  0.14029390390E+03  0.12509000000E+03 0.  0.
         25    1    3    3    0    0 -0.72895742281E+02 -0.86878085070E+02 -0.36608281819E+02  0.17276939922E+03  0.12509000000E+03 0.  0.
<mgrwt>
<rscale>  2 0.45538592E+03</rscale>
<asrwt>0</asrwt>
<pdfrwt beam="1">  1       21 0.26587245E-01 0.45538592E+03</pdfrwt>
<pdfrwt beam="2">  1       21 0.42170432E-01 0.45538592E+03</pdfrwt>
<totfact> 0.67411823E+04</totfact>
</mgrwt>
</event>
<event>
 7    0  0.4779893E-002  0.4571473E+03  0.7546771E-02  0.1025612E+00
         21   -1    0    0  502  501  0.00000000000E+00  0.00000000000E+00  0.80727153226E+03  0.80727153226E+03  0.00000000000E+00 0.  1.
         21   -1    0    0  501  502 -0.00000000000E+00 -0.00000000000E+00 -0.64719132626E+02  0.64719132626E+02  0.00000000000E+00 0.  1.
      99926    2    1    2    0    0  0.00000000000E+00  0.00000000000E+00  0.74255239963E+03  0.87199066489E+03  0.45714729951E+03 0.  0.
      99925    2    3    3    0    0  0.16039227734E+02 -0.64873623753E+02  0.28734293801E+03  0.39520034835E+03  0.26296674206E+03 0.  0.
         25    1    4    4    0    0 -0.31333209602E+01 -0.72289637993E+02  0.15674958900E+03  0.21319838464E+03  0.12509000000E+03 0.  0.
         25    1    3    3    0    0 -0.16039227734E+02  0.64873623753E+02  0.45520946163E+03  0.47679031653E+03  0.12509000000E+03 0.  0.
         25    1    4    4    0    0  0.19172548694E+02  0.74160142396E+01  0.13059334901E+03  0.18200196371E+03  0.12509000000E+03 0.  0.
<mgrwt>
<rscale>  2 0.45714730E+03</rscale>
<asrwt>0</asrwt>
<pdfrwt beam="1">  1       21 0.11871640E+00 0.45714730E+03</pdfrwt>
<pdfrwt beam="2">  1       21 0.95175200E-02 0.45714730E+03</pdfrwt>
<totfact> 0.43726766E+04</totfact>
</mgrwt>
</event>
<event>
 7    0  0.4779893E-002  0.4495169E+03  0.7546771E-02  0.1027866E+00
         21   -1    0    0  502  501  0.00000000000E+00  0.00000000000E+00  0.34985814366E+03  0.34985814366E+03  0.00000000000E+00 0.  1.
         21   -1    0    0  501  502 -0.00000000000E+00 -0.00000000000E+00 -0.14439100444E+03  0.14439100444E+03  0.00000000000E+00 0.  1.
      99926    2    1    2    0    0  0.71054273576E-14  0.00000000000E+00  0.20546713923E+03  0.49424914810E+03  0.44951693527E+03 0.  0.
      99925    2    3    3    0    0  0.49702555108E+02  0.31628525298E+02  0.30488553766E+02  0.27123407895E+03  0.26299746401E+03 0.  0.
         25    1    4    4    0    0 -0.16162632494E+02  0.12003318098E+02  0.10863920217E+02  0.12716463029E+03  0.12509000000E+03 0.  0.
         25    1    3    3    0    0 -0.49702555108E+02 -0.31628525298E+02  0.17497858546E+03  0.22301506915E+03  0.12509000000E+03 0.  0.
         25    1    4    4    0    0  0.65865187601E+02  0.19625207200E+02  0.19624633548E+02  0.14406944866E+03  0.12509000000E+03 0.  0.
<mgrwt>
<rscale>  2 0.44951694E+03</rscale>
<asrwt>0</asrwt>
<pdfrwt beam="1">  1       21 0.51449727E-01 0.44951694E+03</pdfrwt>
<pdfrwt beam="2">  1       21 0.21233971E-01 0.44951694E+03</pdfrwt>
<totfact> 0.68614865E+04</totfact>
</mgrwt>
</event>
<event>
 7    0  0.4779893E-002  0.4572506E+03  0.7546771E-02  0.1025582E+00
         21   -1    0    0  502  501  0.00000000000E+00  0.00000000000E+00  0.90299593812E+02  0.90299593812E+02  0.00000000000E+00 0. -1.
         21   -1    0    0  501  502 -0.00000000000E+00 -0.00000000000E+00 -0.57884563055E+03  0.57884563055E+03  0.00000000000E+00 0. -1.
      99926    2    1    2    0    0  0.14210854715E-13  0.71054273576E-14 -0.48854603673E+03  0.66914522436E+03  0.45725058914E+03 0.  0.
      99925    2    3    3    0    0 -0.10144663654E+03 -0.53642443158E+02 -0.29164991167E+03  0.40917498771E+03  0.26305050432E+03 0.  0.
         25    1    4    4    0    0 -0.24614091742E+02  0.75534260427E+01 -0.12171037386E+03  0.17641947444E+03  0.12509000000E+03 0.  0.
         25    1    3    3    0    0  0.10144663654E+03  0.53642443158E+02 -0.19689612507E+03  0.25997023664E+03  0.12509000000E+03 0.  0.
         25    1    4    4    0    0 -0.76832544802E+02 -0.61195869201E+02 -0.16993953781E+03  0.23275551327E+03  0.12509000000E+03 0.  0.
<mgrwt>
<rscale>  2 0.45725059E+03</rscale>
<asrwt>0</asrwt>
<pdfrwt beam="1">  1       21 0.13279352E-01 0.45725059E+03</pdfrwt>
<pdfrwt beam="2">  1       21 0.85124355E-01 0.45725059E+03</pdfrwt>
<totfact> 0.53652158E+04</totfact>
</mgrwt>
</event>
<event>
 7    0  0.4779893E-002  0.4514209E+03  0.7546771E-02  0.1027299E+00
         21   -1    0    0  502  501  0.00000000000E+00  0.00000000000E+00  0.63305209022E+02  0.63305209022E+02  0.00000000000E+00 0. -1.
         21   -1    0    0  501  502 -0.00000000000E+00 -0.00000000000E+00 -0.80475552014E+03  0.80475552014E+03  0.00000000000E+00 0. -1.
      99926    2    1    2    0    0  0.14210854715E-13  0.00000000000E+00 -0.74145031111E+03  0.86806072916E+03  0.45142094065E+03 0.  0.
      99925    2    3    3    0    0  0.93408368291E+02  0.46770333469E+01 -0.36453154593E+03  0.46006285961E+03  0.26462726410E+03 0.  0.
         25    1    3    3    0    0 -0.93408368291E+02 -0.46770333469E+01 -0.37691876519E+03  0.40799786955E+03  0.12509000000E+03 0.  0.
         25    1    4    4    0    0  0.60029300788E+02  0.43220851297E+02 -0.17898856868E+03  0.23055579532E+03  0.12509000000E+03 0.  0.
         25    1    4    4    0    0  0.33379067503E+02 -0.38543817950E+02 -0.18554297725E+03  0.22950706429E+03  0.12509000000E+03 0.  0.
<mgrwt>
<rscale>  2 0.45142094E+03</rscale>
<asrwt>0</asrwt>
<pdfrwt beam="1">  1       21 0.93095900E-02 0.45142094E+03</pdfrwt>
<pdfrwt beam="2">  1       21 0.11834639E+00 0.45142094E+03</pdfrwt>
<totfact> 0.45917141E+04</totfact>
</mgrwt>
</event>
<event>
 7    0  0.4779893E-002  0.4551708E+03  0.7546771E-02  0.1026191E+00
         21   -1    0    0  502  501  0.00000000000E+00  0.00000000000E+00  0.38152908153E+02  0.38152908153E+02  0.00000000000E+00 0. -1.
         21   -1    0    0  501  502 -0.00000000000E+00 -0.00000000000E+00 -0.13575665835E+04  0.13575665835E+04  0.00000000000E+00 0. -1.
      99926    2    1    2    0    0  0.00000000000E+00  0.35527136788E-14 -0.13194136753E+04  0.13957194916E+04  0.45517079507E+03 0.  0.
      99925    2    3    3    0    0 -0.82854591996E+02 -0.90550253654E+01 -0.10655387584E+04  0.11006824457E+04  0.26302494907E+03 0.  0.
         25    1    4    4    0    0 -0.28058131987E+02 -0.39063797176E+02 -0.45431649241E+03  0.47367100650E+03  0.12509000000E+03 0.  0.
         25    1    3    3    0    0  0.82854591996E+02  0.90550253654E+01 -0.25387491695E+03  0.29503704590E+03  0.12509000000E+03 0.  0.
         25    1    4    4    0    0 -0.54796460008E+02  0.30008771811E+02 -0.61122226597E+03  0.62701143924E+03  0.12509000000E+03 0.  0.
<mgrwt>
<rscale>  2 0.45517080E+03</rscale>
<asrwt>0</asrwt>
<pdfrwt beam="1">  1       21 0.56107214E-02 0.45517080E+03</pdfrwt>
<pdfrwt beam="2">  1       21 0.19964216E+00 0.45517080E+03</pdfrwt>
<totfact> 0.26411213E+04</totfact>
</mgrwt>
</event>
<event>
 7    0  0.4779893E-002  0.4549688E+03  0.7546771E-02  0.1026251E+00
         21   -1    0    0  502  501  0.00000000000E+00  0.00000000000E+00  0.60716262160E+02  0.60716262160E+02  0.00000000000E+00 0.  1.
         21   -1    0    0  501  502 -0.00000000000E+00 -0.00000000000E+00 -0.85231107737E+03  0.85231107737E+03  0.00000000000E+00 0.  1.
      99926    2    1    2    0    0  0.00000000000E+00  0.00000000000E+00 -0.79159481521E+03  0.91302733953E+03  0.45496875856E+03 0.  0.
      99925    2    3    3    0    0 -0.92406425232E+02 -0.51390333377E+02 -0.57777886327E+03  0.64368613735E+03  0.26329359047E+03 0.  0.
         25    1    4    4    0    0 -0.44123796563E+01 -0.14179523631E+02 -0.24077864685E+03  0.27173956808E+03  0.12509000000E+03 0.  0.
         25    1    4    4    0    0 -0.87994045576E+02 -0.37210809746E+02 -0.33700021642E+03  0.37194656926E+03  0.12509000000E+03 0.  0.
         25    1    3    3    0    0  0.92406425232E+02  0.51390333377E+02 -0.21381595194E+03  0.26934120218E+03  0.12509000000E+03 0.  0.
<mgrwt>
<rscale>  2 0.45496876E+03</rscale>
<asrwt>0</asrwt>
<pdfrwt beam="1">  1       21 0.89288621E-02 0.45496876E+03</pdfrwt>
<pdfrwt beam="2">  1       21 0.12533986E+00 0.45496876E+03</pdfrwt>
<totfact> 0.42685742E+04</totfact>
</mgrwt>
</event>
<event>
 7    0  0.4779893E-002  0.4521295E+03  0.7546771E-02  0.1027089E+00
         21   -1    0    0  502  501  0.00000000000E+00  0.00000000000E+00  0.30132194357E+03  0.30132194357E+03  0.00000000000E+00 0. -1.
         21   -1    0    0  501  502 -0.00000000000E+00 -0.00000000000E+00 -0.16960351994E+03  0.16960351994E+03  0.00000000000E+00 0. -1.
      99926    2    1    2    0    0  0.00000000000E+00  0.00000000000E+00  0.13171842363E+03  0.47092546351E+03  0.45212946051E+03 0.  0.
      99925    2    3    3    0    0 -0.36239112441E+02  0.32278820309E+02  0.18643409954E+03  0.32602374233E+03  0.26301827233E+03 0.  0.
         25    1    4    4    0    0 -0.29231678815E+02 -0.17663189708E+01  0.50472628137E+02  0.13803117481E+03  0.12509000000E+03 0.  0.
         25    1    3    3    0    0  0.36239112441E+02 -0.32278820309E+02 -0.54715675911E+02  0.14490172118E+03  0.12509000000E+03 0.  0.
         25    1    4    4    0    0 -0.70074336268E+01  0.34045139279E+02  0.13596147140E+03  0.18799256751E+03  0.12509000000E+03 0.  0.
<mgrwt>
<rscale>  2 0.45212946E+03</rscale>
<asrwt>0</asrwt>
<pdfrwt beam="1">  1       21 0.44312051E-01 0.45212946E+03</pdfrwt>
<pdfrwt beam="2">  1       21 0.24941694E-01 0.45212946E+03</pdfrwt>
<totfact> 0.68923427E+04</totfact>
</mgrwt>
</event>
<event>
 7    0  0.4779893E-002  0.4478111E+03  0.7546771E-02  0.1028377E+00
         21   -1    0    0  502  501  0.00000000000E+00  0.00000000000E+00  0.16842916741E+03  0.16842916741E+03  0.00000000000E+00 0.  1.
         21   -1    0    0  501  502 -0.00000000000E+00 -0.00000000000E+00 -0.29765447340E+03  0.29765447340E+03  0.00000000000E+00 0.  1.
      99926    2    1    2    0    0  0.00000000000E+00  0.00000000000E+00 -0.12922530599E+03  0.46608364082E+03  0.44781109915E+03 0.  0.
      99925    2    3    3    0    0  0.71359414685E+02 -0.73126209471E+02 -0.10764958028E+03  0.30313386752E+03  0.26431439788E+03 0.  0.
         25    1    3    3    0    0 -0.71359414685E+02  0.73126209471E+02 -0.21575725709E+02  0.16294977329E+03  0.12509000000E+03 0.  0.
         25    1    4    4    0    0  0.10449948259E+02  0.41586045256E+00 -0.56523469519E+02  0.13766548247E+03  0.12509000000E+03 0.  0.
         25    1    4    4    0    0  0.60909466425E+02 -0.73542069924E+02 -0.51126110765E+02  0.16546838505E+03  0.12509000000E+03 0.  0.
<mgrwt>
<rscale>  2 0.44781110E+03</rscale>
<asrwt>0</asrwt>
<pdfrwt beam="1">  1       21 0.24768996E-01 0.44781110E+03</pdfrwt>
<pdfrwt beam="2">  1       21 0.43772716E-01 0.44781110E+03</pdfrwt>
<totfact> 0.71732790E+04</totfact>
</mgrwt>
</event>
<event>
 7    0  0.4779893E-002  0.4562018E+03  0.7546771E-02  0.1025889E+00
         21   -1    0    0  502  501  0.00000000000E+00  0.00000000000E+00  0.89001329038E+02  0.89001329038E+02  0.00000000000E+00 0. -1.
         21   -1    0    0  501  502 -0.00000000000E+00 -0.00000000000E+00 -0.58459821662E+03  0.58459821662E+03  0.00000000000E+00 0. -1.
      99926    2    1    2    0    0  0.00000000000E+00  0.00000000000E+00 -0.49559688758E+03  0.67359954566E+03  0.45620178971E+03 0.  0.
      99925    2    3    3    0    0 -0.24405622078E+02  0.72779925500E+02 -0.18662939543E+03  0.33154549839E+03  0.26305766349E+03 0.  0.
         25    1    4    4    0    0  0.11692038806E+01  0.66871343553E+02 -0.12745697344E+03  0.19069853645E+03  0.12509000000E+03 0.  0.
         25    1    4    4    0    0 -0.25574825959E+02  0.59085819461E+01 -0.59172421987E+02  0.14084696194E+03  0.12509000000E+03 0.  0.
         25    1    3    3    0    0  0.24405622078E+02 -0.72779925500E+02 -0.30896749215E+03  0.34205404727E+03  0.12509000000E+03 0.  0.
<mgrwt>
<rscale>  2 0.45620179E+03</rscale>
<asrwt>0</asrwt>
<pdfrwt beam="1">  1       21 0.13088431E-01 0.45620179E+03</pdfrwt>
<pdfrwt beam="2">  1       21 0.85970325E-01 0.45620179E+03</pdfrwt>
<totfact> 0.53848303E+04</totfact>
</mgrwt>
</event>
<event>
 7    0  0.4779893E-002  0.4814065E+03  0.7546771E-02  0.1018749E+00
         21   -1    0    0  502  501  0.00000000000E+00  0.00000000000E+00  0.89850157958E+03  0.89850157958E+03  0.00000000000E+00 0. -1.
         21   -1    0    0  501  502 -0.00000000000E+00 -0.00000000000E+00 -0.64482969458E+02  0.64482969458E+02  0.00000000000E+00 0. -1.
      99926    2    1    2    0    0 -0.35527136788E-14  0.00000000000E+00  0.83401861012E+03  0.96298454903E+03  0.48140648070E+03 0.  0.
      99925    2    3    3    0    0  0.24444229059E+02  0.94869120377E+02  0.70331343852E+03  0.75724437231E+03  0.26300489779E+03 0.  0.
         25    1    4    4    0    0  0.79666683398E+01  0.77411706264E+02  0.29867286617E+03  0.33303007245E+03  0.12509000000E+03 0.  0.
         25    1    4    4    0    0  0.16477560720E+02  0.17457414113E+02  0.40464057235E+03  0.42421429986E+03  0.12509000000E+03 0.  0.
         25    1    3    3    0    0 -0.24444229059E+02 -0.94869120377E+02  0.13070517160E+03  0.20574017672E+03  0.12509000000E+03 0.  0.
<mgrwt>
<rscale>  2 0.48140648E+03</rscale>
<asrwt>0</asrwt>
<pdfrwt beam="1">  1       21 0.13213258E+00 0.48140648E+03</pdfrwt>
<pdfrwt beam="2">  1       21 0.94827902E-02 0.48140648E+03</pdfrwt>
<totfact> 0.33210360E+04</totfact>
</mgrwt>
</event>
<event>
 7    0  0.4779893E-002  0.4564976E+03  0.7546771E-02  0.1025802E+00
         21   -1    0    0  502  501  0.00000000000E+00  0.00000000000E+00  0.11251100223E+04  0.11251100223E+04  0.00000000000E+00 0.  1.
         21   -1    0    0  501  502 -0.00000000000E+00 -0.00000000000E+00 -0.46304374014E+02  0.46304374014E+02  0.00000000000E+00 0.  1.
      99926    2    1    2    0    0  0.00000000000E+00 -0.71054273576E-14  0.10788056483E+04  0.11714143963E+04  0.45649760252E+03 0.  0.
      99925    2    3    3    0    0  0.89679891295E+02 -0.40897789827E+02  0.52934138790E+03  0.59933608554E+03  0.26322295943E+03 0.  0.
         25    1    3    3    0    0 -0.89679891295E+02  0.40897789827E+02  0.54946426035E+03  0.57207831074E+03  0.12509000000E+03 0.  0.
         25    1    4    4    0    0  0.67576714313E+02 -0.55629573106E+02  0.30613423956E+03  0.34209200876E+03  0.12509000000E+03 0.  0.
         25    1    4    4    0    0  0.22103176982E+02  0.14731783279E+02  0.22320714833E+03  0.25724407678E+03  0.12509000000E+03 0.  0.
<mgrwt>
<rscale>  2 0.45649760E+03</rscale>
<asrwt>0</asrwt>
<pdfrwt beam="1">  1       21 0.16545734E+00 0.45649760E+03</pdfrwt>
<pdfrwt beam="2">  1       21 0.68094675E-02 0.45649760E+03</pdfrwt>
<totfact> 0.32692212E+04</totfact>
</mgrwt>
</event>
<event>
 7    0  0.4779893E-002  0.4535505E+03  0.7546771E-02  0.1026669E+00
         21   -1    0    0  502  501  0.00000000000E+00  0.00000000000E+00  0.57465200342E+03  0.57465200342E+03  0.00000000000E+00 0. -1.
         21   -1    0    0  501  502 -0.00000000000E+00 -0.00000000000E+00 -0.89492460588E+02  0.89492460588E+02  0.00000000000E+00 0. -1.
      99926    2    1    2    0    0  0.00000000000E+00  0.14210854715E-13  0.48515954283E+03  0.66414446400E+03  0.45355053420E+03 0.  0.
      99925    2    3    3    0    0  0.56310593146E+02  0.93770051577E+02  0.27158971560E+03  0.39354645093E+03  0.26297172843E+03 0.  0.
         25    1    3    3    0    0 -0.56310593146E+02 -0.93770051577E+02  0.21356982723E+03  0.27059801307E+03  0.12509000000E+03 0.  0.
         25    1    4    4    0    0  0.29074918017E+01  0.71638699349E+02  0.16646944240E+03  0.22022747355E+03  0.12509000000E+03 0.  0.
         25    1    4    4    0    0  0.53403101344E+02  0.22131352228E+02  0.10512027319E+03  0.17331897738E+03  0.12509000000E+03 0.  0.
<mgrwt>
<rscale>  2 0.45355053E+03</rscale>
<asrwt>0</asrwt>
<pdfrwt beam="1">  1       21 0.84507645E-01 0.45355053E+03</pdfrwt>
<pdfrwt beam="2">  1       21 0.13160656E-01 0.45355053E+03</pdfrwt>
<totfact> 0.55524861E+04</totfact>
</mgrwt>
</event>
<event>
 7    0  0.4779893E-002  0.4542301E+03  0.7546771E-02  0.1026468E+00
         21   -1    0    0  502  501  0.00000000000E+00  0.00000000000E+00  0.51692622003E+03  0.51692622003E+03  0.00000000000E+00 0.  1.
         21   -1    0    0  501  502 -0.00000000000E+00 -0.00000000000E+00 -0.99784557064E+02  0.99784557064E+02  0.00000000000E+00 0.  1.
      99926    2    1    2    0    0  0.00000000000E+00  0.00000000000E+00  0.41714166296E+03  0.61671077709E+03  0.45423013506E+03 0.  0.
      99925    2    3    3    0    0 -0.64390421732E+02 -0.73706086018E+02  0.33803126449E+03  0.43927155715E+03  0.26289855766E+03 0.  0.
         25    1    3    3    0    0  0.64390421732E+02  0.73706086018E+02  0.79110398469E+02  0.17743921994E+03  0.12509000000E+03 0.  0.
         25    1    4    4    0    0  0.32543295047E+01 -0.30667150962E+02  0.12471443827E+03  0.17931052401E+03  0.12509000000E+03 0.  0.
         25    1    4    4    0    0 -0.67644751237E+02 -0.43038935055E+02  0.21331682622E+03  0.25996103314E+03  0.12509000000E+03 0.  0.
<mgrwt>
<rscale>  2 0.45423014E+03</rscale>
<asrwt>0</asrwt>
<pdfrwt beam="1">  1       21 0.76018561E-01 0.45423014E+03</pdfrwt>
<pdfrwt beam="2">  1       21 0.14674200E-01 0.45423014E+03</pdfrwt>
<totfact> 0.58013198E+04</totfact>
</mgrwt>
</event>
<event>
 7    0  0.4779893E-002  0.4548210E+03  0.7546771E-02  0.1026294E+00
         21   -1    0    0  502  501  0.00000000000E+00  0.00000000000E+00  0.95964305568E+03  0.95964305568E+03  0.00000000000E+00 0.  1.
         21   -1    0    0  501  502 -0.00000000000E+00 -0.00000000000E+00 -0.53890378683E+02  0.53890378683E+02  0.00000000000E+00 0.  1.
      99926    2    1    2    0    0  0.00000000000E+00  0.00000000000E+00  0.90575267700E+03  0.10135334344E+04  0.45482096553E+03 0.  0.
      99925    2    3    3    0    0 -0.10769697333E+03  0.30932050343E+02  0.53715245680E+03  0.60847904267E+03  0.26298013940E+03 0.  0.
         25    1    4    4    0    0 -0.92851305800E+02 -0.12887230717E+01  0.28751622592E+03  0.32701087759E+03  0.12509000000E+03 0.  0.
         25    1    4    4    0    0 -0.14845667527E+02  0.32220773414E+02  0.24963623087E+03  0.28146816507E+03  0.12509000000E+03 0.  0.
         25    1    3    3    0    0  0.10769697333E+03 -0.30932050343E+02  0.36860022020E+03  0.40505439170E+03  0.12509000000E+03 0.  0.
<mgrwt>
<rscale>  2 0.45482097E+03</rscale>
<asrwt>0</asrwt>
<pdfrwt beam="1">  1       21 0.14112397E+00 0.45482097E+03</pdfrwt>
<pdfrwt beam="2">  1       21 0.79250563E-02 0.45482097E+03</pdfrwt>
<totfact> 0.38698553E+04</totfact>
</mgrwt>
</event>
<event>
 7    0  0.4779893E-002  0.4432386E+03  0.7546771E-02  0.1029758E+00
         21   -1    0    0  502  501  0.00000000000E+00  0.00000000000E+00  0.25300269275E+02  0.25300269275E+02  0.00000000000E+00 0. -1.
         21   -1    0    0  501  502 -0.00000000000E+00 -0.00000000000E+00 -0.19412882106E+04  0.19412882106E+04  0.00000000000E+00 0. -1.
      99926    2    1    2    0    0  0.71054273576E-14  0.00000000000E+00 -0.19159879413E+04  0.19665884798E+04  0.44323860151E+03 0.  0.
      99925    2    3    3    0    0 -0.58601715627E+02 -0.83304349865E+02 -0.12169146605E+04  0.12491452865E+04  0.26288567828E+03 0.  0.
         25    1    4    4    0    0 -0.62608396549E+02 -0.22139218890E+02 -0.56085978240E+03  0.57846448460E+03  0.12509000000E+03 0.  0.
         25    1    4    4    0    0  0.40066809216E+01 -0.61165130975E+02 -0.65605487814E+03  0.67068080185E+03  0.12509000000E+03 0.  0.
         25    1    3    3    0    0  0.58601715627E+02  0.83304349865E+02 -0.69907328075E+03  0.71744319339E+03  0.12509000000E+03 0.  0.
<mgrwt>
<rscale>  2 0.44323860E+03</rscale>
<asrwt>0</asrwt>
<pdfrwt beam="1">  1       21 0.37206273E-02 0.44323860E+03</pdfrwt>
<pdfrwt beam="2">  1       21 0.28548360E+00 0.44323860E+03</pdfrwt>
<totfact> 0.15643181E+04</totfact>
</mgrwt>
</event>
<event>
 7    0  0.4779893E-002  0.4573841E+03  0.7546771E-02  0.1025543E+00
         21   -1    0    0  502  501  0.00000000000E+00  0.00000000000E+00  0.37968180691E+03  0.37968180691E+03  0.00000000000E+00 0.  1.
         21   -1    0    0  501  502 -0.00000000000E+00 -0.00000000000E+00 -0.13774706809E+03  0.13774706809E+03  0.00000000000E+00 0.  1.
      99926    2    1    2    0    0  0.00000000000E+00  0.00000000000E+00  0.24193473881E+03  0.51742887500E+03  0.45738410864E+03 0.  0.
      99925    2    3    3    0    0  0.48125393263E+02  0.86110711438E+02  0.21970954553E+03  0.35657933220E+03  0.26295518184E+03 0.  0.
         25    1    4    4    0    0  0.18201229453E+02  0.37075609681E+02  0.57218664249E+02  0.14362231451E+03  0.12509000000E+03 0.  0.
         25    1    3    3    0    0 -0.48125393263E+02 -0.86110711438E+02  0.22225193279E+02  0.16084954279E+03  0.12509000000E+03 0.  0.
         25    1    4    4    0    0  0.29924163810E+02  0.49035101757E+02  0.16249088128E+03  0.21295701769E+03  0.12509000000E+03 0.  0.
<mgrwt>
<rscale>  2 0.45738411E+03</rscale>
<asrwt>0</asrwt>
<pdfrwt beam="1">  1       21 0.55835560E-01 0.45738411E+03</pdfrwt>
<pdfrwt beam="2">  1       21 0.20256922E-01 0.45738411E+03</pdfrwt>
<totfact> 0.62865092E+04</totfact>
</mgrwt>
</event>
<event>
 7    0  0.4779893E-002  0.4510813E+03  0.7546771E-02  0.1027400E+00
         21   -1    0    0  502  501  0.00000000000E+00  0.00000000000E+00  0.98806982635E+03  0.98806982635E+03  0.00000000000E+00 0.  1.
         21   -1    0    0  501  502 -0.00000000000E+00 -0.00000000000E+00 -0.51482792948E+02  0.51482792948E+02  0.00000000000E+00 0.  1.
      99926    2    1    2    0    0  0.00000000000E+00  0.00000000000E+00  0.93658703340E+03  0.10395526193E+04  0.45108134206E+03 0.  0.
      99925    2    3    3    0    0 -0.70875515873E+02 -0.61876645561E+02  0.71966744467E+03  0.77205743412E+03  0.26324777805E+03 0.  0.
         25    1    4    4    0    0 -0.27211549361E+02 -0.39141954459E+02  0.25067517479E+03  0.28417971844E+03  0.12509000000E+03 0.  0.
         25    1    3    3    0    0  0.70875515873E+02  0.61876645561E+02  0.21691958873E+03  0.26749518518E+03  0.12509000000E+03 0.  0.
         25    1    4    4    0    0 -0.43663966512E+02 -0.22734691102E+02  0.46899226988E+03  0.48787771568E+03  0.12509000000E+03 0.  0.
<mgrwt>
<rscale>  2 0.45108134E+03</rscale>
<asrwt>0</asrwt>
<pdfrwt beam="1">  1       21 0.14530437E+00 0.45108134E+03</pdfrwt>
<pdfrwt beam="2">  1       21 0.75709996E-02 0.45108134E+03</pdfrwt>
<totfact> 0.38837576E+04</totfact>
</mgrwt>
</event>
<event>
 7    0  0.4779893E-002  0.4527985E+03  0.7546771E-02  0.1026891E+00
         21   -1    0    0  502  501  0.00000000000E+00  0.00000000000E+00  0.75336029099E+03  0.75336029099E+03  0.00000000000E+00 0. -1.
         21   -1    0    0  501  502 -0.00000000000E+00 -0.00000000000E+00 -0.68037311919E+02  0.68037311919E+02  0.00000000000E+00 0. -1.
      99926    2    1    2    0    0 -0.14210854715E-13  0.00000000000E+00  0.68532297907E+03  0.82139760291E+03  0.45279845011E+03 0.  0.
      99925    2    3    3    0    0 -0.67217072110E+02  0.65366517134E+02  0.54093242389E+03  0.60859004461E+03  0.26264622371E+03 0.  0.
         25    1    3    3    0    0  0.67217072110E+02 -0.65366517134E+02  0.14439055517E+03  0.21280755830E+03  0.12509000000E+03 0.  0.
         25    1    4    4    0    0 -0.68769178012E+02  0.54024295174E+02  0.31709689760E+03  0.35191728415E+03  0.12509000000E+03 0.  0.
         25    1    4    4    0    0  0.15521059020E+01  0.11342221960E+02  0.22383552629E+03  0.25667276046E+03  0.12509000000E+03 0.  0.
<mgrwt>
<rscale>  2 0.45279845E+03</rscale>
<asrwt>0</asrwt>
<pdfrwt beam="1">  1       21 0.11078827E+00 0.45279845E+03</pdfrwt>
<pdfrwt beam="2">  1       21 0.10005488E-01 0.45279845E+03</pdfrwt>
<totfact> 0.47563529E+04</totfact>
</mgrwt>
</event>
<event>
 7    0  0.4779893E-002  0.4614621E+03  0.7546771E-02  0.1024358E+00
         21   -1    0    0  502  501  0.00000000000E+00  0.00000000000E+00  0.39217057775E+03  0.39217057775E+03  0.00000000000E+00 0. -1.
         21   -1    0    0  501  502 -0.00000000000E+00 -0.00000000000E+00 -0.13574912081E+03  0.13574912081E+03  0.00000000000E+00 0. -1.
      99926    2    1    2    0    0  0.00000000000E+00  0.00000000000E+00  0.25642145693E+03  0.52791969856E+03  0.46146207272E+03 0.  0.
      99925    2    3    3    0    0 -0.50406539454E+02  0.10489780513E+03  0.13172004610E+03  0.31639589682E+03  0.26308140230E+03 0.  0.
         25    1    4    4    0    0 -0.75873903605E+01  0.37532938819E+02  0.23930840960E+02  0.13299053815E+03  0.12509000000E+03 0.  0.
         25    1    4    4    0    0 -0.42819149093E+02  0.67364866312E+02  0.10778920514E+03  0.18340535866E+03  0.12509000000E+03 0.  0.
         25    1    3    3    0    0  0.50406539454E+02 -0.10489780513E+03  0.12470141084E+03  0.21152380175E+03  0.12509000000E+03 0.  0.
<mgrwt>
<rscale>  2 0.46146207E+03</rscale>
<asrwt>0</asrwt>
<pdfrwt beam="1">  1       21 0.57672144E-01 0.46146207E+03</pdfrwt>
<pdfrwt beam="2">  1       21 0.19963106E-01 0.46146207E+03</pdfrwt>
<totfact> 0.60203828E+04</totfact>
</mgrwt>
</event>
<event>
 7    0  0.4779893E-002  0.4614107E+03  0.7546771E-02  0.1024373E+00
         21   -1    0    0  502  501  0.00000000000E+00  0.00000000000E+00  0.93457785839E+02  0.93457785839E+02  0.00000000000E+00 0.  1.
         21   -1    0    0  501  502 -0.00000000000E+00 -0.00000000000E+00 -0.56950802250E+03  0.56950802250E+03  0.00000000000E+00 0.  1.
      99926    2    1    2    0    0  0.00000000000E+00 -0.35527136788E-14 -0.47605023666E+03  0.66296580834E+03  0.46141070122E+03 0.  0.
      99925    2    3    3    0    0  0.40976528977E+02  0.18938290187E+02 -0.13948124302E+03  0.30107641869E+03  0.26297197184E+03 0.  0.
         25    1    4    4    0    0 -0.12750310430E+01  0.24401100225E+00 -0.10504663068E+03  0.16335234299E+03  0.12509000000E+03 0.  0.
         25    1    3    3    0    0 -0.40976528977E+02 -0.18938290187E+02 -0.33656899364E+03  0.36188938965E+03  0.12509000000E+03 0.  0.
         25    1    4    4    0    0  0.42251560020E+02  0.18694279185E+02 -0.34434612345E+02  0.13772407569E+03  0.12509000000E+03 0.  0.
<mgrwt>
<rscale>  2 0.46141070E+03</rscale>
<asrwt>0</asrwt>
<pdfrwt beam="1">  1       21 0.13743792E-01 0.46141070E+03</pdfrwt>
<pdfrwt beam="2">  1       21 0.83751178E-01 0.46141070E+03</pdfrwt>
<totfact> 0.52267267E+04</totfact>
</mgrwt>
</event>
<event>
 7    0  0.4779893E-002  0.4563582E+03  0.7546771E-02  0.1025843E+00
         21   -1    0    0  502  501  0.00000000000E+00  0.00000000000E+00  0.82925231193E+02  0.82925231193E+02  0.00000000000E+00 0. -1.
         21   -1    0    0  501  502 -0.00000000000E+00 -0.00000000000E+00 -0.62786324537E+03  0.62786324537E+03  0.00000000000E+00 0. -1.
      99926    2    1    2    0    0  0.88817841970E-15  0.00000000000E+00 -0.54493801418E+03  0.71078847657E+03  0.45635821360E+03 0.  0.
      99925    2    3    3    0    0 -0.63954839353E+01 -0.96963020613E+02 -0.43660363231E+03  0.51888595971E+03  0.26301554680E+03 0.  0.
         25    1    4    4    0    0 -0.41432359756E+02 -0.51552000295E+02 -0.19653949868E+03  0.24217665414E+03  0.12509000000E+03 0.  0.
         25    1    4    4    0    0  0.35036875820E+02 -0.45411020318E+02 -0.24006413362E+03  0.27670930556E+03  0.12509000000E+03 0.  0.
         25    1    3    3    0    0  0.63954839353E+01  0.96963020613E+02 -0.10833438187E+03  0.19190251686E+03  0.12509000000E+03 0.  0.
<mgrwt>
<rscale>  2 0.45635821E+03</rscale>
<asrwt>0</asrwt>
<pdfrwt beam="1">  1       21 0.12194887E-01 0.45635821E+03</pdfrwt>
<pdfrwt beam="2">  1       21 0.92332831E-01 0.45635821E+03</pdfrwt>
<totfact> 0.51765758E+04</totfact>
</mgrwt>
</event>
<event>
 7    0  0.4779893E-002  0.4537921E+03  0.7546771E-02  0.1026597E+00
         21   -1    0    0  502  501  0.00000000000E+00  0.00000000000E+00  0.19954111164E+03  0.19954111164E+03  0.00000000000E+00 0.  1.
         21   -1    0    0  501  502 -0.00000000000E+00 -0.00000000000E+00 -0.25800107417E+03  0.25800107417E+03  0.00000000000E+00 0.  1.
      99926    2    1    2    0    0  0.00000000000E+00  0.00000000000E+00 -0.58459962528E+02  0.45754218580E+03  0.45379211603E+03 0.  0.
      99925    2    3    3    0    0  0.37434761688E+02  0.43564824226E+02 -0.13385026219E+03  0.30060123934E+03  0.26295618858E+03 0.  0.
         25    1    3    3    0    0 -0.37434761688E+02 -0.43564824226E+02  0.75390299667E+02  0.15694094646E+03  0.12509000000E+03 0.  0.
         25    1    4    4    0    0  0.49456014174E+02  0.45553951155E+00 -0.50034181252E+02  0.14351666192E+03  0.12509000000E+03 0.  0.
         25    1    4    4    0    0 -0.12021252486E+02  0.43109284714E+02 -0.83816080943E+02  0.15708457742E+03  0.12509000000E+03 0.  0.
<mgrwt>
<rscale>  2 0.45379212E+03</rscale>
<asrwt>0</asrwt>
<pdfrwt beam="1">  1       21 0.29344281E-01 0.45379212E+03</pdfrwt>
<pdfrwt beam="2">  1       21 0.37941334E-01 0.45379212E+03</pdfrwt>
<totfact> 0.69022522E+04</totfact>
</mgrwt>
</event>
<event>
 7    0  0.4779893E-002  0.4592079E+03  0.7546771E-02  0.1025011E+00
         21   -1    0    0  502  501  0.00000000000E+00  0.00000000000E+00  0.59720598425E+03  0.59720598425E+03  0.00000000000E+00 0.  1.
         21   -1    0    0  501  502 -0.00000000000E+00 -0.00000000000E+00 -0.88274369789E+02  0.88274369789E+02  0.00000000000E+00 0.  1.
      99926    2    1    2    0    0 -0.35527136788E-14  0.00000000000E+00  0.50893161446E+03  0.68548035404E+03  0.45920793501E+03 0.  0.
      99925    2    3    3    0    0 -0.31340205086E+02 -0.10061487605E+03  0.39525210534E+03  0.48629174836E+03  0.26296364010E+03 0.  0.
         25    1    3    3    0    0  0.31340205086E+02  0.10061487605E+03  0.11367950913E+03  0.19918860568E+03  0.12509000000E+03 0.  0.
         25    1    4    4    0    0  0.31664948638E+01 -0.42516786330E+02  0.25149881101E+03  0.28410713446E+03  0.12509000000E+03 0.  0.
         25    1    4    4    0    0 -0.34506699950E+02 -0.58098089720E+02  0.14375329433E+03  0.20218461391E+03  0.12509000000E+03 0.  0.
<mgrwt>
<rscale>  2 0.45920794E+03</rscale>
<asrwt>0</asrwt>
<pdfrwt beam="1">  1       21 0.87824408E-01 0.45920794E+03</pdfrwt>
<pdfrwt beam="2">  1       21 0.12981525E-01 0.45920794E+03</pdfrwt>
<totfact> 0.51955494E+04</totfact>
</mgrwt>
</event>
<event>
 7    0  0.4779893E-002  0.4564856E+03  0.7546771E-02  0.1025805E+00
         21   -1    0    0  502  501  0.00000000000E+00  0.00000000000E+00  0.30625695024E+02  0.30625695024E+02  0.00000000000E+00 0. -1.
         21   -1    0    0  501  502 -0.00000000000E+00 -0.00000000000E+00 -0.17010154284E+04  0.17010154284E+04  0.00000000000E+00 0. -1.
      99926    2    1    2    0    0  0.17763568394E-14  0.14210854715E-13 -0.16703897334E+04  0.17316411234E+04  0.45648561748E+03 0.  0.
      99925    2    3    3    0    0 -0.15956611767E+02 -0.10529361105E+03 -0.12105682640E+04  0.12433536571E+04  0.26289054146E+03 0.  0.
         25    1    4    4    0    0 -0.44849693715E+02 -0.60515860753E+02 -0.69364267594E+03  0.70884507081E+03  0.12509000000E+03 0.  0.
         25    1    4    4    0    0  0.28893081948E+02 -0.44777750296E+02 -0.51692558803E+03  0.53450858625E+03  0.12509000000E+03 0.  0.
         25    1    3    3    0    0  0.15956611767E+02  0.10529361105E+03 -0.45982146940E+03  0.48828746637E+03  0.12509000000E+03 0.  0.
<mgrwt>
<rscale>  2 0.45648562E+03</rscale>
<asrwt>0</asrwt>
<pdfrwt beam="1">  1       21 0.45037776E-02 0.45648562E+03</pdfrwt>
<pdfrwt beam="2">  1       21 0.25014939E+00 0.45648562E+03</pdfrwt>
<totfact> 0.18397598E+04</totfact>
</mgrwt>
</event>
<event>
 7    0  0.4779893E-002  0.4526870E+03  0.7546771E-02  0.1026924E+00
         21   -1    0    0  502  501  0.00000000000E+00  0.00000000000E+00  0.20524803290E+04  0.20524803290E+04  0.00000000000E+00 0.  1.
         21   -1    0    0  501  502 -0.00000000000E+00 -0.00000000000E+00 -0.24960715037E+02  0.24960715037E+02  0.00000000000E+00 0.  1.
      99926    2    1    2    0    0  0.00000000000E+00  0.00000000000E+00  0.20275196140E+04  0.20774410441E+04  0.45268698507E+03 0.  0.
      99925    2    3    3    0    0  0.96495134148E+02  0.85830708802E+01  0.10298942088E+04  0.10673475151E+04  0.26298984145E+03 0.  0.
         25    1    3    3    0    0 -0.96495134148E+02 -0.85830708802E+01  0.99762540522E+03  0.10100935290E+04  0.12509000000E+03 0.  0.
         25    1    4    4    0    0  0.75321857539E+02  0.19958721215E+02  0.65602236852E+03  0.67237235879E+03  0.12509000000E+03 0.  0.
         25    1    4    4    0    0  0.21173276609E+02 -0.11375650335E+02  0.37387184025E+03  0.39497515630E+03  0.12509000000E+03 0.  0.
<mgrwt>
<rscale>  2 0.45268699E+03</rscale>
<asrwt>0</asrwt>
<pdfrwt beam="1">  1       21 0.30183523E+00 0.45268699E+03</pdfrwt>
<pdfrwt beam="2">  1       21 0.36706948E-02 0.45268699E+03</pdfrwt>
<totfact> 0.12713274E+04</totfact>
</mgrwt>
</event>
<event>
 7    0  0.4779893E-002  0.4355350E+03  0.7546771E-02  0.1032126E+00
         21   -1    0    0  502  501  0.00000000000E+00  0.00000000000E+00  0.48732172440E+02  0.48732172440E+02  0.00000000000E+00 0. -1.
         21   -1    0    0  501  502 -0.00000000000E+00 -0.00000000000E+00 -0.97312890638E+03  0.97312890638E+03  0.00000000000E+00 0. -1.
      99926    2    1    2    0    0  0.00000000000E+00  0.00000000000E+00 -0.92439673394E+03  0.10218610788E+04  0.43553500742E+03 0.  0.
      99925    2    3    3    0    0  0.37671812240E+02  0.80447262858E+02 -0.52221747525E+03  0.59141178824E+03  0.26299407650E+03 0.  0.
         25    1    4    4    0    0  0.50264680684E+02  0.19724853731E+02 -0.29088012165E+03  0.32120766063E+03  0.12509000000E+03 0.  0.
         25    1    3    3    0    0 -0.37671812240E+02 -0.80447262858E+02 -0.40217925869E+03  0.43044929058E+03  0.12509000000E+03 0.  0.
         25    1    4    4    0    0 -0.12592868444E+02  0.60722409126E+02 -0.23133735360E+03  0.27020412761E+03  0.12509000000E+03 0.  0.
<mgrwt>
<rscale>  2 0.43553501E+03</rscale>
<asrwt>0</asrwt>
<pdfrwt beam="1">  1       21 0.71664959E-02 0.43553501E+03</pdfrwt>
<pdfrwt beam="2">  1       21 0.14310719E+00 0.43553501E+03</pdfrwt>
<totfact> 0.44751036E+04</totfact>
</mgrwt>
</event>
<event>
 7    0  0.4779893E-002  0.4551455E+03  0.7546771E-02  0.1026199E+00
         21   -1    0    0  502  501  0.00000000000E+00  0.00000000000E+00  0.77278968960E+02  0.77278968960E+02  0.00000000000E+00 0.  1.
         21   -1    0    0  501  502 -0.00000000000E+00 -0.00000000000E+00 -0.67016096143E+03  0.67016096143E+03  0.00000000000E+00 0.  1.
      99926    2    1    2    0    0  0.00000000000E+00  0.44408920985E-14 -0.59288199247E+03  0.74743993039E+03  0.45514546306E+03 0.  0.
      99925    2    3    3    0    0  0.10375248364E+03 -0.48724474169E+01 -0.44741958971E+03  0.52927683240E+03  0.26298547005E+03 0.  0.
         25    1    3    3    0    0 -0.10375248364E+03  0.48724474169E+01 -0.14546240276E+03  0.21816309799E+03  0.12509000000E+03 0.  0.
         25    1    4    4    0    0  0.58912271595E+02  0.29935874012E+02 -0.27079032833E+03  0.30551877572E+03  0.12509000000E+03 0.  0.
         25    1    4    4    0    0  0.44840212050E+02 -0.34808321429E+02 -0.17662926138E+03  0.22375805669E+03  0.12509000000E+03 0.  0.
<mgrwt>
<rscale>  2 0.45514546E+03</rscale>
<asrwt>0</asrwt>
<pdfrwt beam="1">  1       21 0.11364554E-01 0.45514546E+03</pdfrwt>
<pdfrwt beam="2">  1       21 0.98553085E-01 0.45514546E+03</pdfrwt>
<totfact> 0.50344211E+04</totfact>
</mgrwt>
</event>
<event>
 7    0  0.4779893E-002  0.4455312E+03  0.7546771E-02  0.1029063E+00
         21   -1    0    0  502  501  0.00000000000E+00  0.00000000000E+00  0.14628737959E+03  0.14628737959E+03  0.00000000000E+00 0.  1.
         21   -1    0    0  501  502 -0.00000000000E+00 -0.00000000000E+00 -0.33922623011E+03  0.33922623011E+03  0.00000000000E+00 0.  1.
      99926    2    1    2    0    0  0.00000000000E+00  0.00000000000E+00 -0.19293885052E+03  0.48551360970E+03  0.44553121682E+03 0.  0.
      99925    2    3    3    0    0 -0.36278217519E+02 -0.94790878295E+02 -0.14800433217E+03  0.31827713427E+03  0.26285667613E+03 0.  0.
         25    1    4    4    0    0  0.96182034011E+01 -0.21725934013E+02 -0.46591004431E+02  0.13558302194E+03  0.12509000000E+03 0.  0.
         25    1    4    4    0    0 -0.45896420920E+02 -0.73064944282E+02 -0.10141332773E+03  0.18269411233E+03  0.12509000000E+03 0.  0.
         25    1    3    3    0    0  0.36278217519E+02  0.94790878295E+02 -0.44934518351E+02  0.16723647543E+03  0.12509000000E+03 0.  0.
<mgrwt>
<rscale>  2 0.44553122E+03</rscale>
<asrwt>0</asrwt>
<pdfrwt beam="1">  1       21 0.21512851E-01 0.44553122E+03</pdfrwt>
<pdfrwt beam="2">  1       21 0.49886209E-01 0.44553122E+03</pdfrwt>
<totfact> 0.71528299E+04</totfact>
</mgrwt>
</event>
<event>
 7    0  0.4779893E-002  0.4221110E+03  0.7546771E-02  0.1036381E+00
         21   -1    0    0  502  501  0.00000000000E+00  0.00000000000E+00  0.45396215920E+03  0.45396215920E+03  0.00000000000E+00 0. -1.
         21   -1    0    0  501  502 -0.00000000000E+00 -0.00000000000E+00 -0.98123660566E+02  0.98123660566E+02  0.00000000000E+00 0. -1.
      99926    2    1    2    0    0  0.17763568394E-14  0.00000000000E+00  0.35583849863E+03  0.55208581976E+03  0.42211102245E+03 0.  0.
      99925    2    3    3    0    0 -0.63181133803E+01  0.48950922629E+02  0.15132990044E+03  0.30732596558E+03  0.26289237146E+03 0.  0.
         25    1    4    4    0    0 -0.22018134091E+02  0.54417315506E+02  0.55653063896E+02  0.14896581513E+03  0.12509000000E+03 0.  0.
         25    1    4    4    0    0  0.15700020710E+02 -0.54663928772E+01  0.95676836540E+02  0.15836015045E+03  0.12509000000E+03 0.  0.
         25    1    3    3    0    0  0.63181133803E+01 -0.48950922629E+02  0.20450859820E+03  0.24475985418E+03  0.12509000000E+03 0.  0.
<mgrwt>
<rscale>  2 0.42211102E+03</rscale>
<asrwt>0</asrwt>
<pdfrwt beam="1">  1       21 0.66759140E-01 0.42211102E+03</pdfrwt>
<pdfrwt beam="2">  1       21 0.14429950E-01 0.42211102E+03</pdfrwt>
<totfact> 0.80784600E+04</totfact>
</mgrwt>
</event>
<event>
 7    0  0.4779893E-002  0.4497869E+03  0.7546771E-02  0.1027786E+00
         21   -1    0    0  502  501  0.00000000000E+00  0.00000000000E+00  0.86726629732E+03  0.86726629732E+03  0.00000000000E+00 0.  1.
         21   -1    0    0  501  502 -0.00000000000E+00 -0.00000000000E+00 -0.58317799882E+02  0.58317799882E+02  0.00000000000E+00 0.  1.
      99926    2    1    2    0    0 -0.14210854715E-13 -0.35527136788E-14  0.80894849744E+03  0.92558409720E+03  0.44978689341E+03 0.  0.
      99925    2    3    3    0    0 -0.10649637463E+03  0.47883107678E+01  0.47321237059E+03  0.55177845158E+03  0.26299259727E+03 0.  0.
         25    1    4    4    0    0 -0.39572874623E+02 -0.32296071296E+02  0.25995679954E+03  0.29297456264E+03  0.12509000000E+03 0.  0.
         25    1    4    4    0    0 -0.66923500006E+02  0.37084382063E+02  0.21325557106E+03  0.25880388894E+03  0.12509000000E+03 0.  0.
         25    1    3    3    0    0  0.10649637463E+03 -0.47883107678E+01  0.33573612685E+03  0.37380564562E+03  0.12509000000E+03 0.  0.
<mgrwt>
<rscale>  2 0.44978689E+03</rscale>
<asrwt>0</asrwt>
<pdfrwt beam="1">  1       21 0.12753915E+00 0.44978689E+03</pdfrwt>
<pdfrwt beam="2">  1       21 0.85761476E-02 0.44978689E+03</pdfrwt>
<totfact> 0.43908942E+04</totfact>
</mgrwt>
</event>
<event>
 7    0  0.4779893E-002  0.4278216E+03  0.7546771E-02  0.1034550E+00
         21   -1    0    0  502  501  0.00000000000E+00  0.00000000000E+00  0.13307922050E+03  0.13307922050E+03  0.00000000000E+00 0.  1.
         21   -1    0    0  501  502 -0.00000000000E+00 -0.00000000000E+00 -0.34383901495E+03  0.34383901495E+03  0.00000000000E+00 0.  1.
      99926    2    1    2    0    0  0.88817841970E-15  0.00000000000E+00 -0.21075979446E+03  0.47691823545E+03  0.42782158938E+03 0.  0.
      99925    2    3    3    0    0 -0.31487366101E+01  0.31821873778E+02 -0.48399135216E+02  0.26947899624E+03  0.26316137052E+03 0.  0.
         25    1    4    4    0    0  0.89528840572E+01 -0.23544781037E+02 -0.28082550236E+02  0.13065469213E+03  0.12509000000E+03 0.  0.
         25    1    3    3    0    0  0.31487366101E+01 -0.31821873778E+02 -0.16236065924E+03  0.20743923920E+03  0.12509000000E+03 0.  0.
         25    1    4    4    0    0 -0.12101620667E+02  0.55366654814E+02 -0.20316584981E+02  0.13882430412E+03  0.12509000000E+03 0.  0.
<mgrwt>
<rscale>  2 0.42782159E+03</rscale>
<asrwt>0</asrwt>
<pdfrwt beam="1">  1       21 0.19570474E-01 0.42782159E+03</pdfrwt>
<pdfrwt beam="2">  1       21 0.50564560E-01 0.42782159E+03</pdfrwt>
<totfact> 0.83546887E+04</totfact>
</mgrwt>
</event>
<event>
 7    0  0.4779893E-002  0.4602699E+03  0.7546771E-02  0.1024703E+00
         21   -1    0    0  502  501  0.00000000000E+00  0.00000000000E+00  0.24359031040E+03  0.24359031040E+03  0.00000000000E+00 0. -1.
         21   -1    0    0  501  502 -0.00000000000E+00 -0.00000000000E+00 -0.21742285900E+03  0.21742285900E+03  0.00000000000E+00 0. -1.
      99926    2    1    2    0    0 -0.71054273576E-14  0.00000000000E+00  0.26167451394E+02  0.46101316940E+03  0.46026992825E+03 0.  0.
      99925    2    3    3    0    0 -0.53363338635E+02  0.25545629761E+02 -0.85936501193E+02  0.28292602951E+03  0.26298637004E+03 0.  0.
         25    1    4    4    0    0  0.54402073662E+01  0.93243180811E-01 -0.64203381050E+02  0.14070958314E+03  0.12509000000E+03 0.  0.
         25    1    4    4    0    0 -0.58803546002E+02  0.25452386580E+02 -0.21733120143E+02  0.14221644636E+03  0.12509000000E+03 0.  0.
         25    1    3    3    0    0  0.53363338635E+02 -0.25545629761E+02  0.11210395259E+03  0.17808713989E+03  0.12509000000E+03 0.  0.
<mgrwt>
<rscale>  2 0.46026993E+03</rscale>
<asrwt>0</asrwt>
<pdfrwt beam="1">  1       21 0.35822105E-01 0.46026993E+03</pdfrwt>
<pdfrwt beam="2">  1       21 0.31973950E-01 0.46026993E+03</pdfrwt>
<totfact> 0.65317558E+04</totfact>
</mgrwt>
</event>
<event>
 7    0  0.4779893E-002  0.4586324E+03  0.7546771E-02  0.1025179E+00
         21   -1    0    0  502  501  0.00000000000E+00  0.00000000000E+00  0.39174694336E+03  0.39174694336E+03  0.00000000000E+00 0.  1.
         21   -1    0    0  501  502 -0.00000000000E+00 -0.00000000000E+00 -0.13423443129E+03  0.13423443129E+03  0.00000000000E+00 0.  1.
      99926    2    1    2    0    0 -0.35527136788E-14  0.00000000000E+00  0.25751251207E+03  0.52598137465E+03  0.45863243737E+03 0.  0.
      99925    2    3    3    0    0 -0.28426085422E+02 -0.10109188666E+03  0.21950319010E+03  0.35829169537E+03  0.26298987932E+03 0.  0.
         25    1    4    4    0    0  0.88679614809E+01 -0.80674643859E+02  0.13724190839E+03  0.20265707099E+03  0.12509000000E+03 0.  0.
         25    1    3    3    0    0  0.28426085422E+02  0.10109188666E+03  0.38009321976E+02  0.16768967928E+03  0.12509000000E+03 0.  0.
         25    1    4    4    0    0 -0.37294046903E+02 -0.20417242804E+02  0.82261281704E+02  0.15563462438E+03  0.12509000000E+03 0.  0.
<mgrwt>
<rscale>  2 0.45863244E+03</rscale>
<asrwt>0</asrwt>
<pdfrwt beam="1">  1       21 0.57609844E-01 0.45863244E+03</pdfrwt>
<pdfrwt beam="2">  1       21 0.19740358E-01 0.45863244E+03</pdfrwt>
<totfact> 0.61683866E+04</totfact>
</mgrwt>
</event>
<event>
 7    0  0.4779893E-002  0.4663131E+03  0.7546771E-02  0.1022966E+00
         21   -1    0    0  502  501  0.00000000000E+00  0.00000000000E+00  0.13566791875E+03  0.13566791875E+03  0.00000000000E+00 0. -1.
         21   -1    0    0  501  502 -0.00000000000E+00 -0.00000000000E+00 -0.40069883893E+03  0.40069883893E+03  0.00000000000E+00 0. -1.
      99926    2    1    2    0    0  0.14210854715E-13  0.35527136788E-14 -0.26503092018E+03  0.53636675768E+03  0.46631310307E+03 0.  0.
      99925    2    3    3    0    0  0.11718366478E+03  0.15562672913E+02 -0.20610124449E+03  0.35444803172E+03  0.26302371781E+03 0.  0.
         25    1    4    4    0    0  0.16150244269E+02  0.17040348131E+02 -0.98981599138E+02  0.16123296475E+03  0.12509000000E+03 0.  0.
         25    1    3    3    0    0 -0.11718366478E+03 -0.15562672913E+02 -0.58929675695E+02  0.18191872596E+03  0.12509000000E+03 0.  0.
         25    1    4    4    0    0  0.10103342051E+03 -0.14776752184E+01 -0.10711964535E+03  0.19321506697E+03  0.12509000000E+03 0.  0.
<mgrwt>
<rscale>  2 0.46631310E+03</rscale>
<asrwt>0</asrwt>
<pdfrwt beam="1">  1       21 0.19951165E-01 0.46631310E+03</pdfrwt>
<pdfrwt beam="2">  1       21 0.58926300E-01 0.46631310E+03</pdfrwt>
<totfact> 0.57450601E+04</totfact>
</mgrwt>
</event>
<event>
 7    0  0.4779893E-002  0.5022712E+03  0.7546771E-02  0.1013188E+00
         21   -1    0    0  502  501  0.00000000000E+00  0.00000000000E+00  0.37750489788E+03  0.37750489788E+03  0.00000000000E+00 0.  1.
         21   -1    0    0  501  502 -0.00000000000E+00 -0.00000000000E+00 -0.16706830040E+03  0.16706830040E+03  0.00000000000E+00 0.  1.
      99926    2    1    2    0    0  0.00000000000E+00  0.00000000000E+00  0.21043659749E+03  0.54457319828E+03  0.50227124815E+03 0.  0.
      99925    2    3    3    0    0 -0.90607059513E+02  0.74170208293E+02  0.23484786033E+03  0.37150015911E+03  0.26296005721E+03 0.  0.
         25    1    3    3    0    0  0.90607059513E+02 -0.74170208293E+02 -0.24411262849E+02  0.17307303917E+03  0.12509000000E+03 0.  0.
         25    1    4    4    0    0 -0.85750493515E+02  0.27239471187E+02  0.12992840464E+03  0.20155404824E+03  0.12509000000E+03 0.  0.
         25    1    4    4    0    0 -0.48565659986E+01  0.46930737107E+02  0.10491945569E+03  0.16994611088E+03  0.12509000000E+03 0.  0.
<mgrwt>
<rscale>  2 0.50227125E+03</rscale>
<asrwt>0</asrwt>
<pdfrwt beam="1">  1       21 0.55515426E-01 0.50227125E+03</pdfrwt>
<pdfrwt beam="2">  1       21 0.24568868E-01 0.50227125E+03</pdfrwt>
<totfact> 0.43494327E+04</totfact>
</mgrwt>
</event>
<event>
 7    0  0.4779893E-002  0.4561971E+03  0.7546771E-02  0.1025890E+00
         21   -1    0    0  502  501  0.00000000000E+00  0.00000000000E+00  0.74034097544E+02  0.74034097544E+02  0.00000000000E+00 0.  1.
         21   -1    0    0  501  502 -0.00000000000E+00 -0.00000000000E+00 -0.70277004960E+03  0.70277004960E+03  0.00000000000E+00 0.  1.
      99926    2    1    2    0    0  0.35527136788E-14  0.00000000000E+00 -0.62873595205E+03  0.77680414714E+03  0.45619709075E+03 0.  0.
      99925    2    3    3    0    0 -0.31579728879E+02 -0.57193130972E+02 -0.55480198675E+03  0.61748662509E+03  0.26308963142E+03 0.  0.
         25    1    4    4    0    0 -0.32933777557E+02 -0.53884079095E+02 -0.22891581817E+03  0.26839911996E+03  0.12509000000E+03 0.  0.
         25    1    4    4    0    0  0.13540486782E+01 -0.33090518771E+01 -0.32588616857E+03  0.34908750513E+03  0.12509000000E+03 0.  0.
         25    1    3    3    0    0  0.31579728879E+02  0.57193130972E+02 -0.73933965307E+02  0.15931752205E+03  0.12509000000E+03 0.  0.
<mgrwt>
<rscale>  2 0.45619709E+03</rscale>
<asrwt>0</asrwt>
<pdfrwt beam="1">  1       21 0.10887367E-01 0.45619709E+03</pdfrwt>
<pdfrwt beam="2">  1       21 0.10334854E+00 0.45619709E+03</pdfrwt>
<totfact> 0.48450385E+04</totfact>
</mgrwt>
</event>
<event>
 7    0  0.4779893E-002  0.4593970E+03  0.7546771E-02  0.1024956E+00
         21   -1    0    0  502  501  0.00000000000E+00  0.00000000000E+00  0.36548796081E+03  0.36548796081E+03  0.00000000000E+00 0. -1.
         21   -1    0    0  501  502 -0.00000000000E+00 -0.00000000000E+00 -0.14435880862E+03  0.14435880862E+03  0.00000000000E+00 0. -1.
      99926    2    1    2    0    0  0.35527136788E-14  0.14210854715E-13  0.22112915219E+03  0.50984676942E+03  0.45939702474E+03 0.  0.
      99925    2    3    3    0    0 -0.25524609895E+02 -0.67166388314E+02  0.24141568987E+03  0.36416945087E+03  0.26301145261E+03 0.  0.
         25    1    4    4    0    0  0.72197013340E+01  0.33482151199E+01  0.11343984895E+03  0.16905455351E+03  0.12509000000E+03 0.  0.
         25    1    3    3    0    0  0.25524609895E+02  0.67166388314E+02 -0.20286537677E+02  0.14567731855E+03  0.12509000000E+03 0.  0.
         25    1    4    4    0    0 -0.32744311229E+02 -0.70514603434E+02  0.12797584092E+03  0.19511489736E+03  0.12509000000E+03 0.  0.
<mgrwt>
<rscale>  2 0.45939702E+03</rscale>
<asrwt>0</asrwt>
<pdfrwt beam="1">  1       21 0.53748229E-01 0.45939702E+03</pdfrwt>
<pdfrwt beam="2">  1       21 0.21229237E-01 0.45939702E+03</pdfrwt>
<totfact> 0.62378769E+04</totfact>
</mgrwt>
</event>
<event>
 7    0  0.4779893E-002  0.4469040E+03  0.7546771E-02  0.1028649E+00
         21   -1    0    0  502  501  0.00000000000E+00  0.00000000000E+00  0.65720718411E+02  0.65720718411E+02  0.00000000000E+00 0.  1.
         21   -1    0    0  501  502 -0.00000000000E+00 -0.00000000000E+00 -0.75974215750E+03  0.75974215750E+03  0.00000000000E+00 0.  1.
      99926    2    1    2    0    0  0.00000000000E+00  0.00000000000E+00 -0.69402143909E+03  0.82546287592E+03  0.44690401832E+03 0.  0.
      99925    2    3    3    0    0  0.41810959948E+02 -0.16704067655E+02 -0.26429057379E+03  0.37563701301E+03  0.26310924708E+03 0.  0.
         25    1    4    4    0    0  0.55239619785E+02  0.10804423665E+02 -0.15237555349E+03  0.20502187338E+03  0.12509000000E+03 0.  0.
         25    1    3    3    0    0 -0.41810959948E+02  0.16704067655E+02 -0.42973086530E+03  0.44982586291E+03  0.12509000000E+03 0.  0.
         25    1    4    4    0    0 -0.13428659837E+02 -0.27508491319E+02 -0.11191502030E+03  0.17061513963E+03  0.12509000000E+03 0.  0.
<mgrwt>
<rscale>  2 0.44690402E+03</rscale>
<asrwt>0</asrwt>
<pdfrwt beam="1">  1       21 0.96648118E-02 0.44690402E+03</pdfrwt>
<pdfrwt beam="2">  1       21 0.11172678E+00 0.44690402E+03</pdfrwt>
<totfact> 0.49636507E+04</totfact>
</mgrwt>
</event>
<event>
 7    0  0.4779893E-002  0.4586769E+03  0.7546771E-02  0.1025166E+00
         21   -1    0    0  502  501  0.00000000000E+00  0.00000000000E+00  0.44479227487E+02  0.44479227487E+02  0.00000000000E+00 0. -1.
         21   -1    0    0  501  502 -0.00000000000E+00 -0.00000000000E+00 -0.11824876063E+04  0.11824876063E+04  0.00000000000E+00 0. -1.
      99926    2    1    2    0    0  0.26645352591E-14  0.00000000000E+00 -0.11380083789E+04  0.12269668338E+04  0.45867694620E+03 0.  0.
      99925    2    3    3    0    0  0.51089327010E+01 -0.90428575570E+02 -0.91050450518E+03  0.95199601881E+03  0.26282035198E+03 0.  0.
         25    1    4    4    0    0  0.31849455277E+02 -0.48461735873E+02 -0.36638208777E+03  0.39146681850E+03  0.12509000000E+03 0.  0.
         25    1    4    4    0    0 -0.26740522576E+02 -0.41966839697E+02 -0.54412241741E+03  0.56052920032E+03  0.12509000000E+03 0.  0.
         25    1    3    3    0    0 -0.51089327010E+01  0.90428575570E+02 -0.22750387368E+03  0.27497081502E+03  0.12509000000E+03 0.  0.
<mgrwt>
<rscale>  2 0.45867695E+03</rscale>
<asrwt>0</asrwt>
<pdfrwt beam="1">  1       21 0.65410632E-02 0.45867695E+03</pdfrwt>
<pdfrwt beam="2">  1       21 0.17389523E+00 0.45867695E+03</pdfrwt>
<totfact> 0.30431071E+04</totfact>
</mgrwt>
</event>
<event>
 7    0  0.4779893E-002  0.4540618E+03  0.7546771E-02  0.1026518E+00
         21   -1    0    0  502  501  0.00000000000E+00  0.00000000000E+00  0.33838182032E+03  0.33838182032E+03  0.00000000000E+00 0. -1.
         21   -1    0    0  501  502 -0.00000000000E+00 -0.00000000000E+00 -0.15232212604E+03  0.15232212604E+03  0.00000000000E+00 0. -1.
      99926    2    1    2    0    0  0.00000000000E+00  0.88817841970E-15  0.18605969428E+03  0.49070394637E+03  0.45406183846E+03 0.  0.
      99925    2    3    3    0    0 -0.55193744274E+02  0.63320112276E+01  0.22262591276E+03  0.34903164771E+03  0.26301017147E+03 0.  0.
         25    1    3    3    0    0  0.55193744274E+02 -0.63320112276E+01 -0.36566218477E+02  0.14167229866E+03  0.12509000000E+03 0.  0.
         25    1    4    4    0    0 -0.40295283705E+02 -0.80454626726E+00  0.63521747776E+02  0.14596875599E+03  0.12509000000E+03 0.  0.
         25    1    4    4    0    0 -0.14898460569E+02  0.71365574949E+01  0.15910416498E+03  0.20306289172E+03  0.12509000000E+03 0.  0.
<mgrwt>
<rscale>  2 0.45406184E+03</rscale>
<asrwt>0</asrwt>
<pdfrwt beam="1">  1       21 0.49762033E-01 0.45406184E+03</pdfrwt>
<pdfrwt beam="2">  1       21 0.22400313E-01 0.45406184E+03</pdfrwt>
<totfact> 0.66422116E+04</totfact>
</mgrwt>
</event>
<event>
 7    0  0.4779893E-002  0.4528355E+03  0.7546771E-02  0.1026880E+00
         21   -1    0    0  502  501  0.00000000000E+00  0.00000000000E+00  0.24494651867E+03  0.24494651867E+03  0.00000000000E+00 0.  1.
         21   -1    0    0  501  502 -0.00000000000E+00 -0.00000000000E+00 -0.20929058323E+03  0.20929058323E+03  0.00000000000E+00 0.  1.
      99926    2    1    2    0    0  0.00000000000E+00  0.44408920985E-15  0.35655935437E+02  0.45423710190E+03  0.45283550988E+03 0.  0.
      99925    2    3    3    0    0  0.70625628012E+02 -0.29680651921E+01 -0.63519892893E+02  0.27965147314E+03  0.26300832856E+03 0.  0.
         25    1    4    4    0    0  0.15142285823E+02  0.91897425365E+01 -0.65389827336E+02  0.14225708350E+03  0.12509000000E+03 0.  0.
         25    1    4    4    0    0  0.55483342189E+02 -0.12157807729E+02  0.18699344427E+01  0.13739438964E+03  0.12509000000E+03 0.  0.
         25    1    3    3    0    0 -0.70625628012E+02  0.29680651921E+01  0.99175828330E+02  0.17458562876E+03  0.12509000000E+03 0.  0.
<mgrwt>
<rscale>  2 0.45283551E+03</rscale>
<asrwt>0</asrwt>
<pdfrwt beam="1">  1       21 0.36021547E-01 0.45283551E+03</pdfrwt>
<pdfrwt beam="2">  1       21 0.30778027E-01 0.45283551E+03</pdfrwt>
<totfact> 0.69799409E+04</totfact>
</mgrwt>
</event>
<event>
 7    0  0.4779893E-002  0.4557426E+03  0.7546771E-02  0.1026023E+00
         21   -1    0    0  502  501  0.00000000000E+00  0.00000000000E+00  0.12380160125E+03  0.12380160125E+03  0.00000000000E+00 0. -1.
         21   -1    0    0  501  502 -0.00000000000E+00 -0.00000000000E+00 -0.41942374127E+03  0.41942374127E+03  0.00000000000E+00 0. -1.
      99926    2    1    2    0    0  0.00000000000E+00  0.26645352591E-14 -0.29562214002E+03  0.54322534252E+03  0.45574260618E+03 0.  0.
      99925    2    3    3    0    0  0.10655406522E+03  0.57940262371E+01 -0.23213588238E+03  0.36697168280E+03  0.26342704595E+03 0.  0.
         25    1    4    4    0    0  0.76097725290E+02  0.35656817223E+02 -0.14149291597E+03  0.20671242289E+03  0.12509000000E+03 0.  0.
         25    1    4    4    0    0  0.30456339931E+02 -0.29862790986E+02 -0.90642966416E+02  0.16025925991E+03  0.12509000000E+03 0.  0.
         25    1    3    3    0    0 -0.10655406522E+03 -0.57940262371E+01 -0.63486257643E+02  0.17625365972E+03  0.12509000000E+03 0.  0.
<mgrwt>
<rscale>  2 0.45574261E+03</rscale>
<asrwt>0</asrwt>
<pdfrwt beam="1">  1       21 0.18206118E-01 0.45574261E+03</pdfrwt>
<pdfrwt beam="2">  1       21 0.61679963E-01 0.45574261E+03</pdfrwt>
<totfact> 0.61951560E+04</totfact>
</mgrwt>
</event>
<event>
 7    0  0.4779893E-002  0.4634700E+03  0.7546771E-02  0.1023780E+00
         21   -1    0    0  502  501  0.00000000000E+00  0.00000000000E+00  0.43168550239E+03  0.43168550239E+03  0.00000000000E+00 0.  1.
         21   -1    0    0  501  502 -0.00000000000E+00 -0.00000000000E+00 -0.12439869109E+03  0.12439869109E+03  0.00000000000E+00 0.  1.
      99926    2    1    2    0    0  0.00000000000E+00  0.00000000000E+00  0.30728681130E+03  0.55608419348E+03  0.46347000534E+03 0.  0.
      99925    2    3    3    0    0 -0.65432760329E+02 -0.66055011427E+02  0.28468560420E+03  0.39859440549E+03  0.26303402098E+03 0.  0.
         25    1    3    3    0    0  0.65432760329E+02  0.66055011427E+02  0.22601207097E+02  0.15748978799E+03  0.12509000000E+03 0.  0.
         25    1    4    4    0    0 -0.57775173304E+02 -0.13791160081E+01  0.14743514069E+03  0.20180312540E+03  0.12509000000E+03 0.  0.
         25    1    4    4    0    0 -0.76575870251E+01 -0.64675895419E+02  0.13725046351E+03  0.19679128010E+03  0.12509000000E+03 0.  0.
<mgrwt>
<rscale>  2 0.46347001E+03</rscale>
<asrwt>0</asrwt>
<pdfrwt beam="1">  1       21 0.63483162E-01 0.46347001E+03</pdfrwt>
<pdfrwt beam="2">  1       21 0.18293925E-01 0.46347001E+03</pdfrwt>
<totfact> 0.57514511E+04</totfact>
</mgrwt>
</event>
<event>
 7    0  0.4779893E-002  0.4145206E+03  0.7546771E-02  0.1038865E+00
         21   -1    0    0  502  501  0.00000000000E+00  0.00000000000E+00  0.38158186666E+03  0.38158186666E+03  0.00000000000E+00 0. -1.
         21   -1    0    0  501  502 -0.00000000000E+00 -0.00000000000E+00 -0.11257566675E+03  0.11257566675E+03  0.00000000000E+00 0. -1.
      99926    2    1    2    0    0  0.35527136788E-14  0.00000000000E+00  0.26900619991E+03  0.49415753341E+03  0.41452060532E+03 0.  0.
      99925    2    3    3    0    0 -0.30462158099E+02 -0.61332430603E+02  0.18402335010E+03  0.32814788616E+03  0.26291981988E+03 0.  0.
         25    1    4    4    0    0 -0.44791223590E+02 -0.52725184756E+01  0.10368177602E+03  0.16861634541E+03  0.12509000000E+03 0.  0.
         25    1    4    4    0    0  0.14329065491E+02 -0.56059912128E+02  0.80341574084E+02  0.15953154074E+03  0.12509000000E+03 0.  0.
         25    1    3    3    0    0  0.30462158099E+02  0.61332430603E+02  0.84982849807E+02  0.16600964725E+03  0.12509000000E+03 0.  0.
<mgrwt>
<rscale>  2 0.41452061E+03</rscale>
<asrwt>0</asrwt>
<pdfrwt beam="1">  1       21 0.56114980E-01 0.41452061E+03</pdfrwt>
<pdfrwt beam="2">  1       21 0.16555245E-01 0.41452061E+03</pdfrwt>
<totfact> 0.91798261E+04</totfact>
</mgrwt>
</event>
<event>
 7    0  0.4779893E-002  0.4555829E+03  0.7546771E-02  0.1026070E+00
         21   -1    0    0  502  501  0.00000000000E+00  0.00000000000E+00  0.94044695462E+02  0.94044695462E+02  0.00000000000E+00 0. -1.
         21   -1    0    0  501  502 -0.00000000000E+00 -0.00000000000E+00 -0.55174772669E+03  0.55174772669E+03  0.00000000000E+00 0. -1.
      99926    2    1    2    0    0  0.71054273576E-14  0.71054273576E-14 -0.45770303123E+03  0.64579242215E+03  0.45558290981E+03 0.  0.
      99925    2    3    3    0    0  0.43427485508E+02 -0.40867430054E+02 -0.15023141214E+03  0.30853525324E+03  0.26280873647E+03 0.  0.
         25    1    4    4    0    0 -0.13406913051E+02 -0.10015424077E+02 -0.50281702583E+02  0.13585216874E+03  0.12509000000E+03 0.  0.
         25    1    3    3    0    0 -0.43427485508E+02  0.40867430054E+02 -0.30747161909E+03  0.33725716891E+03  0.12509000000E+03 0.  0.
         25    1    4    4    0    0  0.56834398559E+02 -0.30852005978E+02 -0.99949709561E+02  0.17268308450E+03  0.12509000000E+03 0.  0.
<mgrwt>
<rscale>  2 0.45558291E+03</rscale>
<asrwt>0</asrwt>
<pdfrwt beam="1">  1       21 0.13830102E-01 0.45558291E+03</pdfrwt>
<pdfrwt beam="2">  1       21 0.81139376E-01 0.45558291E+03</pdfrwt>
<totfact> 0.55687975E+04</totfact>
</mgrwt>
</event>
<event>
 7    0  0.4779893E-002  0.4546515E+03  0.7546771E-02  0.1026344E+00
         21   -1    0    0  502  501  0.00000000000E+00  0.00000000000E+00  0.16251839616E+03  0.16251839616E+03  0.00000000000E+00 0.  1.
         21   -1    0    0  501  502 -0.00000000000E+00 -0.00000000000E+00 -0.31797631796E+03  0.31797631796E+03  0.00000000000E+00 0.  1.
      99926    2    1    2    0    0  0.00000000000E+00  0.00000000000E+00 -0.15545792180E+03  0.48049471412E+03  0.45465152023E+03 0.  0.
      99925    2    3    3    0    0 -0.62269973507E+02 -0.48828248490E+02 -0.18361955080E+03  0.32982178059E+03  0.26230615712E+03 0.  0.
         25    1    3    3    0    0  0.62269973507E+02  0.48828248490E+02  0.28161629002E+02  0.15067293353E+03  0.12509000000E+03 0.  0.
         25    1    4    4    0    0 -0.36013737212E+02 -0.45223291731E+02 -0.54751131184E+02  0.14828125252E+03  0.12509000000E+03 0.  0.
         25    1    4    4    0    0 -0.26256236296E+02 -0.36049567591E+01 -0.12886841961E+03  0.18154052807E+03  0.12509000000E+03 0.  0.
<mgrwt>
<rscale>  2 0.45465152E+03</rscale>
<asrwt>0</asrwt>
<pdfrwt beam="1">  1       21 0.23899764E-01 0.45465152E+03</pdfrwt>
<pdfrwt beam="2">  1       21 0.46761223E-01 0.45465152E+03</pdfrwt>
<totfact> 0.66848824E+04</totfact>
</mgrwt>
</event>
<event>
 7    0  0.4779893E-002  0.4596580E+03  0.7546771E-02  0.1024880E+00
         21   -1    0    0  502  501  0.00000000000E+00  0.00000000000E+00  0.32565594160E+03  0.32565594160E+03  0.00000000000E+00 0. -1.
         21   -1    0    0  501  502 -0.00000000000E+00 -0.00000000000E+00 -0.16219995859E+03  0.16219995859E+03  0.00000000000E+00 0. -1.
      99926    2    1    2    0    0 -0.71054273576E-14  0.00000000000E+00  0.16345598301E+03  0.48785590019E+03  0.45965804787E+03 0.  0.
      99925    2    3    3    0    0  0.49041712390E+02  0.10255143114E+03  0.70834852044E+02  0.29511756050E+03  0.26297321664E+03 0.  0.
         25    1    3    3    0    0 -0.49041712390E+02 -0.10255143114E+03  0.92621130970E+02  0.19273833969E+03  0.12509000000E+03 0.  0.
         25    1    4    4    0    0  0.65300306976E+02  0.54812683064E+02  0.31471561079E+02  0.15461735857E+03  0.12509000000E+03 0.  0.
         25    1    4    4    0    0 -0.16258594585E+02  0.47738748080E+02  0.39363290965E+02  0.14050020193E+03  0.12509000000E+03 0.  0.
<mgrwt>
<rscale>  2 0.45965805E+03</rscale>
<asrwt>0</asrwt>
<pdfrwt beam="1">  1       21 0.47890580E-01 0.45965805E+03</pdfrwt>
<pdfrwt beam="2">  1       21 0.23852935E-01 0.45965805E+03</pdfrwt>
<totfact> 0.63742705E+04</totfact>
</mgrwt>
</event>
<event>
 7    0  0.4779893E-002  0.4579618E+03  0.7546771E-02  0.1025374E+00
         21   -1    0    0  502  501  0.00000000000E+00  0.00000000000E+00  0.36667570281E+03  0.36667570281E+03  0.00000000000E+00 0.  1.
         21   -1    0    0  501  502 -0.00000000000E+00 -0.00000000000E+00 -0.14299355747E+03  0.14299355747E+03  0.00000000000E+00 0.  1.
      99926    2    1    2    0    0  0.00000000000E+00 -0.71054273576E-14  0.22368214534E+03  0.50966926028E+03  0.45796184637E+03 0.  0.
      99925    2    3    3    0    0 -0.48257952090E+02  0.34176257400E+02  0.29303810461E+02  0.27107485196E+03  0.26291826781E+03 0.  0.
         25    1    3    3    0    0  0.48257952090E+02 -0.34176257400E+02  0.19437833488E+03  0.23859440832E+03  0.12509000000E+03 0.  0.
         25    1    4    4    0    0 -0.54949041729E+02 -0.75187284087E+01  0.56730100132E+01  0.13695115774E+03  0.12509000000E+03 0.  0.
         25    1    4    4    0    0  0.66910896384E+01  0.41694985809E+02  0.23630800447E+02  0.13412369422E+03  0.12509000000E+03 0.  0.
<mgrwt>
<rscale>  2 0.45796185E+03</rscale>
<asrwt>0</asrwt>
<pdfrwt beam="1">  1       21 0.53922898E-01 0.45796185E+03</pdfrwt>
<pdfrwt beam="2">  1       21 0.21028464E-01 0.45796185E+03</pdfrwt>
<totfact> 0.63100151E+04</totfact>
</mgrwt>
</event>
<event>
 7    0  0.4779893E-002  0.4540480E+03  0.7546771E-02  0.1026522E+00
         21   -1    0    0  502  501  0.00000000000E+00  0.00000000000E+00  0.74983138060E+03  0.74983138060E+03  0.00000000000E+00 0.  1.
         21   -1    0    0  501  502 -0.00000000000E+00 -0.00000000000E+00 -0.68735318284E+02  0.68735318284E+02  0.00000000000E+00 0.  1.
      99926    2    1    2    0    0  0.00000000000E+00  0.00000000000E+00  0.68109606232E+03  0.81856669889E+03  0.45404800894E+03 0.  0.
      99925    2    3    3    0    0  0.86047510492E+02  0.69440082162E+02  0.39333714102E+03  0.48588245826E+03  0.26294782309E+03 0.  0.
         25    1    4    4    0    0  0.70780009473E+02  0.49013058476E+02  0.16472372723E+03  0.22403906814E+03  0.12509000000E+03 0.  0.
         25    1    3    3    0    0 -0.86047510492E+02 -0.69440082162E+02  0.28775892130E+03  0.33268424063E+03  0.12509000000E+03 0.  0.
         25    1    4    4    0    0  0.15267501019E+02  0.20427023686E+02  0.22861341379E+03  0.26184339012E+03  0.12509000000E+03 0.  0.
<mgrwt>
<rscale>  2 0.45404801E+03</rscale>
<asrwt>0</asrwt>
<pdfrwt beam="1">  1       21 0.11026932E+00 0.45404801E+03</pdfrwt>
<pdfrwt beam="2">  1       21 0.10108135E-01 0.45404801E+03</pdfrwt>
<totfact> 0.47231680E+04</totfact>
</mgrwt>
</event>
<event>
 7    0  0.4779893E-002  0.4542511E+03  0.7546771E-02  0.1026462E+00
         21   -1    0    0  502  501  0.00000000000E+00  0.00000000000E+00  0.16881300794E+03  0.16881300794E+03  0.00000000000E+00 0.  1.
         21   -1    0    0  501  502 -0.00000000000E+00 -0.00000000000E+00 -0.30558079846E+03  0.30558079846E+03  0.00000000000E+00 0.  1.
      99926    2    1    2    0    0  0.00000000000E+00 -0.35527136788E-14 -0.13676779052E+03  0.47439380641E+03  0.45425109250E+03 0.  0.
      99925    2    3    3    0    0  0.10921242646E+03 -0.24747979024E+02 -0.97881807566E+02  0.30205853918E+03  0.26290434816E+03 0.  0.
         25    1    3    3    0    0 -0.10921242646E+03  0.24747979024E+02 -0.38885982953E+02  0.17233526723E+03  0.12509000000E+03 0.  0.
         25    1    4    4    0    0  0.60266426726E+02  0.27829819367E+01 -0.88372878681E+02  0.16461184941E+03  0.12509000000E+03 0.  0.
         25    1    4    4    0    0  0.48945999735E+02 -0.27530960961E+02 -0.95089288844E+01  0.13744668977E+03  0.12509000000E+03 0.  0.
<mgrwt>
<rscale>  2 0.45425109E+03</rscale>
<asrwt>0</asrwt>
<pdfrwt beam="1">  1       21 0.24825443E-01 0.45425109E+03</pdfrwt>
<pdfrwt beam="2">  1       21 0.44938352E-01 0.45425109E+03</pdfrwt>
<totfact> 0.67510853E+04</totfact>
</mgrwt>
</event>
<event>
 7    0  0.4779893E-002  0.4544157E+03  0.7546771E-02  0.1026413E+00
         21   -1    0    0  502  501  0.00000000000E+00  0.00000000000E+00  0.44382746316E+02  0.44382746316E+02  0.00000000000E+00 0. -1.
         21   -1    0    0  501  502 -0.00000000000E+00 -0.00000000000E+00 -0.11631415798E+04  0.11631415798E+04  0.00000000000E+00 0. -1.
      99926    2    1    2    0    0  0.00000000000E+00 -0.35527136788E-14 -0.11187588335E+04  0.12075243261E+04  0.45441574650E+03 0.  0.
      99925    2    3    3    0    0 -0.33578195505E+02 -0.16331480800E+02 -0.42279474107E+03  0.49942282315E+03  0.26319869058E+03 0.  0.
         25    1    4    4    0    0  0.11408246300E+02  0.11176779176E+02 -0.16082836825E+03  0.20437304277E+03  0.12509000000E+03 0.  0.
         25    1    4    4    0    0 -0.44986441804E+02 -0.27508259976E+02 -0.26196637282E+03  0.29504978038E+03  0.12509000000E+03 0.  0.
         25    1    3    3    0    0  0.33578195505E+02  0.16331480800E+02 -0.69596409241E+03  0.70810150297E+03  0.12509000000E+03 0.  0.
<mgrwt>
<rscale>  2 0.45441575E+03</rscale>
<asrwt>0</asrwt>
<pdfrwt beam="1">  1       21 0.65268750E-02 0.45441575E+03</pdfrwt>
<pdfrwt beam="2">  1       21 0.17105022E+00 0.45441575E+03</pdfrwt>
<totfact> 0.32064054E+04</totfact>
</mgrwt>
</event>
<event>
 7    0  0.4779893E-002  0.4612438E+03  0.7546771E-02  0.1024421E+00
         21   -1    0    0  502  501  0.00000000000E+00  0.00000000000E+00  0.70477963483E+03  0.70477963483E+03  0.00000000000E+00 0.  1.
         21   -1    0    0  501  502 -0.00000000000E+00 -0.00000000000E+00 -0.75465382154E+02  0.75465382154E+02  0.00000000000E+00 0.  1.
      99926    2    1    2    0    0  0.71054273576E-14  0.00000000000E+00  0.62931425267E+03  0.78024501698E+03  0.46124381612E+03 0.  0.
      99925    2    3    3    0    0  0.36276041703E+02 -0.10517983266E+03  0.46506836426E+03  0.54571790051E+03  0.26294618289E+03 0.  0.
         25    1    4    4    0    0  0.12715488697E+02 -0.94865557187E+02  0.26925277949E+03  0.31193865576E+03  0.12509000000E+03 0.  0.
         25    1    3    3    0    0 -0.36276041703E+02  0.10517983266E+03  0.16424588841E+03  0.23452711647E+03  0.12509000000E+03 0.  0.
         25    1    4    4    0    0  0.23560553006E+02 -0.10314275476E+02  0.19581558477E+03  0.23377924475E+03  0.12509000000E+03 0.  0.
<mgrwt>
<rscale>  2 0.46124382E+03</rscale>
<asrwt>0</asrwt>
<pdfrwt beam="1">  1       21 0.10364406E+00 0.46124382E+03</pdfrwt>
<pdfrwt beam="2">  1       21 0.11097851E-01 0.46124382E+03</pdfrwt>
<totfact> 0.46418184E+04</totfact>
</mgrwt>
</event>
<event>
 7    0  0.4779893E-002  0.4557298E+03  0.7546771E-02  0.1026027E+00
         21   -1    0    0  502  501  0.00000000000E+00  0.00000000000E+00  0.68520348316E+02  0.68520348316E+02  0.00000000000E+00 0.  1.
         21   -1    0    0  501  502 -0.00000000000E+00 -0.00000000000E+00 -0.75776632367E+03  0.75776632367E+03  0.00000000000E+00 0.  1.
      99926    2    1    2    0    0  0.35527136788E-14  0.00000000000E+00 -0.68924597535E+03  0.82628667198E+03  0.45572979907E+03 0.  0.
      99925    2    3    3    0    0 -0.21567802481E+02  0.18124933674E+02 -0.23361023081E+03  0.35295262173E+03  0.26307438097E+03 0.  0.
         25    1    4    4    0    0 -0.45785899563E+02 -0.82490542265E+01 -0.10292300823E+03  0.16853797559E+03  0.12509000000E+03 0.  0.
         25    1    3    3    0    0  0.21567802481E+02 -0.18124933674E+02 -0.45563574454E+03  0.47333405025E+03  0.12509000000E+03 0.  0.
         25    1    4    4    0    0  0.24218097083E+02  0.26373987901E+02 -0.13068722258E+03  0.18441464614E+03  0.12509000000E+03 0.  0.
<mgrwt>
<rscale>  2 0.45572980E+03</rscale>
<asrwt>0</asrwt>
<pdfrwt beam="1">  1       21 0.10076521E-01 0.45572980E+03</pdfrwt>
<pdfrwt beam="2">  1       21 0.11143623E+00 0.45572980E+03</pdfrwt>
<totfact> 0.46254065E+04</totfact>
</mgrwt>
</event>
<event>
 7    0  0.4779893E-002  0.4527530E+03  0.7546771E-02  0.1026904E+00
         21   -1    0    0  502  501  0.00000000000E+00  0.00000000000E+00  0.18025220840E+03  0.18025220840E+03  0.00000000000E+00 0. -1.
         21   -1    0    0  501  502 -0.00000000000E+00 -0.00000000000E+00 -0.28430344142E+03  0.28430344142E+03  0.00000000000E+00 0. -1.
      99926    2    1    2    0    0  0.00000000000E+00  0.00000000000E+00 -0.10405123302E+03  0.46455564982E+03  0.45275301510E+03 0.  0.
      99925    2    3    3    0    0 -0.10026942707E+03  0.37444017318E+02 -0.34875815360E+02  0.28598141050E+03  0.26289357584E+03 0.  0.
         25    1    3    3    0    0  0.10026942707E+03 -0.37444017318E+02 -0.69175417662E+02  0.17857423932E+03  0.12509000000E+03 0.  0.
         25    1    4    4    0    0 -0.42590882194E+02 -0.20578816454E+02 -0.26079169087E+02  0.13625381497E+03  0.12509000000E+03 0.  0.
         25    1    4    4    0    0 -0.57678544881E+02  0.58022833772E+02 -0.87966462735E+01  0.14972759553E+03  0.12509000000E+03 0.  0.
<mgrwt>
<rscale>  2 0.45275302E+03</rscale>
<asrwt>0</asrwt>
<pdfrwt beam="1">  1       21 0.26507678E-01 0.45275302E+03</pdfrwt>
<pdfrwt beam="2">  1       21 0.41809329E-01 0.45275302E+03</pdfrwt>
<totfact> 0.69065898E+04</totfact>
</mgrwt>
</event>
<event>
 7    0  0.4779893E-002  0.4643629E+03  0.7546771E-02  0.1023523E+00
         21   -1    0    0  502  501  0.00000000000E+00  0.00000000000E+00  0.79431518199E+03  0.79431518199E+03  0.00000000000E+00 0. -1.
         21   -1    0    0  501  502 -0.00000000000E+00 -0.00000000000E+00 -0.67867549799E+02  0.67867549799E+02  0.00000000000E+00 0. -1.
      99926    2    1    2    0    0  0.14210854715E-13  0.00000000000E+00  0.72644763219E+03  0.86218273179E+03  0.46436289761E+03 0.  0.
      99925    2    3    3    0    0 -0.72675025454E+02 -0.82772300952E+02  0.55001377014E+03  0.61947029102E+03  0.26286000261E+03 0.  0.
         25    1    3    3    0    0  0.72675025454E+02  0.82772300952E+02  0.17643386205E+03  0.24271244078E+03  0.12509000000E+03 0.  0.
         25    1    4    4    0    0 -0.67086112232E+02 -0.17715715347E+02  0.25291293364E+03  0.29056299339E+03  0.12509000000E+03 0.  0.
         25    1    4    4    0    0 -0.55889132225E+01 -0.65056585604E+02  0.29710083650E+03  0.32890729763E+03  0.12509000000E+03 0.  0.
<mgrwt>
<rscale>  2 0.46436290E+03</rscale>
<asrwt>0</asrwt>
<pdfrwt beam="1">  1       21 0.11681105E+00 0.46436290E+03</pdfrwt>
<pdfrwt beam="2">  1       21 0.99805225E-02 0.46436290E+03</pdfrwt>
<totfact> 0.41747786E+04</totfact>
</mgrwt>
</event>
<event>
 7    0  0.4779893E-002  0.4593348E+03  0.7546771E-02  0.1024974E+00
         21   -1    0    0  502  501  0.00000000000E+00  0.00000000000E+00  0.10675511684E+04  0.10675511684E+04  0.00000000000E+00 0. -1.
         21   -1    0    0  501  502 -0.00000000000E+00 -0.00000000000E+00 -0.49409438717E+02  0.49409438717E+02  0.00000000000E+00 0. -1.
      99926    2    1    2    0    0  0.00000000000E+00  0.00000000000E+00  0.10181417297E+04  0.11169606071E+04  0.45933475389E+03 0.  0.
      99925    2    3    3    0    0 -0.87469572687E+01  0.11348709537E+03  0.57035841639E+03  0.63830286526E+03  0.26299428620E+03 0.  0.
         25    1    4    4    0    0  0.24880045156E+02  0.52516966746E+02  0.21798478247E+03  0.25795720950E+03  0.12509000000E+03 0.  0.
         25    1    4    4    0    0 -0.33627002424E+02  0.60970128621E+02  0.35237363391E+03  0.38034565576E+03  0.12509000000E+03 0.  0.
         25    1    3    3    0    0  0.87469572687E+01 -0.11348709537E+03  0.44778331330E+03  0.47865774187E+03  0.12509000000E+03 0.  0.
<mgrwt>
<rscale>  2 0.45933475E+03</rscale>
<asrwt>0</asrwt>
<pdfrwt beam="1">  1       21 0.15699280E+00 0.45933475E+03</pdfrwt>
<pdfrwt beam="2">  1       21 0.72660946E-02 0.45933475E+03</pdfrwt>
<totfact> 0.33749689E+04</totfact>
</mgrwt>
</event>
<event>
 7    0  0.4779893E-002  0.4541801E+03  0.7546771E-02  0.1026483E+00
         21   -1    0    0  502  501  0.00000000000E+00  0.00000000000E+00  0.63342465496E+03  0.63342465496E+03  0.00000000000E+00 0. -1.
         21   -1    0    0  501  502 -0.00000000000E+00 -0.00000000000E+00 -0.81414402689E+02  0.81414402689E+02  0.00000000000E+00 0. -1.
      99926    2    1    2    0    0 -0.71054273576E-14  0.00000000000E+00  0.55201025227E+03  0.71483905765E+03  0.45418009614E+03 0.  0.
      99925    2    3    3    0    0  0.60781997855E+02 -0.93982121924E+02  0.33449660811E+03  0.44009047439E+03  0.26318159949E+03 0.  0.
         25    1    3    3    0    0 -0.60781997855E+02  0.93982121924E+02  0.21751364416E+03  0.27474858325E+03  0.12509000000E+03 0.  0.
         25    1    4    4    0    0  0.71956280172E+02 -0.55245100929E+02  0.18456765280E+03  0.24071238853E+03  0.12509000000E+03 0.  0.
         25    1    4    4    0    0 -0.11174282318E+02 -0.38737020996E+02  0.14992895531E+03  0.19937808586E+03  0.12509000000E+03 0.  0.
<mgrwt>
<rscale>  2 0.45418010E+03</rscale>
<asrwt>0</asrwt>
<pdfrwt beam="1">  1       21 0.93150682E-01 0.45418010E+03</pdfrwt>
<pdfrwt beam="2">  1       21 0.11972707E-01 0.45418010E+03</pdfrwt>
<totfact> 0.52442143E+04</totfact>
</mgrwt>
</event>
<event>
 7    0  0.4779893E-002  0.4542395E+03  0.7546771E-02  0.1026465E+00
         21   -1    0    0  502  501  0.00000000000E+00  0.00000000000E+00  0.26075973831E+03  0.26075973831E+03  0.00000000000E+00 0. -1.
         21   -1    0    0  501  502 -0.00000000000E+00 -0.00000000000E+00 -0.19781956903E+03  0.19781956903E+03  0.00000000000E+00 0. -1.
      99926    2    1    2    0    0 -0.71054273576E-14  0.00000000000E+00  0.62940169279E+02  0.45857930734E+03  0.45423949213E+03 0.  0.
      99925    2    3    3    0    0  0.41378921800E+02 -0.97527450805E+02  0.77431450815E+02  0.29401526458E+03  0.26310744459E+03 0.  0.
         25    1    3    3    0    0 -0.41378921800E+02  0.97527450805E+02 -0.14491281536E+02  0.16456404276E+03  0.12509000000E+03 0.  0.
         25    1    4    4    0    0  0.32996733356E+02 -0.19228395155E+02  0.89107170665E+01  0.13109319041E+03  0.12509000000E+03 0.  0.
         25    1    4    4    0    0  0.83821884445E+01 -0.78299055651E+02  0.68520733748E+02  0.16292207417E+03  0.12509000000E+03 0.  0.
<mgrwt>
<rscale>  2 0.45423949E+03</rscale>
<asrwt>0</asrwt>
<pdfrwt beam="1">  1       21 0.38347021E-01 0.45423949E+03</pdfrwt>
<pdfrwt beam="2">  1       21 0.29091113E-01 0.45423949E+03</pdfrwt>
<totfact> 0.68699945E+04</totfact>
</mgrwt>
</event>
<event>
 7    0  0.4779893E-002  0.4538310E+03  0.7546771E-02  0.1026586E+00
         21   -1    0    0  502  501  0.00000000000E+00  0.00000000000E+00  0.34701555165E+02  0.34701555165E+02  0.00000000000E+00 0.  1.
         21   -1    0    0  501  502 -0.00000000000E+00 -0.00000000000E+00 -0.14838139401E+04  0.14838139401E+04  0.00000000000E+00 0.  1.
      99926    2    1    2    0    0  0.00000000000E+00  0.00000000000E+00 -0.14491123849E+04  0.15185154953E+04  0.45383103154E+03 0.  0.
      99925    2    3    3    0    0 -0.87770424676E+02 -0.55599559624E+02 -0.10519437913E+04  0.10893472784E+04  0.26324284315E+03 0.  0.
         25    1    4    4    0    0 -0.28673610857E+02  0.70286185755E+01 -0.40937079242E+03  0.42907287403E+03  0.12509000000E+03 0.  0.
         25    1    3    3    0    0  0.87770424676E+02  0.55599559624E+02 -0.39716859361E+03  0.42916821682E+03  0.12509000000E+03 0.  0.
         25    1    4    4    0    0 -0.59096813819E+02 -0.62628178200E+02 -0.64257299889E+03  0.66027440440E+03  0.12509000000E+03 0.  0.
<mgrwt>
<rscale>  2 0.45383103E+03</rscale>
<asrwt>0</asrwt>
<pdfrwt beam="1">  1       21 0.51031684E-02 0.45383103E+03</pdfrwt>
<pdfrwt beam="2">  1       21 0.21820799E+00 0.45383103E+03</pdfrwt>
<totfact> 0.23541969E+04</totfact>
</mgrwt>
</event>
<event>
 7    0  0.4779893E-002  0.4574523E+03  0.7546771E-02  0.1025523E+00
         21   -1    0    0  502  501  0.00000000000E+00  0.00000000000E+00  0.15987561794E+03  0.15987561794E+03  0.00000000000E+00 0.  1.
         21   -1    0    0  501  502 -0.00000000000E+00 -0.00000000000E+00 -0.32722724091E+03  0.32722724091E+03  0.00000000000E+00 0.  1.
      99926    2    1    2    0    0 -0.14210854715E-13  0.71054273576E-14 -0.16735162297E+03  0.48710285886E+03  0.45745232472E+03 0.  0.
      99925    2    3    3    0    0 -0.94452411806E+02  0.61101609581E+02 -0.13215635884E+03  0.31522825484E+03  0.26315182818E+03 0.  0.
         25    1    3    3    0    0  0.94452411806E+02 -0.61101609581E+02 -0.35195264128E+02  0.17187460402E+03  0.12509000000E+03 0.  0.
         25    1    4    4    0    0 -0.38979454289E+01  0.26980089983E+02 -0.60470082267E+02  0.14158834056E+03  0.12509000000E+03 0.  0.
         25    1    4    4    0    0 -0.90554466377E+02  0.34121519598E+02 -0.71686276576E+02  0.17363991428E+03  0.12509000000E+03 0.  0.
<mgrwt>
<rscale>  2 0.45745232E+03</rscale>
<asrwt>0</asrwt>
<pdfrwt beam="1">  1       21 0.23511120E-01 0.45745232E+03</pdfrwt>
<pdfrwt beam="2">  1       21 0.48121653E-01 0.45745232E+03</pdfrwt>
<totfact> 0.64913642E+04</totfact>
</mgrwt>
</event>
<event>
 7    0  0.4779893E-002  0.4517851E+03  0.7546771E-02  0.1027191E+00
         21   -1    0    0  502  501  0.00000000000E+00  0.00000000000E+00  0.83157562773E+03  0.83157562773E+03  0.00000000000E+00 0. -1.
         21   -1    0    0  501  502 -0.00000000000E+00 -0.00000000000E+00 -0.61362369017E+02  0.61362369017E+02  0.00000000000E+00 0. -1.
      99926    2    1    2    0    0  0.14210854715E-13  0.88817841970E-15  0.77021325871E+03  0.89293799675E+03  0.45178512828E+03 0.  0.
      99925    2    3    3    0    0 -0.95290161010E+02 -0.74036126805E+01  0.37845846260E+03  0.47073620063E+03  0.26310973833E+03 0.  0.
         25    1    4    4    0    0 -0.72714468941E+02 -0.31591397954E+02  0.17080983106E+03  0.22607281328E+03  0.12509000000E+03 0.  0.
         25    1    3    3    0    0  0.95290161010E+02  0.74036126805E+01  0.39175479611E+03  0.42220179611E+03  0.12509000000E+03 0.  0.
         25    1    4    4    0    0 -0.22575692069E+02  0.24187785274E+02  0.20764863154E+03  0.24466338735E+03  0.12509000000E+03 0.  0.
<mgrwt>
<rscale>  2 0.45178513E+03</rscale>
<asrwt>0</asrwt>
<pdfrwt beam="1">  1       21 0.12229053E+00 0.45178513E+03</pdfrwt>
<pdfrwt beam="2">  1       21 0.90238783E-02 0.45178513E+03</pdfrwt>
<totfact> 0.44653950E+04</totfact>
</mgrwt>
</event>
<event>
 7    0  0.4779893E-002  0.4538937E+03  0.7546771E-02  0.1026567E+00
         21   -1    0    0  502  501  0.00000000000E+00  0.00000000000E+00  0.11039985111E+03  0.11039985111E+03  0.00000000000E+00 0.  1.
         21   -1    0    0  501  502 -0.00000000000E+00 -0.00000000000E+00 -0.46653030627E+03  0.46653030627E+03  0.00000000000E+00 0.  1.
      99926    2    1    2    0    0  0.00000000000E+00  0.00000000000E+00 -0.35613045516E+03  0.57693015738E+03  0.45389371597E+03 0.  0.
      99925    2    3    3    0    0  0.65299777549E+02 -0.52568544326E+02 -0.12951608905E+03  0.30484728061E+03  0.26292572025E+03 0.  0.
         25    1    4    4    0    0  0.70548435814E+02 -0.20644316244E+02 -0.85185176072E+02  0.16824770997E+03  0.12509000000E+03 0.  0.
         25    1    4    4    0    0 -0.52486582651E+01 -0.31924228082E+02 -0.44330912975E+02  0.13659957063E+03  0.12509000000E+03 0.  0.
         25    1    3    3    0    0 -0.65299777549E+02  0.52568544326E+02 -0.22661436612E+03  0.27208287677E+03  0.12509000000E+03 0.  0.
<mgrwt>
<rscale>  2 0.45389372E+03</rscale>
<asrwt>0</asrwt>
<pdfrwt beam="1">  1       21 0.16235273E-01 0.45389372E+03</pdfrwt>
<pdfrwt beam="2">  1       21 0.68607396E-01 0.45389372E+03</pdfrwt>
<totfact> 0.60649978E+04</totfact>
</mgrwt>
</event>
<event>
 7    0  0.4779893E-002  0.4561114E+03  0.7546771E-02  0.1025915E+00
         21   -1    0    0  502  501  0.00000000000E+00  0.00000000000E+00  0.41105550936E+03  0.41105550936E+03  0.00000000000E+00 0. -1.
         21   -1    0    0  501  502 -0.00000000000E+00 -0.00000000000E+00 -0.12652645544E+03  0.12652645544E+03  0.00000000000E+00 0. -1.
      99926    2    1    2    0    0  0.55511151231E-16 -0.14210854715E-13  0.28452905392E+03  0.53758196480E+03  0.45611137494E+03 0.  0.
      99925    2    3    3    0    0 -0.24328169860E+00  0.11110541661E+03  0.14751486904E+03  0.32133010297E+03  0.26295993174E+03 0.  0.
         25    1    4    4    0    0  0.30975980428E+01  0.51009188091E+02  0.27654353632E+02  0.13792680580E+03  0.12509000000E+03 0.  0.
         25    1    3    3    0    0  0.24328169860E+00 -0.11110541661E+03  0.13701418488E+03  0.21625186183E+03  0.12509000000E+03 0.  0.
         25    1    4    4    0    0 -0.33408797414E+01  0.60096228518E+02  0.11986051541E+03  0.18340329717E+03  0.12509000000E+03 0.  0.
<mgrwt>
<rscale>  2 0.45611137E+03</rscale>
<asrwt>0</asrwt>
<pdfrwt beam="1">  1       21 0.60449339E-01 0.45611137E+03</pdfrwt>
<pdfrwt beam="2">  1       21 0.18606832E-01 0.45611137E+03</pdfrwt>
<totfact> 0.62146201E+04</totfact>
</mgrwt>
</event>
<event>
 7    0  0.4779893E-002  0.4514998E+03  0.7546771E-02  0.1027276E+00
         21   -1    0    0  502  501  0.00000000000E+00  0.00000000000E+00  0.56369951046E+03  0.56369951046E+03  0.00000000000E+00 0.  1.
         21   -1    0    0  501  502 -0.00000000000E+00 -0.00000000000E+00 -0.90408145873E+02  0.90408145873E+02  0.00000000000E+00 0.  1.
      99926    2    1    2    0    0  0.00000000000E+00  0.00000000000E+00  0.47329136459E+03  0.65410765634E+03  0.45149984527E+03 0.  0.
      99925    2    3    3    0    0 -0.77988061852E+02 -0.74680638282E+02  0.26660885180E+03  0.38948621972E+03  0.26260217053E+03 0.  0.
         25    1    4    4    0    0 -0.52909060508E+02 -0.66929593822E+02  0.10901412490E+03  0.18657579356E+03  0.12509000000E+03 0.  0.
         25    1    3    3    0    0  0.77988061852E+02  0.74680638282E+02  0.20668251279E+03  0.26462143662E+03  0.12509000000E+03 0.  0.
         25    1    4    4    0    0 -0.25079001344E+02 -0.77510444601E+01  0.15759472690E+03  0.20291042616E+03  0.12509000000E+03 0.  0.
<mgrwt>
<rscale>  2 0.45149985E+03</rscale>
<asrwt>0</asrwt>
<pdfrwt beam="1">  1       21 0.82896985E-01 0.45149985E+03</pdfrwt>
<pdfrwt beam="2">  1       21 0.13295316E-01 0.45149985E+03</pdfrwt>
<totfact> 0.57023543E+04</totfact>
</mgrwt>
</event>
<event>
 7    0  0.4779893E-002  0.4464661E+03  0.7546771E-02  0.1028781E+00
         21   -1    0    0  502  501  0.00000000000E+00  0.00000000000E+00  0.13026601781E+03  0.13026601781E+03  0.00000000000E+00 0. -1.
         21   -1    0    0  501  502 -0.00000000000E+00 -0.00000000000E+00 -0.38254794751E+03  0.38254794751E+03  0.00000000000E+00 0. -1.
      99926    2    1    2    0    0  0.00000000000E+00  0.00000000000E+00 -0.25228192970E+03  0.51281396532E+03  0.44646611403E+03 0.  0.
      99925    2    3    3    0    0  0.21091276784E+02 -0.66675901378E+02 -0.70009934407E+02  0.28094955203E+03  0.26294627225E+03 0.  0.
         25    1    4    4    0    0  0.45660943616E+02 -0.13723216454E+02 -0.29388913625E+02  0.13705642920E+03  0.12509000000E+03 0.  0.
         25    1    4    4    0    0 -0.24569666832E+02 -0.52952684923E+02 -0.40621020781E+02  0.14389312283E+03  0.12509000000E+03 0.  0.
         25    1    3    3    0    0 -0.21091276784E+02  0.66675901378E+02 -0.18227199530E+03  0.23186441329E+03  0.12509000000E+03 0.  0.
<mgrwt>
<rscale>  2 0.44646611E+03</rscale>
<asrwt>0</asrwt>
<pdfrwt beam="1">  1       21 0.19156767E-01 0.44646611E+03</pdfrwt>
<pdfrwt beam="2">  1       21 0.56257052E-01 0.44646611E+03</pdfrwt>
<totfact> 0.68929866E+04</totfact>
</mgrwt>
</event>
<event>
 6    0  0.4779893E-002  0.4633910E+03  0.7546771E-02  0.1023802E+00
         21   -1    0    0  502  501  0.00000000000E+00  0.00000000000E+00  0.75785913843E+02  0.75785913843E+02  0.00000000000E+00 0.  1.
         21   -1    0    0  501  502 -0.00000000000E+00 -0.00000000000E+00 -0.70834815491E+03  0.70834815491E+03  0.00000000000E+00 0.  1.
      99926    2    1    2    0    0  0.00000000000E+00  0.00000000000E+00 -0.63256224107E+03  0.78413406875E+03  0.46339103245E+03 0.  0.
         25    1    3    3    0    0  0.88441348032E+01  0.99707166345E+02 -0.16417336530E+03  0.22939080128E+03  0.12509000000E+03 0.  0.
         25    1    3    3    0    0 -0.30985715664E+02 -0.10371742951E+03 -0.21509231574E+03  0.27134780660E+03  0.12509000000E+03 0.  0.
         25    1    3    3    0    0  0.22141580860E+02  0.40102631674E+01 -0.25329656004E+03  0.28339546087E+03  0.12509000000E+03 0.  0.
<mgrwt>
<rscale>  2 0.46339103E+03</rscale>
<asrwt>0</asrwt>
<pdfrwt beam="1">  1       21 0.11144988E-01 0.46339103E+03</pdfrwt>
<pdfrwt beam="2">  1       21 0.10416884E+00 0.46339103E+03</pdfrwt>
<totfact> 0.45472279E+04</totfact>
</mgrwt>
</event>
<event>
 7    0  0.4779893E-002  0.4566774E+03  0.7546771E-02  0.1025749E+00
         21   -1    0    0  502  501  0.00000000000E+00  0.00000000000E+00  0.22128254336E+03  0.22128254336E+03  0.00000000000E+00 0. -1.
         21   -1    0    0  501  502 -0.00000000000E+00 -0.00000000000E+00 -0.23561989907E+03  0.23561989907E+03  0.00000000000E+00 0. -1.
      99926    2    1    2    0    0  0.00000000000E+00  0.00000000000E+00 -0.14337355712E+02  0.45690244243E+03  0.45667743773E+03 0.  0.
      99925    2    3    3    0    0  0.24504526948E+02 -0.11193686461E+03 -0.19209227888E+01  0.28680832317E+03  0.26291631900E+03 0.  0.
         25    1    3    3    0    0 -0.24504526948E+02  0.11193686461E+03 -0.12416432923E+02  0.17009411926E+03  0.12509000000E+03 0.  0.
         25    1    4    4    0    0  0.10352407653E+02 -0.63229265520E+02  0.38828913623E+02  0.14580913893E+03  0.12509000000E+03 0.  0.
         25    1    4    4    0    0  0.14152119295E+02 -0.48707599091E+02 -0.40749836412E+02  0.14099918424E+03  0.12509000000E+03 0.  0.
<mgrwt>
<rscale>  2 0.45667744E+03</rscale>
<asrwt>0</asrwt>
<pdfrwt beam="1">  1       21 0.32541551E-01 0.45667744E+03</pdfrwt>
<pdfrwt beam="2">  1       21 0.34649985E-01 0.45667744E+03</pdfrwt>
<totfact> 0.67498710E+04</totfact>
</mgrwt>
</event>
<event>
 7    0  0.4779893E-002  0.4621967E+03  0.7546771E-02  0.1024146E+00
         21   -1    0    0  502  501  0.00000000000E+00  0.00000000000E+00  0.48444778145E+03  0.48444778145E+03  0.00000000000E+00 0. -1.
         21   -1    0    0  501  502 -0.00000000000E+00 -0.00000000000E+00 -0.11024191595E+03  0.11024191595E+03  0.00000000000E+00 0. -1.
      99926    2    1    2    0    0 -0.14210854715E-13  0.00000000000E+00  0.37420586550E+03  0.59468969739E+03  0.46219671831E+03 0.  0.
      99925    2    3    3    0    0  0.95547148631E+02  0.63766463327E+02  0.19042091025E+03  0.34445013751E+03  0.26304059518E+03 0.  0.
         25    1    4    4    0    0  0.87125256772E+02  0.49712488848E+02  0.11690082599E+03  0.19843249011E+03  0.12509000000E+03 0.  0.
         25    1    4    4    0    0  0.84218918588E+01  0.14053974478E+02  0.73520084267E+02  0.14601764740E+03  0.12509000000E+03 0.  0.
         25    1    3    3    0    0 -0.95547148631E+02 -0.63766463327E+02  0.18378495525E+03  0.25023955989E+03  0.12509000000E+03 0.  0.
<mgrwt>
<rscale>  2 0.46219672E+03</rscale>
<asrwt>0</asrwt>
<pdfrwt beam="1">  1       21 0.71242320E-01 0.46219672E+03</pdfrwt>
<pdfrwt beam="2">  1       21 0.16212047E-01 0.46219672E+03</pdfrwt>
<totfact> 0.55766365E+04</totfact>
</mgrwt>
</event>
<event>
 7    0  0.4779893E-002  0.4526450E+03  0.7546771E-02  0.1026936E+00
         21   -1    0    0  502  501  0.00000000000E+00  0.00000000000E+00  0.11692387884E+03  0.11692387884E+03  0.00000000000E+00 0.  1.
         21   -1    0    0  501  502 -0.00000000000E+00 -0.00000000000E+00 -0.43807880108E+03  0.43807880108E+03  0.00000000000E+00 0.  1.
      99926    2    1    2    0    0  0.71054273576E-14 -0.71054273576E-14 -0.32115492224E+03  0.55500267993E+03  0.45264499406E+03 0.  0.
      99925    2    3    3    0    0  0.54527964384E+02 -0.36347538239E+02 -0.92899356448E+02  0.28659523992E+03  0.26308192390E+03 0.  0.
         25    1    4    4    0    0 -0.13524381331E+02 -0.21902381099E+02 -0.37356949498E+02  0.13306266555E+03  0.12509000000E+03 0.  0.
         25    1    3    3    0    0 -0.54527964384E+02  0.36347538239E+02 -0.22825556579E+03  0.26840744001E+03  0.12509000000E+03 0.  0.
         25    1    4    4    0    0  0.68052345715E+02 -0.14445157141E+02 -0.55542406950E+02  0.15353257437E+03  0.12509000000E+03 0.  0.
<mgrwt>
<rscale>  2 0.45264499E+03</rscale>
<asrwt>0</asrwt>
<pdfrwt beam="1">  1       21 0.17194688E-01 0.45264499E+03</pdfrwt>
<pdfrwt beam="2">  1       21 0.64423354E-01 0.45264499E+03</pdfrwt>
<totfact> 0.62697051E+04</totfact>
</mgrwt>
</event>
<event>
 7    0  0.4779893E-002  0.4504744E+03  0.7546771E-02  0.1027581E+00
         21   -1    0    0  502  501  0.00000000000E+00  0.00000000000E+00  0.25235245610E+03  0.25235245610E+03  0.00000000000E+00 0.  1.
         21   -1    0    0  501  502 -0.00000000000E+00 -0.00000000000E+00 -0.20103550534E+03  0.20103550534E+03  0.00000000000E+00 0.  1.
      99926    2    1    2    0    0  0.35527136788E-14  0.00000000000E+00  0.51316950768E+02  0.45338796144E+03  0.45047443228E+03 0.  0.
      99925    2    3    3    0    0 -0.29728732967E+02 -0.98976903917E+02  0.66959316798E+02  0.29037748083E+03  0.26297396486E+03 0.  0.
         25    1    4    4    0    0 -0.31363641519E+02 -0.12201155178E+02  0.41427262905E+02  0.13600100150E+03  0.12509000000E+03 0.  0.
         25    1    3    3    0    0  0.29728732967E+02  0.98976903917E+02 -0.15642366029E+02  0.16301048061E+03  0.12509000000E+03 0.  0.
         25    1    4    4    0    0  0.16349085526E+01 -0.86775748739E+02  0.25532053893E+02  0.15437647933E+03  0.12509000000E+03 0.  0.
<mgrwt>
<rscale>  2 0.45047443E+03</rscale>
<asrwt>0</asrwt>
<pdfrwt beam="1">  1       21 0.37110655E-01 0.45047443E+03</pdfrwt>
<pdfrwt beam="2">  1       21 0.29564045E-01 0.45047443E+03</pdfrwt>
<totfact> 0.71200279E+04</totfact>
</mgrwt>
</event>
<event>
 7    0  0.4779893E-002  0.4474663E+03  0.7546771E-02  0.1028480E+00
         21   -1    0    0  502  501  0.00000000000E+00  0.00000000000E+00  0.95632135825E+02  0.95632135825E+02  0.00000000000E+00 0. -1.
         21   -1    0    0  501  502 -0.00000000000E+00 -0.00000000000E+00 -0.52342794616E+03  0.52342794616E+03  0.00000000000E+00 0. -1.
      99926    2    1    2    0    0  0.35527136788E-14  0.00000000000E+00 -0.42779581034E+03  0.61906008199E+03  0.44746634484E+03 0.  0.
      99925    2    3    3    0    0 -0.25073158533E+02 -0.97457519896E+02 -0.22677462064E+03  0.36179823431E+03  0.26333363310E+03 0.  0.
         25    1    4    4    0    0 -0.43326154821E+02 -0.58526382569E+02 -0.15183532306E+03  0.20977122438E+03  0.12509000000E+03 0.  0.
         25    1    4    4    0    0  0.18252996288E+02 -0.38931137326E+02 -0.74939297577E+02  0.15202700993E+03  0.12509000000E+03 0.  0.
         25    1    3    3    0    0  0.25073158533E+02  0.97457519896E+02 -0.20102118970E+03  0.25726184768E+03  0.12509000000E+03 0.  0.
<mgrwt>
<rscale>  2 0.44746634E+03</rscale>
<asrwt>0</asrwt>
<pdfrwt beam="1">  1       21 0.14063550E-01 0.44746634E+03</pdfrwt>
<pdfrwt beam="2">  1       21 0.76974696E-01 0.44746634E+03</pdfrwt>
<totfact> 0.61073009E+04</totfact>
</mgrwt>
</event>
<event>
 6    0  0.4779893E-002  0.5174669E+03  0.7546771E-02  0.1009318E+00
         21   -1    0    0  502  501  0.00000000000E+00  0.00000000000E+00  0.16031021160E+03  0.16031021160E+03  0.00000000000E+00 0. -1.
         21   -1    0    0  501  502 -0.00000000000E+00 -0.00000000000E+00 -0.41758413699E+03  0.41758413699E+03  0.00000000000E+00 0. -1.
      99926    2    1    2    0    0  0.00000000000E+00  0.00000000000E+00 -0.25727392539E+03  0.57789434859E+03  0.51746691241E+03 0.  0.
         25    1    3    3    0    0  0.90883556258E+01  0.75925976677E+02 -0.12655461368E+03  0.19367738765E+03  0.12509000000E+03 0.  0.
         25    1    3    3    0    0 -0.76217839337E+02 -0.13986933023E+03 -0.49013449325E+02  0.20838045706E+03  0.12509000000E+03 0.  0.
         25    1    3    3    0    0  0.67129483711E+02  0.63943353552E+02 -0.81705862386E+02  0.17583650388E+03  0.12509000000E+03 0.  0.
<mgrwt>
<rscale>  2 0.51746691E+03</rscale>
<asrwt>0</asrwt>
<pdfrwt beam="1">  1       21 0.23575031E-01 0.51746691E+03</pdfrwt>
<pdfrwt beam="2">  1       21 0.61409432E-01 0.51746691E+03</pdfrwt>
<totfact> 0.37679885E+04</totfact>
</mgrwt>
</event>
<event>
 7    0  0.4779893E-002  0.4562307E+03  0.7546771E-02  0.1025880E+00
         21   -1    0    0  502  501  0.00000000000E+00  0.00000000000E+00  0.41568643046E+03  0.41568643046E+03  0.00000000000E+00 0. -1.
         21   -1    0    0  501  502 -0.00000000000E+00 -0.00000000000E+00 -0.12518235565E+03  0.12518235565E+03  0.00000000000E+00 0. -1.
      99926    2    1    2    0    0  0.71054273576E-14  0.00000000000E+00  0.29050407482E+03  0.54086878611E+03  0.45623067225E+03 0.  0.
      99925    2    3    3    0    0  0.61346596165E+02 -0.92906217352E+02  0.21301762363E+03  0.35635150155E+03  0.26308727563E+03 0.  0.
         25    1    3    3    0    0 -0.61346596165E+02  0.92906217352E+02  0.77486451185E+02  0.18451728456E+03  0.12509000000E+03 0.  0.
         25    1    4    4    0    0  0.59418090033E+02 -0.70049990770E+02  0.89938558048E+02  0.17937102038E+03  0.12509000000E+03 0.  0.
         25    1    4    4    0    0  0.19285061324E+01 -0.22856226582E+02  0.12307906558E+03  0.17698048117E+03  0.12509000000E+03 0.  0.
<mgrwt>
<rscale>  2 0.45623067E+03</rscale>
<asrwt>0</asrwt>
<pdfrwt beam="1">  1       21 0.61130357E-01 0.45623067E+03</pdfrwt>
<pdfrwt beam="2">  1       21 0.18409170E-01 0.45623067E+03</pdfrwt>
<totfact> 0.61869208E+04</totfact>
</mgrwt>
</event>
<event>
 7    0  0.4779893E-002  0.4571130E+03  0.7546771E-02  0.1025622E+00
         21   -1    0    0  502  501  0.00000000000E+00  0.00000000000E+00  0.18137116088E+04  0.18137116088E+04  0.00000000000E+00 0. -1.
         21   -1    0    0  501  502 -0.00000000000E+00 -0.00000000000E+00 -0.28801754932E+02  0.28801754932E+02  0.00000000000E+00 0. -1.
      99926    2    1    2    0    0  0.00000000000E+00  0.00000000000E+00  0.17849098539E+04  0.18425133638E+04  0.45711301567E+03 0.  0.
      99925    2    3    3    0    0  0.58002030161E+01 -0.11278090350E+03  0.12116854559E+04  0.12450295622E+04  0.26299009906E+03 0.  0.
         25    1    4    4    0    0  0.17578369708E+02 -0.94831530194E+02  0.73100492104E+03  0.74787547151E+03  0.12509000000E+03 0.  0.
         25    1    4    4    0    0 -0.11778166692E+02 -0.17949373310E+02  0.48068053483E+03  0.49715409068E+03  0.12509000000E+03 0.  0.
         25    1    3    3    0    0 -0.58002030161E+01  0.11278090350E+03  0.57322439804E+03  0.59748380158E+03  0.12509000000E+03 0.  0.
<mgrwt>
<rscale>  2 0.45711302E+03</rscale>
<asrwt>0</asrwt>
<pdfrwt beam="1">  1       21 0.26672222E+00 0.45711302E+03</pdfrwt>
<pdfrwt beam="2">  1       21 0.42355534E-02 0.45711302E+03</pdfrwt>
<totfact> 0.16189155E+04</totfact>
</mgrwt>
</event>
<event>
 7    0  0.4779893E-002  0.4815248E+03  0.7546771E-02  0.1018717E+00
         21   -1    0    0  502  501  0.00000000000E+00  0.00000000000E+00  0.27483348908E+03  0.27483348908E+03  0.00000000000E+00 0. -1.
         21   -1    0    0  501  502 -0.00000000000E+00 -0.00000000000E+00 -0.21091507787E+03  0.21091507787E+03  0.00000000000E+00 0. -1.
      99926    2    1    2    0    0  0.00000000000E+00  0.00000000000E+00  0.63918411211E+02  0.48574856694E+03  0.48152477298E+03 0.  0.
      99925    2    3    3    0    0 -0.27454250744E+02  0.49253949087E+02 -0.86134706216E+02  0.28241845718E+03  0.26298537974E+03 0.  0.
         25    1    4    4    0    0  0.18239731112E+02  0.14018560998E+02 -0.17101685589E+02  0.12833231703E+03  0.12509000000E+03 0.  0.
         25    1    3    3    0    0  0.27454250744E+02 -0.49253949087E+02  0.15005311743E+03  0.20333010976E+03  0.12509000000E+03 0.  0.
         25    1    4    4    0    0 -0.45693981856E+02  0.35235388089E+02 -0.69033020627E+02  0.15408614016E+03  0.12509000000E+03 0.  0.
<mgrwt>
<rscale>  2 0.48152477E+03</rscale>
<asrwt>0</asrwt>
<pdfrwt beam="1">  1       21 0.40416690E-01 0.48152477E+03</pdfrwt>
<pdfrwt beam="2">  1       21 0.31016923E-01 0.48152477E+03</pdfrwt>
<totfact> 0.53984394E+04</totfact>
</mgrwt>
</event>
<event>
 7    0  0.4779893E-002  0.4536140E+03  0.7546771E-02  0.1026650E+00
         21   -1    0    0  502  501  0.00000000000E+00  0.00000000000E+00  0.81659204997E+02  0.81659204997E+02  0.00000000000E+00 0. -1.
         21   -1    0    0  501  502 -0.00000000000E+00 -0.00000000000E+00 -0.62995235881E+03  0.62995235881E+03  0.00000000000E+00 0. -1.
      99926    2    1    2    0    0  0.71054273576E-14  0.35527136788E-14 -0.54829315382E+03  0.71161156381E+03  0.45361397160E+03 0.  0.
      99925    2    3    3    0    0  0.62006715739E+02  0.30257771995E+02 -0.20676677363E+03  0.34141142601E+03  0.26277156918E+03 0.  0.
         25    1    4    4    0    0  0.37956985429E+02 -0.15737884095E+02 -0.13319080727E+03  0.18728511147E+03  0.12509000000E+03 0.  0.
         25    1    4    4    0    0  0.24049730309E+02  0.45995656090E+02 -0.73575966360E+02  0.15412631454E+03  0.12509000000E+03 0.  0.
         25    1    3    3    0    0 -0.62006715739E+02 -0.30257771995E+02 -0.34152638019E+03  0.37020013780E+03  0.12509000000E+03 0.  0.
<mgrwt>
<rscale>  2 0.45361397E+03</rscale>
<asrwt>0</asrwt>
<pdfrwt beam="1">  1       21 0.12008707E-01 0.45361397E+03</pdfrwt>
<pdfrwt beam="2">  1       21 0.92640053E-01 0.45361397E+03</pdfrwt>
<totfact> 0.52851021E+04</totfact>
</mgrwt>
</event>
<event>
 7    0  0.4779893E-002  0.4637702E+03  0.7546771E-02  0.1023693E+00
         21   -1    0    0  502  501  0.00000000000E+00  0.00000000000E+00  0.83758606484E+03  0.83758606484E+03  0.00000000000E+00 0. -1.
         21   -1    0    0  501  502 -0.00000000000E+00 -0.00000000000E+00 -0.64197236697E+02  0.64197236697E+02  0.00000000000E+00 0. -1.
      99926    2    1    2    0    0  0.00000000000E+00  0.00000000000E+00  0.77338882815E+03  0.90178330154E+03  0.46377024855E+03 0.  0.
      99925    2    3    3    0    0 -0.12065258862E+03  0.11286896874E+02  0.48024176755E+03  0.56080361239E+03  0.26302869650E+03 0.  0.
         25    1    3    3    0    0  0.12065258862E+03 -0.11286896874E+02  0.29314706060E+03  0.34097968916E+03  0.12509000000E+03 0.  0.
         25    1    4    4    0    0 -0.23680949532E+02 -0.17300770236E+02  0.22562688845E+03  0.25964418906E+03  0.12509000000E+03 0.  0.
         25    1    4    4    0    0 -0.96971639084E+02  0.28587667110E+02  0.25461487910E+03  0.30115942333E+03  0.12509000000E+03 0.  0.
<mgrwt>
<rscale>  2 0.46377025E+03</rscale>
<asrwt>0</asrwt>
<pdfrwt beam="1">  1       21 0.12317441E+00 0.46377025E+03</pdfrwt>
<pdfrwt beam="2">  1       21 0.94407706E-02 0.46377025E+03</pdfrwt>
<totfact> 0.40316224E+04</totfact>
</mgrwt>
</event>
<event>
 7    0  0.4779893E-002  0.4572515E+03  0.7546771E-02  0.1025581E+00
         21   -1    0    0  502  501  0.00000000000E+00  0.00000000000E+00  0.24222018005E+03  0.24222018005E+03  0.00000000000E+00 0. -1.
         21   -1    0    0  501  502 -0.00000000000E+00 -0.00000000000E+00 -0.21579427536E+03  0.21579427536E+03  0.00000000000E+00 0. -1.
      99926    2    1    2    0    0 -0.99920072216E-15  0.00000000000E+00  0.26425904690E+02  0.45801445541E+03  0.45725147667E+03 0.  0.
      99925    2    3    3    0    0  0.91077294241E+00  0.80797032480E+02 -0.65645877602E+02  0.28293244274E+03  0.26308248886E+03 0.  0.
         25    1    3    3    0    0 -0.91077294241E+00 -0.80797032480E+02  0.92071782292E+02  0.17508201267E+03  0.12509000000E+03 0.  0.
         25    1    4    4    0    0 -0.27486727736E+02  0.70857408096E+02 -0.29752389568E+02  0.14936199406E+03  0.12509000000E+03 0.  0.
         25    1    4    4    0    0  0.28397500679E+02  0.99396243833E+01 -0.35893488034E+02  0.13357044868E+03  0.12509000000E+03 0.  0.
<mgrwt>
<rscale>  2 0.45725148E+03</rscale>
<asrwt>0</asrwt>
<pdfrwt beam="1">  1       21 0.35620615E-01 0.45725148E+03</pdfrwt>
<pdfrwt beam="2">  1       21 0.31734452E-01 0.45725148E+03</pdfrwt>
<totfact> 0.67111818E+04</totfact>
</mgrwt>
</event>
<event>
 7    0  0.4779893E-002  0.4413015E+03  0.7546771E-02  0.1030348E+00
         21   -1    0    0  502  501  0.00000000000E+00  0.00000000000E+00  0.36291245718E+03  0.36291245718E+03  0.00000000000E+00 0.  1.
         21   -1    0    0  501  502 -0.00000000000E+00 -0.00000000000E+00 -0.13415562526E+03  0.13415562526E+03  0.00000000000E+00 0.  1.
      99926    2    1    2    0    0  0.00000000000E+00  0.35527136788E-14  0.22875683192E+03  0.49706808244E+03  0.44130147341E+03 0.  0.
      99925    2    3    3    0    0  0.78780552793E+02 -0.20551149318E+02  0.80591892095E+02  0.28676096718E+03  0.26288414556E+03 0.  0.
         25    1    4    4    0    0  0.10776551396E+02 -0.17640814881E+02  0.67803701059E+02  0.14377824031E+03  0.12509000000E+03 0.  0.
         25    1    4    4    0    0  0.68004001397E+02 -0.29103344373E+01  0.12788191036E+02  0.14298272687E+03  0.12509000000E+03 0.  0.
         25    1    3    3    0    0 -0.78780552793E+02  0.20551149318E+02  0.14816493982E+03  0.21030711526E+03  0.12509000000E+03 0.  0.
<mgrwt>
<rscale>  2 0.44130147E+03</rscale>
<asrwt>0</asrwt>
<pdfrwt beam="1">  1       21 0.53369479E-01 0.44130147E+03</pdfrwt>
<pdfrwt beam="2">  1       21 0.19728769E-01 0.44130147E+03</pdfrwt>
<totfact> 0.73108553E+04</totfact>
</mgrwt>
</event>
<event>
 7    0  0.4779893E-002  0.4558988E+03  0.7546771E-02  0.1025977E+00
         21   -1    0    0  502  501  0.00000000000E+00  0.00000000000E+00  0.15482491089E+03  0.15482491089E+03  0.00000000000E+00 0.  1.
         21   -1    0    0  501  502 -0.00000000000E+00 -0.00000000000E+00 -0.33561093075E+03  0.33561093075E+03  0.00000000000E+00 0.  1.
      99926    2    1    2    0    0  0.00000000000E+00  0.00000000000E+00 -0.18078601986E+03  0.49043584165E+03  0.45589881530E+03 0.  0.
      99925    2    3    3    0    0 -0.88600013424E+02  0.42071522931E+02 -0.51118918439E+02  0.28529920252E+03  0.26298767217E+03 0.  0.
         25    1    3    3    0    0  0.88600013424E+02 -0.42071522931E+02 -0.12966710142E+03  0.20513663913E+03  0.12509000000E+03 0.  0.
         25    1    4    4    0    0 -0.59354117228E+01  0.14450454885E+01 -0.26606384838E+02  0.12803407782E+03  0.12509000000E+03 0.  0.
         25    1    4    4    0    0 -0.82664601702E+02  0.40626477443E+02 -0.24512533601E+02  0.15726512470E+03  0.12509000000E+03 0.  0.
<mgrwt>
<rscale>  2 0.45589882E+03</rscale>
<asrwt>0</asrwt>
<pdfrwt beam="1">  1       21 0.22768370E-01 0.45589882E+03</pdfrwt>
<pdfrwt beam="2">  1       21 0.49354547E-01 0.45589882E+03</pdfrwt>
<totfact> 0.65479463E+04</totfact>
</mgrwt>
</event>
<event>
 7    0  0.4779893E-002  0.4441601E+03  0.7546771E-02  0.1029478E+00
         21   -1    0    0  502  501  0.00000000000E+00  0.00000000000E+00  0.19347134805E+03  0.19347134805E+03  0.00000000000E+00 0. -1.
         21   -1    0    0  501  502 -0.00000000000E+00 -0.00000000000E+00 -0.25491917586E+03  0.25491917586E+03  0.00000000000E+00 0. -1.
      99926    2    1    2    0    0  0.00000000000E+00  0.88817841970E-15 -0.61447827816E+02  0.44839052391E+03  0.44416013597E+03 0.  0.
      99925    2    3    3    0    0  0.91775861547E+02  0.42873083422E+01 -0.85359901715E+02  0.29135395125E+03  0.26298217109E+03 0.  0.
         25    1    3    3    0    0 -0.91775861547E+02 -0.42873083422E+01  0.23912073899E+02  0.15703657266E+03  0.12509000000E+03 0.  0.
         25    1    4    4    0    0  0.45574059820E+02 -0.93277809352E+01 -0.19415123097E+01  0.13347389256E+03  0.12509000000E+03 0.  0.
         25    1    4    4    0    0  0.46201801727E+02  0.13615089277E+02 -0.83418389406E+02  0.15788005868E+03  0.12509000000E+03 0.  0.
<mgrwt>
<rscale>  2 0.44416014E+03</rscale>
<asrwt>0</asrwt>
<pdfrwt beam="1">  1       21 0.28451669E-01 0.44416014E+03</pdfrwt>
<pdfrwt beam="2">  1       21 0.37488114E-01 0.44416014E+03</pdfrwt>
<totfact> 0.75340232E+04</totfact>
</mgrwt>
</event>
<event>
 7    0  0.4779893E-002  0.4554593E+03  0.7546771E-02  0.1026106E+00
         21   -1    0    0  502  501  0.00000000000E+00  0.00000000000E+00  0.51405574323E+03  0.51405574323E+03  0.00000000000E+00 0.  1.
         21   -1    0    0  501  502 -0.00000000000E+00 -0.00000000000E+00 -0.10088554893E+03  0.10088554893E+03  0.00000000000E+00 0.  1.
      99926    2    1    2    0    0 -0.14210854715E-13  0.00000000000E+00  0.41317019431E+03  0.61494129216E+03  0.45545931030E+03 0.  0.
      99925    2    3    3    0    0  0.67898783879E+02 -0.45381928397E+02  0.15343796292E+03  0.31531134639E+03  0.26307465181E+03 0.  0.
         25    1    4    4    0    0  0.20085773262E+02 -0.53427174212E+02  0.10374763840E+03  0.17224686298E+03  0.12509000000E+03 0.  0.
         25    1    4    4    0    0  0.47813010618E+02  0.80452458150E+01  0.49690324515E+02  0.14306448342E+03  0.12509000000E+03 0.  0.
         25    1    3    3    0    0 -0.67898783879E+02  0.45381928397E+02  0.25973223139E+03  0.29962994577E+03  0.12509000000E+03 0.  0.
<mgrwt>
<rscale>  2 0.45545931E+03</rscale>
<asrwt>0</asrwt>
<pdfrwt beam="1">  1       21 0.75596432E-01 0.45545931E+03</pdfrwt>
<pdfrwt beam="2">  1       21 0.14836110E-01 0.45545931E+03</pdfrwt>
<totfact> 0.57558812E+04</totfact>
</mgrwt>
</event>
<event>
 7    0  0.4779893E-002  0.4523723E+03  0.7546771E-02  0.1027017E+00
         21   -1    0    0  502  501  0.00000000000E+00  0.00000000000E+00  0.23300594808E+03  0.23300594808E+03  0.00000000000E+00 0. -1.
         21   -1    0    0  501  502 -0.00000000000E+00 -0.00000000000E+00 -0.21956599136E+03  0.21956599136E+03  0.00000000000E+00 0. -1.
      99926    2    1    2    0    0 -0.35527136788E-14  0.00000000000E+00  0.13439956712E+02  0.45257193944E+03  0.45237233330E+03 0.  0.
      99925    2    3    3    0    0 -0.21972971079E+02  0.99855002296E+02 -0.34045239258E+02  0.28417899161E+03  0.26295396558E+03 0.  0.
         25    1    3    3    0    0  0.21972971079E+02 -0.99855002296E+02  0.47485195970E+02  0.16839294783E+03  0.12509000000E+03 0.  0.
         25    1    4    4    0    0  0.25186688774E+02  0.64098063981E+02 -0.56186061063E+01  0.14290559098E+03  0.12509000000E+03 0.  0.
         25    1    4    4    0    0 -0.47159659853E+02  0.35756938315E+02 -0.28426633152E+02  0.14127340064E+03  0.12509000000E+03 0.  0.
<mgrwt>
<rscale>  2 0.45237233E+03</rscale>
<asrwt>0</asrwt>
<pdfrwt beam="1">  1       21 0.34265581E-01 0.45237233E+03</pdfrwt>
<pdfrwt beam="2">  1       21 0.32289116E-01 0.45237233E+03</pdfrwt>
<totfact> 0.70184020E+04</totfact>
</mgrwt>
</event>
<event>
 7    0  0.4779893E-002  0.4441368E+03  0.7546771E-02  0.1029485E+00
         21   -1    0    0  502  501  0.00000000000E+00  0.00000000000E+00  0.25894981359E+03  0.25894981359E+03  0.00000000000E+00 0. -1.
         21   -1    0    0  501  502 -0.00000000000E+00 -0.00000000000E+00 -0.19043986237E+03  0.19043986237E+03  0.00000000000E+00 0. -1.
      99926    2    1    2    0    0  0.71054273576E-14  0.00000000000E+00  0.68509951214E+02  0.44938967596E+03  0.44413676660E+03 0.  0.
      99925    2    3    3    0    0 -0.40056134461E+02  0.82030967782E+02  0.90362289726E+02  0.29299720049E+03  0.26334092449E+03 0.  0.
         25    1    3    3    0    0  0.40056134461E+02 -0.82030967782E+02 -0.21852338512E+02  0.15639247546E+03  0.12509000000E+03 0.  0.
         25    1    4    4    0    0 -0.43841789155E+02  0.17369745904E+02  0.18806824888E+02  0.13500005671E+03  0.12509000000E+03 0.  0.
         25    1    4    4    0    0  0.37856546944E+01  0.64661221878E+02  0.71555464839E+02  0.15799714379E+03  0.12509000000E+03 0.  0.
<mgrwt>
<rscale>  2 0.44413677E+03</rscale>
<asrwt>0</asrwt>
<pdfrwt beam="1">  1       21 0.38080855E-01 0.44413677E+03</pdfrwt>
<pdfrwt beam="2">  1       21 0.28005862E-01 0.44413677E+03</pdfrwt>
<totfact> 0.75273422E+04</totfact>
</mgrwt>
</event>
<event>
 7    0  0.4779893E-002  0.4510713E+03  0.7546771E-02  0.1027403E+00
         21   -1    0    0  502  501  0.00000000000E+00  0.00000000000E+00  0.92235681225E+02  0.92235681225E+02  0.00000000000E+00 0. -1.
         21   -1    0    0  501  502 -0.00000000000E+00 -0.00000000000E+00 -0.55148219213E+03  0.55148219213E+03  0.00000000000E+00 0. -1.
      99926    2    1    2    0    0  0.00000000000E+00  0.00000000000E+00 -0.45924651090E+03  0.64371787335E+03  0.45107132773E+03 0.  0.
      99925    2    3    3    0    0 -0.51924675629E+02 -0.65453743321E+02 -0.39089690396E+03  0.47849214496E+03  0.26300946524E+03 0.  0.
         25    1    4    4    0    0  0.95189048448E+01 -0.11465582254E+02 -0.19359808681E+03  0.23097574860E+03  0.12509000000E+03 0.  0.
         25    1    4    4    0    0 -0.61443580474E+02 -0.53988161067E+02 -0.19729881715E+03  0.24751639636E+03  0.12509000000E+03 0.  0.
         25    1    3    3    0    0  0.51924675629E+02  0.65453743321E+02 -0.68349606945E+02  0.16522572839E+03  0.12509000000E+03 0.  0.
<mgrwt>
<rscale>  2 0.45107133E+03</rscale>
<asrwt>0</asrwt>
<pdfrwt beam="1">  1       21 0.13564070E-01 0.45107133E+03</pdfrwt>
<pdfrwt beam="2">  1       21 0.81100324E-01 0.45107133E+03</pdfrwt>
<totfact> 0.57836975E+04</totfact>
</mgrwt>
</event>
<event>
 7    0  0.4779893E-002  0.4606491E+03  0.7546771E-02  0.1024593E+00
         21   -1    0    0  502  501  0.00000000000E+00  0.00000000000E+00  0.13439906561E+02  0.13439906561E+02  0.00000000000E+00 0.  1.
         21   -1    0    0  501  502 -0.00000000000E+00 -0.00000000000E+00 -0.39471560741E+04  0.39471560741E+04  0.00000000000E+00 0.  1.
      99926    2    1    2    0    0 -0.53290705182E-14  0.00000000000E+00 -0.39337161675E+04  0.39605959807E+04  0.46064914552E+03 0.  0.
      99925    2    3    3    0    0  0.13430030369E+02  0.26356709310E+02 -0.14760798233E+04  0.14996004605E+04  0.26289704146E+03 0.  0.
         25    1    4    4    0    0 -0.30248557895E+02  0.34358155706E+00 -0.77991966537E+03  0.79046649887E+03  0.12509000000E+03 0.  0.
         25    1    4    4    0    0  0.43678588264E+02  0.26013127753E+02 -0.69616015795E+03  0.70913396161E+03  0.12509000000E+03 0.  0.
         25    1    3    3    0    0 -0.13430030369E+02 -0.26356709310E+02 -0.24576363442E+04  0.24609955202E+04  0.12509000000E+03 0.  0.
<mgrwt>
<rscale>  2 0.46064915E+03</rscale>
<asrwt>0</asrwt>
<pdfrwt beam="1">  1       21 0.19764563E-02 0.46064915E+03</pdfrwt>
<pdfrwt beam="2">  1       21 0.58046429E+00 0.46064915E+03</pdfrwt>
<totfact> 0.47103466E+02</totfact>
</mgrwt>
</event>
<event>
 7    0  0.4779893E-002  0.4573300E+03  0.7546771E-02  0.1025558E+00
         21   -1    0    0  502  501  0.00000000000E+00  0.00000000000E+00  0.47999279470E+03  0.47999279470E+03  0.00000000000E+00 0.  1.
         21   -1    0    0  501  502 -0.00000000000E+00 -0.00000000000E+00 -0.10893430767E+03  0.10893430767E+03  0.00000000000E+00 0.  1.
      99926    2    1    2    0    0 -0.88817841970E-15  0.00000000000E+00  0.37105848703E+03  0.58892710237E+03  0.45733000241E+03 0.  0.
      99925    2    3    3    0    0 -0.37090146214E+01  0.11530715433E+03  0.23567137463E+03  0.37147210717E+03  0.26294682534E+03 0.  0.
         25    1    4    4    0    0  0.15115924180E+02  0.63907327007E+02  0.16664586677E+03  0.21847423331E+03  0.12509000000E+03 0.  0.
         25    1    3    3    0    0  0.37090146214E+01 -0.11530715433E+03  0.13538711241E+03  0.21745499520E+03  0.12509000000E+03 0.  0.
         25    1    4    4    0    0 -0.18824938802E+02  0.51399827328E+02  0.69025507855E+02  0.15299787386E+03  0.12509000000E+03 0.  0.
<mgrwt>
<rscale>  2 0.45733000E+03</rscale>
<asrwt>0</asrwt>
<pdfrwt beam="1">  1       21 0.70587175E-01 0.45733000E+03</pdfrwt>
<pdfrwt beam="2">  1       21 0.16019751E-01 0.45733000E+03</pdfrwt>
<totfact> 0.58284262E+04</totfact>
</mgrwt>
</event>
<event>
 7    0  0.4779893E-002  0.4694505E+03  0.7546771E-02  0.1022075E+00
         21   -1    0    0  502  501  0.00000000000E+00  0.00000000000E+00  0.38673207247E+02  0.38673207247E+02  0.00000000000E+00 0. -1.
         21   -1    0    0  501  502 -0.00000000000E+00 -0.00000000000E+00 -0.14246543448E+04  0.14246543448E+04  0.00000000000E+00 0. -1.
      99926    2    1    2    0    0  0.14210854715E-13 -0.35527136788E-14 -0.13859811376E+04  0.14633275521E+04  0.46945054152E+03 0.  0.
      99925    2    3    3    0    0 -0.11140027669E+03  0.18944248354E+02 -0.67566635329E+03  0.73328405538E+03  0.26155607182E+03 0.  0.
         25    1    4    4    0    0 -0.16072723517E+02 -0.31178962422E-01 -0.31864059188E+03  0.34269179784E+03  0.12509000000E+03 0.  0.
         25    1    3    3    0    0  0.11140027669E+03 -0.18944248354E+02 -0.71031478429E+03  0.73004349670E+03  0.12509000000E+03 0.  0.
         25    1    4    4    0    0 -0.95327553174E+02  0.18975427317E+02 -0.35702576142E+03  0.39059225754E+03  0.12509000000E+03 0.  0.
<mgrwt>
<rscale>  2 0.46945054E+03</rscale>
<asrwt>0</asrwt>
<pdfrwt beam="1">  1       21 0.56872368E-02 0.46945054E+03</pdfrwt>
<pdfrwt beam="2">  1       21 0.20950798E+00 0.46945054E+03</pdfrwt>
<totfact> 0.22104367E+04</totfact>
</mgrwt>
</event>
<event>
 7    0  0.4779893E-002  0.4170827E+03  0.7546771E-02  0.1038020E+00
         21   -1    0    0  502  501  0.00000000000E+00  0.00000000000E+00  0.31500033122E+03  0.31500033122E+03  0.00000000000E+00 0.  1.
         21   -1    0    0  501  502 -0.00000000000E+00 -0.00000000000E+00 -0.13806172643E+03  0.13806172643E+03  0.00000000000E+00 0.  1.
      99926    2    1    2    0    0 -0.71054273576E-14  0.00000000000E+00  0.17693860479E+03  0.45306205765E+03  0.41708267552E+03 0.  0.
      99925    2    3    3    0    0  0.33107352139E+02  0.19286400724E+02  0.49202838548E+02  0.27021787235E+03  0.26292340557E+03 0.  0.
         25    1    4    4    0    0  0.53890696326E+02  0.15251091739E+02  0.99557116100E+01  0.13741698310E+03  0.12509000000E+03 0.  0.
         25    1    4    4    0    0 -0.20783344187E+02  0.40353089856E+01  0.39247126938E+02  0.13280088926E+03  0.12509000000E+03 0.  0.
         25    1    3    3    0    0 -0.33107352139E+02 -0.19286400724E+02  0.12773576625E+03  0.18284418530E+03  0.12509000000E+03 0.  0.
<mgrwt>
<rscale>  2 0.41708268E+03</rscale>
<asrwt>0</asrwt>
<pdfrwt beam="1">  1       21 0.46323578E-01 0.41708268E+03</pdfrwt>
<pdfrwt beam="2">  1       21 0.20303195E-01 0.41708268E+03</pdfrwt>
<totfact> 0.93964922E+04</totfact>
</mgrwt>
</event>
<event>
 7    0  0.4779893E-002  0.4541145E+03  0.7546771E-02  0.1026502E+00
         21   -1    0    0  502  501  0.00000000000E+00  0.00000000000E+00  0.28450371584E+03  0.28450371584E+03  0.00000000000E+00 0. -1.
         21   -1    0    0  501  502 -0.00000000000E+00 -0.00000000000E+00 -0.18121028274E+03  0.18121028274E+03  0.00000000000E+00 0. -1.
      99926    2    1    2    0    0 -0.71054273576E-14 -0.14210854715E-13  0.10329343311E+03  0.46571399858E+03  0.45411451766E+03 0.  0.
      99925    2    3    3    0    0  0.40993014615E+02  0.10444514813E+03  0.57790055597E+02  0.29162413191E+03  0.26289870211E+03 0.  0.
         25    1    4    4    0    0  0.31263057158E+01  0.24488308448E+02  0.53716423293E+02  0.13835611034E+03  0.12509000000E+03 0.  0.
         25    1    4    4    0    0  0.37866708899E+02  0.79956839678E+02  0.40736323043E+01  0.15326802156E+03  0.12509000000E+03 0.  0.
         25    1    3    3    0    0 -0.40993014615E+02 -0.10444514813E+03  0.45503377509E+02  0.17408986668E+03  0.12509000000E+03 0.  0.
<mgrwt>
<rscale>  2 0.45411452E+03</rscale>
<asrwt>0</asrwt>
<pdfrwt beam="1">  1       21 0.41838782E-01 0.45411452E+03</pdfrwt>
<pdfrwt beam="2">  1       21 0.26648571E-01 0.45411452E+03</pdfrwt>
<totfact> 0.68234153E+04</totfact>
</mgrwt>
</event>
<event>
 7    0  0.4779893E-002  0.4601198E+03  0.7546771E-02  0.1024746E+00
         21   -1    0    0  502  501  0.00000000000E+00  0.00000000000E+00  0.12370905070E+03  0.12370905070E+03  0.00000000000E+00 0. -1.
         21   -1    0    0  501  502 -0.00000000000E+00 -0.00000000000E+00 -0.42783895512E+03  0.42783895512E+03  0.00000000000E+00 0. -1.
      99926    2    1    2    0    0  0.00000000000E+00  0.00000000000E+00 -0.30412990442E+03  0.55154800581E+03  0.46011977132E+03 0.  0.
      99925    2    3    3    0    0 -0.93353346714E+02 -0.22539369984E+02 -0.27251438709E+03  0.39070671889E+03  0.26299197417E+03 0.  0.
         25    1    4    4    0    0 -0.44853565410E+02 -0.66121838892E+00 -0.18941848459E+03  0.23138528463E+03  0.12509000000E+03 0.  0.
         25    1    4    4    0    0 -0.48499781304E+02 -0.21878151595E+02 -0.83095902500E+02  0.15932143426E+03  0.12509000000E+03 0.  0.
         25    1    3    3    0    0  0.93353346714E+02  0.22539369984E+02 -0.31615517332E+02  0.16084128692E+03  0.12509000000E+03 0.  0.
<mgrwt>
<rscale>  2 0.46011977E+03</rscale>
<asrwt>0</asrwt>
<pdfrwt beam="1">  1       21 0.18192508E-01 0.46011977E+03</pdfrwt>
<pdfrwt beam="2">  1       21 0.62917493E-01 0.46011977E+03</pdfrwt>
<totfact> 0.59324563E+04</totfact>
</mgrwt>
</event>
<event>
 7    0  0.4779893E-002  0.4590763E+03  0.7546771E-02  0.1025049E+00
         21   -1    0    0  502  501  0.00000000000E+00  0.00000000000E+00  0.55174919058E+02  0.55174919058E+02  0.00000000000E+00 0. -1.
         21   -1    0    0  501  502 -0.00000000000E+00 -0.00000000000E+00 -0.95492225831E+03  0.95492225831E+03  0.00000000000E+00 0. -1.
      99926    2    1    2    0    0  0.00000000000E+00  0.35527136788E-14 -0.89974733925E+03  0.10100971774E+04  0.45907628259E+03 0.  0.
      99925    2    3    3    0    0 -0.11306909997E+03 -0.26196207016E+02 -0.53286505414E+03  0.60547268249E+03  0.26302308014E+03 0.  0.
         25    1    4    4    0    0 -0.68207221913E+02 -0.37484401779E+02 -0.34442389303E+03  0.37460997276E+03  0.12509000000E+03 0.  0.
         25    1    3    3    0    0  0.11306909997E+03  0.26196207016E+02 -0.36688228511E+03  0.40462449488E+03  0.12509000000E+03 0.  0.
         25    1    4    4    0    0 -0.44861878054E+02  0.11288194764E+02 -0.18844116111E+03  0.23086270973E+03  0.12509000000E+03 0.  0.
<mgrwt>
<rscale>  2 0.45907628E+03</rscale>
<asrwt>0</asrwt>
<pdfrwt beam="1">  1       21 0.81139596E-02 0.45907628E+03</pdfrwt>
<pdfrwt beam="2">  1       21 0.14042973E+00 0.45907628E+03</pdfrwt>
<totfact> 0.37566245E+04</totfact>
</mgrwt>
</event>
<event>
 7    0  0.4779893E-002  0.4714756E+03  0.7546771E-02  0.1021505E+00
         21   -1    0    0  502  501  0.00000000000E+00  0.00000000000E+00  0.24844214691E+03  0.24844214691E+03  0.00000000000E+00 0. -1.
         21   -1    0    0  501  502 -0.00000000000E+00 -0.00000000000E+00 -0.22368313951E+03  0.22368313951E+03  0.00000000000E+00 0. -1.
      99926    2    1    2    0    0 -0.14210854715E-13 -0.71054273576E-14  0.24759007396E+02  0.47212528642E+03  0.47147563843E+03 0.  0.
      99925    2    3    3    0    0  0.10604505236E+03  0.63216076901E+02  0.49139922054E+02  0.29468864249E+03  0.26303010962E+03 0.  0.
         25    1    4    4    0    0  0.70498464163E+02 -0.33547848713E+01  0.35582899917E+02  0.14796938500E+03  0.12509000000E+03 0.  0.
         25    1    3    3    0    0 -0.10604505236E+03 -0.63216076901E+02 -0.24380914658E+02  0.17743664393E+03  0.12509000000E+03 0.  0.
         25    1    4    4    0    0  0.35546588197E+02  0.66570861772E+02  0.13557022138E+02  0.14671925749E+03  0.12509000000E+03 0.  0.
<mgrwt>
<rscale>  2 0.47147564E+03</rscale>
<asrwt>0</asrwt>
<pdfrwt beam="1">  1       21 0.36535610E-01 0.47147564E+03</pdfrwt>
<pdfrwt beam="2">  1       21 0.32894579E-01 0.47147564E+03</pdfrwt>
<totfact> 0.59143386E+04</totfact>
</mgrwt>
</event>
<event>
 7    0  0.4779893E-002  0.4562604E+03  0.7546771E-02  0.1025871E+00
         21   -1    0    0  502  501  0.00000000000E+00  0.00000000000E+00  0.11700683777E+03  0.11700683777E+03  0.00000000000E+00 0.  1.
         21   -1    0    0  501  502 -0.00000000000E+00 -0.00000000000E+00 -0.44478936317E+03  0.44478936317E+03  0.00000000000E+00 0.  1.
      99926    2    1    2    0    0  0.88817841970E-15  0.00000000000E+00 -0.32778252540E+03  0.56179620093E+03  0.45626043815E+03 0.  0.
      99925    2    3    3    0    0  0.34095249560E+01 -0.51431179378E+02 -0.33176780951E+03  0.42644413533E+03  0.26292190866E+03 0.  0.
         25    1    4    4    0    0  0.10635369301E+02 -0.28366687414E+02 -0.10403054561E+03  0.16549212233E+03  0.12509000000E+03 0.  0.
         25    1    4    4    0    0 -0.72258443450E+01 -0.23064491964E+02 -0.22773726391E+03  0.26095201300E+03  0.12509000000E+03 0.  0.
         25    1    3    3    0    0 -0.34095249560E+01  0.51431179378E+02  0.39852841156E+01  0.13535206560E+03  0.12509000000E+03 0.  0.
<mgrwt>
<rscale>  2 0.45626044E+03</rscale>
<asrwt>0</asrwt>
<pdfrwt beam="1">  1       21 0.17206888E-01 0.45626044E+03</pdfrwt>
<pdfrwt beam="2">  1       21 0.65410199E-01 0.45626044E+03</pdfrwt>
<totfact> 0.60488378E+04</totfact>
</mgrwt>
</event>
<event>
 7    0  0.4779893E-002  0.4576801E+03  0.7546771E-02  0.1025456E+00
         21   -1    0    0  502  501  0.00000000000E+00  0.00000000000E+00  0.29044129605E+04  0.29044129605E+04  0.00000000000E+00 0. -1.
         21   -1    0    0  501  502 -0.00000000000E+00 -0.00000000000E+00 -0.18030417136E+02  0.18030417136E+02  0.00000000000E+00 0. -1.
      99926    2    1    2    0    0 -0.14210854715E-13  0.35527136788E-14  0.28863825434E+04  0.29224433777E+04  0.45768013815E+03 0.  0.
      99925    2    3    3    0    0 -0.11562376526E+03  0.20100944536E+01  0.18267687258E+04  0.18492230620E+04  0.26300011339E+03 0.  0.
         25    1    3    3    0    0  0.11562376526E+03 -0.20100944536E+01  0.10596138176E+04  0.10732203157E+04  0.12509000000E+03 0.  0.
         25    1    4    4    0    0 -0.50604379109E+02 -0.39001530998E+02  0.90312913170E+03  0.91398668439E+03  0.12509000000E+03 0.  0.
         25    1    4    4    0    0 -0.65019386148E+02  0.41011625451E+02  0.92363959412E+03  0.93523637757E+03  0.12509000000E+03 0.  0.
<mgrwt>
<rscale>  2 0.45768014E+03</rscale>
<asrwt>0</asrwt>
<pdfrwt beam="1">  1       21 0.42711923E+00 0.45768014E+03</pdfrwt>
<pdfrwt beam="2">  1       21 0.26515339E-02 0.45768014E+03</pdfrwt>
<totfact> 0.36265642E+03</totfact>
</mgrwt>
</event>
<event>
 7    0  0.4779893E-002  0.4548954E+03  0.7546771E-02  0.1026272E+00
         21   -1    0    0  502  501  0.00000000000E+00  0.00000000000E+00  0.32177999389E+03  0.32177999389E+03  0.00000000000E+00 0. -1.
         21   -1    0    0  501  502 -0.00000000000E+00 -0.00000000000E+00 -0.16076962456E+03  0.16076962456E+03  0.00000000000E+00 0. -1.
      99926    2    1    2    0    0  0.00000000000E+00 -0.35527136788E-14  0.16101036933E+03  0.48254961845E+03  0.45489536734E+03 0.  0.
      99925    2    3    3    0    0  0.18848440690E+02  0.24896289102E+02 -0.13780840577E+02  0.26535255565E+03  0.26314820595E+03 0.  0.
         25    1    4    4    0    0 -0.29175850537E+02 -0.68698382018E+00 -0.10881560910E+02  0.12890934283E+03  0.12509000000E+03 0.  0.
         25    1    4    4    0    0  0.48024291227E+02  0.25583272922E+02 -0.28992796665E+01  0.13644321282E+03  0.12509000000E+03 0.  0.
         25    1    3    3    0    0 -0.18848440690E+02 -0.24896289102E+02  0.17479120991E+03  0.21719706280E+03  0.12509000000E+03 0.  0.
<mgrwt>
<rscale>  2 0.45489537E+03</rscale>
<asrwt>0</asrwt>
<pdfrwt beam="1">  1       21 0.47320587E-01 0.45489537E+03</pdfrwt>
<pdfrwt beam="2">  1       21 0.23642592E-01 0.45489537E+03</pdfrwt>
<totfact> 0.66570246E+04</totfact>
</mgrwt>
</event>
<event>
 7    0  0.4779893E-002  0.4525182E+03  0.7546771E-02  0.1026974E+00
         21   -1    0    0  502  501  0.00000000000E+00  0.00000000000E+00  0.25099596345E+03  0.25099596345E+03  0.00000000000E+00 0.  1.
         21   -1    0    0  501  502 -0.00000000000E+00 -0.00000000000E+00 -0.20396018755E+03  0.20396018755E+03  0.00000000000E+00 0.  1.
      99926    2    1    2    0    0 -0.14210854715E-13  0.00000000000E+00  0.47035775897E+02  0.45495615100E+03  0.45251821523E+03 0.  0.
      99925    2    3    3    0    0  0.10137368291E+03  0.13053310339E+02 -0.13475636700E+02  0.28245643606E+03  0.26296964272E+03 0.  0.
         25    1    4    4    0    0  0.89651101394E+02 -0.10676572911E+02 -0.83386090673E+01  0.15449385001E+03  0.12509000000E+03 0.  0.
         25    1    4    4    0    0  0.11722581512E+02  0.23729883250E+02 -0.51370276324E+01  0.12796258605E+03  0.12509000000E+03 0.  0.
         25    1    3    3    0    0 -0.10137368291E+03 -0.13053310339E+02  0.60511412597E+02  0.17249971493E+03  0.12509000000E+03 0.  0.
<mgrwt>
<rscale>  2 0.45251822E+03</rscale>
<asrwt>0</asrwt>
<pdfrwt beam="1">  1       21 0.36911171E-01 0.45251822E+03</pdfrwt>
<pdfrwt beam="2">  1       21 0.29994145E-01 0.45251822E+03</pdfrwt>
<totfact> 0.69923308E+04</totfact>
</mgrwt>
</event>
<event>
 7    0  0.4779893E-002  0.4485184E+03  0.7546771E-02  0.1028165E+00
         21   -1    0    0  502  501  0.00000000000E+00  0.00000000000E+00  0.17126412623E+04  0.17126412623E+04  0.00000000000E+00 0. -1.
         21   -1    0    0  501  502 -0.00000000000E+00 -0.00000000000E+00 -0.29365284180E+02  0.29365284180E+02  0.00000000000E+00 0. -1.
      99926    2    1    2    0    0  0.35527136788E-14  0.14210854715E-13  0.16832759781E+04  0.17420065465E+04  0.44851843826E+03 0.  0.
      99925    2    3    3    0    0  0.23079043699E+02  0.96921288316E+02  0.12183198210E+04  0.12503175040E+04  0.26280086773E+03 0.  0.
         25    1    3    3    0    0 -0.23079043699E+02 -0.96921288316E+02  0.46495615705E+03  0.49168904245E+03  0.12509000000E+03 0.  0.
         25    1    4    4    0    0  0.47198233283E+02  0.39102595010E+02  0.67953326397E+03  0.69366393239E+03  0.12509000000E+03 0.  0.
         25    1    4    4    0    0 -0.24119189585E+02  0.57818693307E+02  0.53878655708E+03  0.55665357161E+03  0.12509000000E+03 0.  0.
<mgrwt>
<rscale>  2 0.44851844E+03</rscale>
<asrwt>0</asrwt>
<pdfrwt beam="1">  1       21 0.25185894E+00 0.44851844E+03</pdfrwt>
<pdfrwt beam="2">  1       21 0.43184253E-02 0.44851844E+03</pdfrwt>
<totfact> 0.19356760E+04</totfact>
</mgrwt>
</event>
<event>
 7    0  0.4779893E-002  0.4696687E+03  0.7546771E-02  0.1022014E+00
         21   -1    0    0  502  501  0.00000000000E+00  0.00000000000E+00  0.88833980529E+03  0.88833980529E+03  0.00000000000E+00 0.  1.
         21   -1    0    0  501  502 -0.00000000000E+00 -0.00000000000E+00 -0.62078912237E+02  0.62078912237E+02  0.00000000000E+00 0.  1.
      99926    2    1    2    0    0  0.71054273576E-14  0.00000000000E+00  0.82626089306E+03  0.95041871753E+03  0.46966868667E+03 0.  0.
      99925    2    3    3    0    0  0.31298188697E+02 -0.27807316640E+02  0.27203063480E+03  0.38070693887E+03  0.26302905460E+03 0.  0.
         25    1    4    4    0    0  0.48024583636E+02 -0.35805284378E+02  0.12428004577E+03  0.18622947377E+03  0.12509000000E+03 0.  0.
         25    1    4    4    0    0 -0.16726394938E+02  0.79979677378E+01  0.14775058903E+03  0.19447746511E+03  0.12509000000E+03 0.  0.
         25    1    3    3    0    0 -0.31298188697E+02  0.27807316640E+02  0.55423025825E+03  0.56971177866E+03  0.12509000000E+03 0.  0.
<mgrwt>
<rscale>  2 0.46966869E+03</rscale>
<asrwt>0</asrwt>
<pdfrwt beam="1">  1       21 0.13063820E+00 0.46966869E+03</pdfrwt>
<pdfrwt beam="2">  1       21 0.91292523E-02 0.46966869E+03</pdfrwt>
<totfact> 0.36725440E+04</totfact>
</mgrwt>
</event>
<event>
 7    0  0.4779893E-002  0.5272049E+03  0.7546771E-02  0.1006912E+00
         21   -1    0    0  502  501  0.00000000000E+00  0.00000000000E+00  0.58909200896E+02  0.58909200896E+02  0.00000000000E+00 0. -1.
         21   -1    0    0  501  502 -0.00000000000E+00 -0.00000000000E+00 -0.11795485731E+04  0.11795485731E+04  0.00000000000E+00 0. -1.
      99926    2    1    2    0    0  0.00000000000E+00  0.00000000000E+00 -0.11206393722E+04  0.12384577740E+04  0.52720494633E+03 0.  0.
      99925    2    3    3    0    0 -0.15100888122E+03  0.18874507280E+02 -0.85740882623E+03  0.90967553958E+03  0.26305847787E+03 0.  0.
         25    1    4    4    0    0 -0.76353829586E+02  0.49573357592E+02 -0.41591083445E+03  0.44375303423E+03  0.12509000000E+03 0.  0.
         25    1    4    4    0    0 -0.74655051637E+02 -0.30698850312E+02 -0.44149799179E+03  0.46592250536E+03  0.12509000000E+03 0.  0.
         25    1    3    3    0    0  0.15100888122E+03 -0.18874507280E+02 -0.26323054597E+03  0.32878223441E+03  0.12509000000E+03 0.  0.
<mgrwt>
<rscale>  2 0.52720495E+03</rscale>
<asrwt>0</asrwt>
<pdfrwt beam="1">  1       21 0.86631168E-02 0.52720495E+03</pdfrwt>
<pdfrwt beam="2">  1       21 0.17346304E+00 0.52720495E+03</pdfrwt>
<totfact> 0.18300800E+04</totfact>
</mgrwt>
</event>
<event>
 7    0  0.4779893E-002  0.4523283E+03  0.7546771E-02  0.1027030E+00
         21   -1    0    0  502  501  0.00000000000E+00  0.00000000000E+00  0.98029271932E+02  0.98029271932E+02  0.00000000000E+00 0.  1.
         21   -1    0    0  501  502 -0.00000000000E+00 -0.00000000000E+00 -0.52178528789E+03  0.52178528789E+03  0.00000000000E+00 0.  1.
      99926    2    1    2    0    0  0.00000000000E+00  0.00000000000E+00 -0.42375601595E+03  0.61981455982E+03  0.45232834037E+03 0.  0.
      99925    2    3    3    0    0  0.53780606750E+02  0.95058299912E+02 -0.28713190493E+03  0.40477481963E+03  0.26357065417E+03 0.  0.
         25    1    3    3    0    0 -0.53780606750E+02 -0.95058299912E+02 -0.13662411103E+03  0.21503974018E+03  0.12509000000E+03 0.  0.
         25    1    4    4    0    0  0.22158626810E+02  0.70223849800E+02 -0.10058322357E+03  0.17659809395E+03  0.12509000000E+03 0.  0.
         25    1    4    4    0    0  0.31621979940E+02  0.24834450111E+02 -0.18654868136E+03  0.22817672568E+03  0.12509000000E+03 0.  0.
<mgrwt>
<rscale>  2 0.45232834E+03</rscale>
<asrwt>0</asrwt>
<pdfrwt beam="1">  1       21 0.14416070E-01 0.45232834E+03</pdfrwt>
<pdfrwt beam="2">  1       21 0.76733129E-01 0.45232834E+03</pdfrwt>
<totfact> 0.58703590E+04</totfact>
</mgrwt>
</event>
<event>
 7    0  0.4779893E-002  0.4425462E+03  0.7546771E-02  0.1029968E+00
         21   -1    0    0  502  501  0.00000000000E+00  0.00000000000E+00  0.44612611469E+03  0.44612611469E+03  0.00000000000E+00 0.  1.
         21   -1    0    0  501  502 -0.00000000000E+00 -0.00000000000E+00 -0.10974872935E+03  0.10974872935E+03  0.00000000000E+00 0.  1.
      99926    2    1    2    0    0  0.71054273576E-14  0.00000000000E+00  0.33637738534E+03  0.55587484404E+03  0.44254615225E+03 0.  0.
      99925    2    3    3    0    0  0.48878144221E+02 -0.79814226992E+02  0.16649941768E+03  0.32508182896E+03  0.26305276205E+03 0.  0.
         25    1    4    4    0    0 -0.10063856215E+02 -0.61211048005E+02  0.86441038098E+02  0.16421825345E+03  0.12509000000E+03 0.  0.
         25    1    3    3    0    0 -0.48878144221E+02  0.79814226992E+02  0.16987796766E+03  0.23079301508E+03  0.12509000000E+03 0.  0.
         25    1    4    4    0    0  0.58942000435E+02 -0.18603178987E+02  0.80058379583E+02  0.16086357551E+03  0.12509000000E+03 0.  0.
<mgrwt>
<rscale>  2 0.44254615E+03</rscale>
<asrwt>0</asrwt>
<pdfrwt beam="1">  1       21 0.65606781E-01 0.44254615E+03</pdfrwt>
<pdfrwt beam="2">  1       21 0.16139519E-01 0.44254615E+03</pdfrwt>
<totfact> 0.67928811E+04</totfact>
</mgrwt>
</event>
<event>
 7    0  0.4779893E-002  0.4518847E+03  0.7546771E-02  0.1027161E+00
         21   -1    0    0  502  501  0.00000000000E+00  0.00000000000E+00  0.56240651248E+02  0.56240651248E+02  0.00000000000E+00 0.  1.
         21   -1    0    0  501  502 -0.00000000000E+00 -0.00000000000E+00 -0.90770543217E+03  0.90770543217E+03  0.00000000000E+00 0.  1.
      99926    2    1    2    0    0  0.00000000000E+00  0.00000000000E+00 -0.85146478092E+03  0.96394608342E+03  0.45188469612E+03 0.  0.
      99925    2    3    3    0    0  0.74782265673E+02  0.60282603549E+02 -0.42176542487E+03  0.50621753478E+03  0.26295197156E+03 0.  0.
         25    1    4    4    0    0  0.22694698461E+02  0.54610044330E+02 -0.26486127496E+03  0.29882488075E+03  0.12509000000E+03 0.  0.
         25    1    4    4    0    0  0.52087567212E+02  0.56725592189E+01 -0.15690414991E+03  0.20739265403E+03  0.12509000000E+03 0.  0.
         25    1    3    3    0    0 -0.74782265673E+02 -0.60282603549E+02 -0.42969935605E+03  0.45772854864E+03  0.12509000000E+03 0.  0.
<mgrwt>
<rscale>  2 0.45188470E+03</rscale>
<asrwt>0</asrwt>
<pdfrwt beam="1">  1       21 0.82706841E-02 0.45188470E+03</pdfrwt>
<pdfrwt beam="2">  1       21 0.13348609E+00 0.45188470E+03</pdfrwt>
<totfact> 0.41584899E+04</totfact>
</mgrwt>
</event>
<event>
 7    0  0.4779893E-002  0.4558833E+03  0.7546771E-02  0.1025982E+00
         21   -1    0    0  502  501  0.00000000000E+00  0.00000000000E+00  0.72749818517E+02  0.72749818517E+02  0.00000000000E+00 0. -1.
         21   -1    0    0  501  502 -0.00000000000E+00 -0.00000000000E+00 -0.71419277550E+03  0.71419277550E+03  0.00000000000E+00 0. -1.
      99926    2    1    2    0    0 -0.14210854715E-13 -0.26645352591E-14 -0.64144295699E+03  0.78694259402E+03  0.45588329561E+03 0.  0.
      99925    2    3    3    0    0 -0.10753453196E+03  0.47683366313E+01 -0.33865566522E+03  0.44210340722E+03  0.26302347897E+03 0.  0.
         25    1    3    3    0    0  0.10753453196E+03 -0.47683366313E+01 -0.30278729177E+03  0.34483918681E+03  0.12509000000E+03 0.  0.
         25    1    4    4    0    0 -0.60730424046E+02  0.34518226781E+02 -0.13574835295E+03  0.19736974392E+03  0.12509000000E+03 0.  0.
         25    1    4    4    0    0 -0.46804107914E+02 -0.29749890150E+02 -0.20290731226E+03  0.24473366330E+03  0.12509000000E+03 0.  0.
<mgrwt>
<rscale>  2 0.45588330E+03</rscale>
<asrwt>0</asrwt>
<pdfrwt beam="1">  1       21 0.10698503E-01 0.45588330E+03</pdfrwt>
<pdfrwt beam="2">  1       21 0.10502835E+00 0.45588330E+03</pdfrwt>
<totfact> 0.48068783E+04</totfact>
</mgrwt>
</event>
<event>
 7    0  0.4779893E-002  0.4500310E+03  0.7546771E-02  0.1027713E+00
         21   -1    0    0  502  501  0.00000000000E+00  0.00000000000E+00  0.35719220204E+03  0.35719220204E+03  0.00000000000E+00 0. -1.
         21   -1    0    0  501  502 -0.00000000000E+00 -0.00000000000E+00 -0.14174994933E+03  0.14174994933E+03  0.00000000000E+00 0. -1.
      99926    2    1    2    0    0  0.35527136788E-14  0.00000000000E+00  0.21544225271E+03  0.49894215137E+03  0.45003100578E+03 0.  0.
      99925    2    3    3    0    0 -0.23431695368E+02 -0.83297959279E+02  0.20854692096E+03  0.34668366042E+03  0.26307821611E+03 0.  0.
         25    1    4    4    0    0 -0.33034386691E+02 -0.58388582252E+02  0.14835255020E+03  0.20532044343E+03  0.12509000000E+03 0.  0.
         25    1    3    3    0    0  0.23431695368E+02  0.83297959279E+02  0.68953317450E+01  0.15225849095E+03  0.12509000000E+03 0.  0.
         25    1    4    4    0    0  0.96026913229E+01 -0.24909377027E+02  0.60194370764E+02  0.14136321698E+03  0.12509000000E+03 0.  0.
<mgrwt>
<rscale>  2 0.45003101E+03</rscale>
<asrwt>0</asrwt>
<pdfrwt beam="1">  1       21 0.52528265E-01 0.45003101E+03</pdfrwt>
<pdfrwt beam="2">  1       21 0.20845581E-01 0.45003101E+03</pdfrwt>
<totfact> 0.67987345E+04</totfact>
</mgrwt>
</event>
<event>
 7    0  0.4779893E-002  0.4624222E+03  0.7546771E-02  0.1024081E+00
         21   -1    0    0  502  501  0.00000000000E+00  0.00000000000E+00  0.20938918241E+04  0.20938918241E+04  0.00000000000E+00 0. -1.
         21   -1    0    0  501  502 -0.00000000000E+00 -0.00000000000E+00 -0.25530718757E+02  0.25530718757E+02  0.00000000000E+00 0. -1.
      99926    2    1    2    0    0  0.14210854715E-13  0.71054273576E-14  0.20683611053E+04  0.21194225428E+04  0.46242215894E+03 0.  0.
      99925    2    3    3    0    0 -0.10698185085E+03 -0.46843284157E+02  0.14192377847E+04  0.14481193303E+04  0.26301006748E+03 0.  0.
         25    1    3    3    0    0  0.10698185085E+03  0.46843284157E+02  0.64912332061E+03  0.67130321252E+03  0.12509000000E+03 0.  0.
         25    1    4    4    0    0 -0.64436796817E+02  0.13304089918E+02  0.76792712288E+03  0.78082563595E+03  0.12509000000E+03 0.  0.
         25    1    4    4    0    0 -0.42545054037E+02 -0.60147374075E+02  0.65131066184E+03  0.66729369438E+03  0.12509000000E+03 0.  0.
<mgrwt>
<rscale>  2 0.46242216E+03</rscale>
<asrwt>0</asrwt>
<pdfrwt beam="1">  1       21 0.30792515E+00 0.46242216E+03</pdfrwt>
<pdfrwt beam="2">  1       21 0.37545189E-02 0.46242216E+03</pdfrwt>
<totfact> 0.11196954E+04</totfact>
</mgrwt>
</event>
<event>
 7    0  0.4779893E-002  0.4548746E+03  0.7546771E-02  0.1026278E+00
         21   -1    0    0  502  501  0.00000000000E+00  0.00000000000E+00  0.13196274192E+03  0.13196274192E+03  0.00000000000E+00 0. -1.
         21   -1    0    0  501  502 -0.00000000000E+00 -0.00000000000E+00 -0.39198728132E+03  0.39198728132E+03  0.00000000000E+00 0. -1.
      99926    2    1    2    0    0  0.00000000000E+00  0.44408920985E-15 -0.26002453939E+03  0.52395002324E+03  0.45487456047E+03 0.  0.
      99925    2    3    3    0    0 -0.16741366854E+02 -0.37442938612E+01 -0.34998743237E+02  0.26592209813E+03  0.26305010387E+03 0.  0.
         25    1    4    4    0    0 -0.13548505917E+02  0.40774390777E+01 -0.57746191017E+02  0.13850024621E+03  0.12509000000E+03 0.  0.
         25    1    4    4    0    0 -0.31928609376E+01 -0.78217329389E+01  0.22747447780E+02  0.12742185192E+03  0.12509000000E+03 0.  0.
         25    1    3    3    0    0  0.16741366854E+02  0.37442938612E+01 -0.22502579616E+03  0.25802792511E+03  0.12509000000E+03 0.  0.
<mgrwt>
<rscale>  2 0.45487456E+03</rscale>
<asrwt>0</asrwt>
<pdfrwt beam="1">  1       21 0.19406286E-01 0.45487456E+03</pdfrwt>
<pdfrwt beam="2">  1       21 0.57645188E-01 0.45487456E+03</pdfrwt>
<totfact> 0.63681208E+04</totfact>
</mgrwt>
</event>
<event>
 7    0  0.4779893E-002  0.4526265E+03  0.7546771E-02  0.1026942E+00
         21   -1    0    0  502  501  0.00000000000E+00  0.00000000000E+00  0.39778632093E+03  0.39778632093E+03  0.00000000000E+00 0.  1.
         21   -1    0    0  501  502 -0.00000000000E+00 -0.00000000000E+00 -0.12875677480E+03  0.12875677480E+03  0.00000000000E+00 0.  1.
      99926    2    1    2    0    0 -0.14210854715E-13 -0.35527136788E-14  0.26902954613E+03  0.52654309573E+03  0.45262648505E+03 0.  0.
      99925    2    3    3    0    0 -0.98515751630E+02 -0.27161226257E+02  0.11916086897E+03  0.30619969550E+03  0.26289894503E+03 0.  0.
         25    1    3    3    0    0  0.98515751630E+02  0.27161226257E+02  0.14986867716E+03  0.22034340023E+03  0.12509000000E+03 0.  0.
         25    1    4    4    0    0 -0.41860492551E+02 -0.26540182070E+02  0.99787691546E+02  0.16751648750E+03  0.12509000000E+03 0.  0.
         25    1    4    4    0    0 -0.56655259079E+02 -0.62104418687E+00  0.19373177423E+02  0.13868320800E+03  0.12509000000E+03 0.  0.
<mgrwt>
<rscale>  2 0.45262649E+03</rscale>
<asrwt>0</asrwt>
<pdfrwt beam="1">  1       21 0.58497988E-01 0.45262649E+03</pdfrwt>
<pdfrwt beam="2">  1       21 0.18934820E-01 0.45262649E+03</pdfrwt>
<totfact> 0.64648905E+04</totfact>
</mgrwt>
</event>
<event>
 7    0  0.4779893E-002  0.4577813E+03  0.7546771E-02  0.1025427E+00
         21   -1    0    0  502  501  0.00000000000E+00  0.00000000000E+00  0.94628257300E+03  0.94628257300E+03  0.00000000000E+00 0. -1.
         21   -1    0    0  501  502 -0.00000000000E+00 -0.00000000000E+00 -0.55364989469E+02  0.55364989469E+02  0.00000000000E+00 0. -1.
      99926    2    1    2    0    0  0.00000000000E+00  0.00000000000E+00  0.89091758353E+03  0.10016475625E+04  0.45778127829E+03 0.  0.
      99925    2    3    3    0    0  0.31698237466E+02  0.11006138834E+03  0.59569959946E+03  0.66117810175E+03  0.26302125765E+03 0.  0.
         25    1    4    4    0    0  0.79982367026E+01  0.21016435584E+02  0.21144212675E+03  0.24670010826E+03  0.12509000000E+03 0.  0.
         25    1    3    3    0    0 -0.31698237466E+02 -0.11006138834E+03  0.29521798407E+03  0.34046946071E+03  0.12509000000E+03 0.  0.
         25    1    4    4    0    0  0.23700000763E+02  0.89044952757E+02  0.38425747272E+03  0.41447799349E+03  0.12509000000E+03 0.  0.
<mgrwt>
<rscale>  2 0.45778128E+03</rscale>
<asrwt>0</asrwt>
<pdfrwt beam="1">  1       21 0.13915919E+00 0.45778128E+03</pdfrwt>
<pdfrwt beam="2">  1       21 0.81419108E-02 0.45778128E+03</pdfrwt>
<totfact> 0.38264854E+04</totfact>
</mgrwt>
</event>
<event>
 7    0  0.4779893E-002  0.4600678E+03  0.7546771E-02  0.1024762E+00
         21   -1    0    0  502  501  0.00000000000E+00  0.00000000000E+00  0.33881354433E+03  0.33881354433E+03  0.00000000000E+00 0.  1.
         21   -1    0    0  501  502 -0.00000000000E+00 -0.00000000000E+00 -0.15617907952E+03  0.15617907952E+03  0.00000000000E+00 0.  1.
      99926    2    1    2    0    0  0.00000000000E+00  0.00000000000E+00  0.18263446481E+03  0.49499262384E+03  0.46006776667E+03 0.  0.
      99925    2    3    3    0    0  0.59573173401E+02  0.60350601951E+02  0.20275414822E+03  0.34253453811E+03  0.26273467040E+03 0.  0.
         25    1    4    4    0    0  0.12267409207E+02  0.44382451195E+02  0.59702965644E+02  0.14605561786E+03  0.12509000000E+03 0.  0.
         25    1    4    4    0    0  0.47305764195E+02  0.15968150756E+02  0.14305118258E+03  0.19647892025E+03  0.12509000000E+03 0.  0.
         25    1    3    3    0    0 -0.59573173401E+02 -0.60350601951E+02 -0.20119683414E+02  0.15245808573E+03  0.12509000000E+03 0.  0.
<mgrwt>
<rscale>  2 0.46006777E+03</rscale>
<asrwt>0</asrwt>
<pdfrwt beam="1">  1       21 0.49825521E-01 0.46006777E+03</pdfrwt>
<pdfrwt beam="2">  1       21 0.22967512E-01 0.46006777E+03</pdfrwt>
<totfact> 0.63048923E+04</totfact>
</mgrwt>
</event>
<event>
 7    0  0.4779893E-002  0.4526953E+03  0.7546771E-02  0.1026921E+00
         21   -1    0    0  502  501  0.00000000000E+00  0.00000000000E+00  0.58257898638E+03  0.58257898638E+03  0.00000000000E+00 0. -1.
         21   -1    0    0  501  502 -0.00000000000E+00 -0.00000000000E+00 -0.87942158698E+02  0.87942158698E+02  0.00000000000E+00 0. -1.
      99926    2    1    2    0    0  0.71054273576E-14  0.00000000000E+00  0.49463682768E+03  0.67052114507E+03  0.45269527797E+03 0.  0.
      99925    2    3    3    0    0  0.55118582405E+02 -0.46531907309E+02  0.43674413641E+03  0.51495010559E+03  0.26310624096E+03 0.  0.
         25    1    4    4    0    0 -0.27819500070E+01 -0.30150387781E+02  0.26092050435E+03  0.29093608030E+03  0.12509000000E+03 0.  0.
         25    1    4    4    0    0  0.57900532412E+02 -0.16381519528E+02  0.17582363206E+03  0.22401402529E+03  0.12509000000E+03 0.  0.
         25    1    3    3    0    0 -0.55118582405E+02  0.46531907309E+02  0.57892691264E+02  0.15557103948E+03  0.12509000000E+03 0.  0.
<mgrwt>
<rscale>  2 0.45269528E+03</rscale>
<asrwt>0</asrwt>
<pdfrwt beam="1">  1       21 0.85673378E-01 0.45269528E+03</pdfrwt>
<pdfrwt beam="2">  1       21 0.12932671E-01 0.45269528E+03</pdfrwt>
<totfact> 0.55535057E+04</totfact>
</mgrwt>
</event>
<event>
 7    0  0.4779893E-002  0.4573229E+03  0.7546771E-02  0.1025561E+00
         21   -1    0    0  502  501  0.00000000000E+00  0.00000000000E+00  0.97799992971E+02  0.97799992971E+02  0.00000000000E+00 0. -1.
         21   -1    0    0  501  502 -0.00000000000E+00 -0.00000000000E+00 -0.53462232350E+03  0.53462232350E+03  0.00000000000E+00 0. -1.
      99926    2    1    2    0    0  0.35527136788E-14  0.00000000000E+00 -0.43682233053E+03  0.63242231647E+03  0.45732290334E+03 0.  0.
      99925    2    3    3    0    0  0.30851502170E+02 -0.40991759499E+02 -0.41726555399E+03  0.49581296415E+03  0.26284560742E+03 0.  0.
         25    1    4    4    0    0  0.45629954324E+02 -0.28391661889E+02 -0.16795141205E+03  0.21620213715E+03  0.12509000000E+03 0.  0.
         25    1    3    3    0    0 -0.30851502170E+02  0.40991759499E+02 -0.19556776540E+02  0.13660935232E+03  0.12509000000E+03 0.  0.
         25    1    4    4    0    0 -0.14778452154E+02 -0.12600097610E+02 -0.24931414193E+03  0.27961082700E+03  0.12509000000E+03 0.  0.
<mgrwt>
<rscale>  2 0.45732290E+03</rscale>
<asrwt>0</asrwt>
<pdfrwt beam="1">  1       21 0.14382352E-01 0.45732290E+03</pdfrwt>
<pdfrwt beam="2">  1       21 0.78620932E-01 0.45732290E+03</pdfrwt>
<totfact> 0.55697361E+04</totfact>
</mgrwt>
</event>
<event>
 7    0  0.4779893E-002  0.4604574E+03  0.7546771E-02  0.1024649E+00
         21   -1    0    0  502  501  0.00000000000E+00  0.00000000000E+00  0.21830772288E+03  0.21830772288E+03  0.00000000000E+00 0.  1.
         21   -1    0    0  501  502 -0.00000000000E+00 -0.00000000000E+00 -0.24280060695E+03  0.24280060695E+03  0.00000000000E+00 0.  1.
      99926    2    1    2    0    0  0.00000000000E+00  0.00000000000E+00 -0.24492884074E+02  0.46110832983E+03  0.46045737096E+03 0.  0.
      99925    2    3    3    0    0  0.26800239517E+02  0.10879075260E+03  0.22501611253E+02  0.28672463970E+03  0.26296580731E+03 0.  0.
         25    1    4    4    0    0  0.68923121186E+01  0.69550564665E+02  0.49119648757E+02  0.15147617966E+03  0.12509000000E+03 0.  0.
         25    1    4    4    0    0  0.19907927399E+02  0.39240187939E+02 -0.26618037504E+02  0.13524846004E+03  0.12509000000E+03 0.  0.
         25    1    3    3    0    0 -0.26800239517E+02 -0.10879075260E+03 -0.46994495327E+02  0.17438369012E+03  0.12509000000E+03 0.  0.
<mgrwt>
<rscale>  2 0.46045737E+03</rscale>
<asrwt>0</asrwt>
<pdfrwt beam="1">  1       21 0.32104077E-01 0.46045737E+03</pdfrwt>
<pdfrwt beam="2">  1       21 0.35705971E-01 0.46045737E+03</pdfrwt>
<totfact> 0.65214367E+04</totfact>
</mgrwt>
</event>
<event>
 7    0  0.4779893E-002  0.4594042E+03  0.7546771E-02  0.1024954E+00
         21   -1    0    0  502  501  0.00000000000E+00  0.00000000000E+00  0.33362388471E+03  0.33362388471E+03  0.00000000000E+00 0.  1.
         21   -1    0    0  501  502 -0.00000000000E+00 -0.00000000000E+00 -0.15815133798E+03  0.15815133798E+03  0.00000000000E+00 0.  1.
      99926    2    1    2    0    0  0.00000000000E+00  0.71054273576E-14  0.17547254673E+03  0.49177522269E+03  0.45940423920E+03 0.  0.
      99925    2    3    3    0    0 -0.97063833962E+02 -0.55964006110E+02  0.14691428814E+03  0.32143309614E+03  0.26302484558E+03 0.  0.
         25    1    4    4    0    0 -0.91752047413E+02 -0.29044687993E+02  0.81783382033E+02  0.17775843660E+03  0.12509000000E+03 0.  0.
         25    1    4    4    0    0 -0.53117865489E+01 -0.26919318117E+02  0.65130906104E+02  0.14367465954E+03  0.12509000000E+03 0.  0.
         25    1    3    3    0    0  0.97063833962E+02  0.55964006110E+02  0.28558258591E+02  0.17034212655E+03  0.12509000000E+03 0.  0.
<mgrwt>
<rscale>  2 0.45940424E+03</rscale>
<asrwt>0</asrwt>
<pdfrwt beam="1">  1       21 0.49062336E-01 0.45940424E+03</pdfrwt>
<pdfrwt beam="2">  1       21 0.23257550E-01 0.45940424E+03</pdfrwt>
<totfact> 0.63599495E+04</totfact>
</mgrwt>
</event>
<event>
 7    0  0.4779893E-002  0.4608939E+03  0.7546771E-02  0.1024522E+00
         21   -1    0    0  502  501  0.00000000000E+00  0.00000000000E+00  0.53638415030E+03  0.53638415030E+03  0.00000000000E+00 0.  1.
         21   -1    0    0  501  502 -0.00000000000E+00 -0.00000000000E+00 -0.99007030628E+02  0.99007030628E+02  0.00000000000E+00 0.  1.
      99926    2    1    2    0    0  0.00000000000E+00  0.71054273576E-14  0.43737711967E+03  0.63539118093E+03  0.46089392271E+03 0.  0.
      99925    2    3    3    0    0 -0.28890821395E+02 -0.36509486617E+02  0.42418381104E+03  0.50126738115E+03  0.26300087392E+03 0.  0.
         25    1    4    4    0    0  0.32723429147E+01 -0.52418675288E+02  0.19189812577E+03  0.23501239227E+03  0.12509000000E+03 0.  0.
         25    1    4    4    0    0 -0.32163164309E+02  0.15909188671E+02  0.23228568527E+03  0.26625498888E+03  0.12509000000E+03 0.  0.
         25    1    3    3    0    0  0.28890821395E+02  0.36509486617E+02  0.13193308632E+02  0.13412379978E+03  0.12509000000E+03 0.  0.
<mgrwt>
<rscale>  2 0.46089392E+03</rscale>
<asrwt>0</asrwt>
<pdfrwt beam="1">  1       21 0.78880021E-01 0.46089392E+03</pdfrwt>
<pdfrwt beam="2">  1       21 0.14559858E-01 0.46089392E+03</pdfrwt>
<totfact> 0.53994961E+04</totfact>
</mgrwt>
</event>
<event>
 7    0  0.4779893E-002  0.4551383E+03  0.7546771E-02  0.1026201E+00
         21   -1    0    0  502  501  0.00000000000E+00  0.00000000000E+00  0.19925823718E+03  0.19925823718E+03  0.00000000000E+00 0.  1.
         21   -1    0    0  501  502 -0.00000000000E+00 -0.00000000000E+00 -0.25990253094E+03  0.25990253094E+03  0.00000000000E+00 0.  1.
      99926    2    1    2    0    0  0.00000000000E+00  0.00000000000E+00 -0.60644293755E+02  0.45916076812E+03  0.45513830933E+03 0.  0.
      99925    2    3    3    0    0 -0.76370244911E+02 -0.34753246347E+02  0.38605845643E+02  0.27877700857E+03  0.26303233024E+03 0.  0.
         25    1    3    3    0    0  0.76370244911E+02  0.34753246347E+02 -0.99250139398E+02  0.18038375955E+03  0.12509000000E+03 0.  0.
         25    1    4    4    0    0 -0.19385227628E+02 -0.33275375420E+02  0.51621593709E+02  0.14069589438E+03  0.12509000000E+03 0.  0.
         25    1    4    4    0    0 -0.56985017283E+02 -0.14778709271E+01 -0.13015748066E+02  0.13808111419E+03  0.12509000000E+03 0.  0.
<mgrwt>
<rscale>  2 0.45513831E+03</rscale>
<asrwt>0</asrwt>
<pdfrwt beam="1">  1       21 0.29302682E-01 0.45513831E+03</pdfrwt>
<pdfrwt beam="2">  1       21 0.38220960E-01 0.45513831E+03</pdfrwt>
<totfact> 0.68166550E+04</totfact>
</mgrwt>
</event>
<event>
 7    0  0.4779893E-002  0.4477751E+03  0.7546771E-02  0.1028388E+00
         21   -1    0    0  502  501  0.00000000000E+00  0.00000000000E+00  0.95807168732E+03  0.95807168732E+03  0.00000000000E+00 0.  1.
         21   -1    0    0  501  502 -0.00000000000E+00 -0.00000000000E+00 -0.52319296457E+02  0.52319296457E+02  0.00000000000E+00 0.  1.
      99926    2    1    2    0    0  0.71054273576E-14  0.00000000000E+00  0.90575239087E+03  0.10103909838E+04  0.44777510711E+03 0.  0.
      99925    2    3    3    0    0 -0.61290220497E+02  0.56129838392E+02  0.72330642562E+03  0.77408379341E+03  0.26291915866E+03 0.  0.
         25    1    3    3    0    0  0.61290220497E+02 -0.56129838392E+02  0.18244596525E+03  0.23630719037E+03  0.12509000000E+03 0.  0.
         25    1    4    4    0    0 -0.37869242443E+02  0.61712243741E+02  0.31973784930E+03  0.35088784665E+03  0.12509000000E+03 0.  0.
         25    1    4    4    0    0 -0.23420978054E+02 -0.55824053487E+01  0.40356857632E+03  0.42319594676E+03  0.12509000000E+03 0.  0.
<mgrwt>
<rscale>  2 0.44777511E+03</rscale>
<asrwt>0</asrwt>
<pdfrwt beam="1">  1       21 0.14089288E+00 0.44777511E+03</pdfrwt>
<pdfrwt beam="2">  1       21 0.76940148E-02 0.44777511E+03</pdfrwt>
<totfact> 0.41031483E+04</totfact>
</mgrwt>
</event>
<event>
 7    0  0.4779893E-002  0.4666749E+03  0.7546771E-02  0.1022863E+00
         21   -1    0    0  502  501  0.00000000000E+00  0.00000000000E+00  0.88558829504E+02  0.88558829504E+02  0.00000000000E+00 0. -1.
         21   -1    0    0  501  502 -0.00000000000E+00 -0.00000000000E+00 -0.61480444631E+03  0.61480444631E+03  0.00000000000E+00 0. -1.
      99926    2    1    2    0    0  0.00000000000E+00  0.00000000000E+00 -0.52624561681E+03  0.70336327582E+03  0.46667488529E+03 0.  0.
      99925    2    3    3    0    0  0.37836062551E+02 -0.78295022946E+02 -0.46054280360E+03  0.53745352321E+03  0.26304930605E+03 0.  0.
         25    1    3    3    0    0 -0.37836062551E+02  0.78295022946E+02 -0.65702813207E+02  0.16590975261E+03  0.12509000000E+03 0.  0.
         25    1    4    4    0    0 -0.78938968741E+01 -0.11361279770E+02 -0.24432871757E+03  0.27483708377E+03  0.12509000000E+03 0.  0.
         25    1    4    4    0    0  0.45729959425E+02 -0.66933743177E+02 -0.21621408604E+03  0.26261643944E+03  0.12509000000E+03 0.  0.
<mgrwt>
<rscale>  2 0.46667489E+03</rscale>
<asrwt>0</asrwt>
<pdfrwt beam="1">  1       21 0.13023357E-01 0.46667489E+03</pdfrwt>
<pdfrwt beam="2">  1       21 0.90412418E-01 0.46667489E+03</pdfrwt>
<totfact> 0.48142292E+04</totfact>
</mgrwt>
</event>
<event>
 7    0  0.4779893E-002  0.4544805E+03  0.7546771E-02  0.1026394E+00
         21   -1    0    0  502  501  0.00000000000E+00  0.00000000000E+00  0.29932975122E+03  0.29932975122E+03  0.00000000000E+00 0. -1.
         21   -1    0    0  501  502 -0.00000000000E+00 -0.00000000000E+00 -0.17251252984E+03  0.17251252984E+03  0.00000000000E+00 0. -1.
      99926    2    1    2    0    0  0.00000000000E+00  0.14210854715E-13  0.12681722138E+03  0.47184228106E+03  0.45448050625E+03 0.  0.
      99925    2    3    3    0    0 -0.20139818993E+02  0.10824480720E+03  0.55070970615E+02  0.29041024642E+03  0.26302613716E+03 0.  0.
         25    1    4    4    0    0 -0.13796605407E+02  0.58568077649E+02  0.68884200930E+02  0.15496163163E+03  0.12509000000E+03 0.  0.
         25    1    4    4    0    0 -0.63432135860E+01  0.49676729550E+02 -0.13813230315E+02  0.13544861479E+03  0.12509000000E+03 0.  0.
         25    1    3    3    0    0  0.20139818993E+02 -0.10824480720E+03  0.71746250768E+02  0.18143203464E+03  0.12509000000E+03 0.  0.
<mgrwt>
<rscale>  2 0.45448051E+03</rscale>
<asrwt>0</asrwt>
<pdfrwt beam="1">  1       21 0.44019081E-01 0.45448051E+03</pdfrwt>
<pdfrwt beam="2">  1       21 0.25369490E-01 0.45448051E+03</pdfrwt>
<totfact> 0.67577071E+04</totfact>
</mgrwt>
</event>
<event>
 7    0  0.4779893E-002  0.4557568E+03  0.7546771E-02  0.1026019E+00
         21   -1    0    0  502  501  0.00000000000E+00  0.00000000000E+00  0.29087718720E+03  0.29087718720E+03  0.00000000000E+00 0.  1.
         21   -1    0    0  501  502 -0.00000000000E+00 -0.00000000000E+00 -0.17852398948E+03  0.17852398948E+03  0.00000000000E+00 0.  1.
      99926    2    1    2    0    0  0.00000000000E+00  0.00000000000E+00  0.11235319772E+03  0.46940117668E+03  0.45575675928E+03 0.  0.
      99925    2    3    3    0    0  0.68440888534E+02 -0.64675538065E+02  0.13668686848E+03  0.31095018716E+03  0.26294417360E+03 0.  0.
         25    1    4    4    0    0  0.64390357990E+02 -0.47614440177E+02  0.10126392200E+03  0.17976413189E+03  0.12509000000E+03 0.  0.
         25    1    4    4    0    0  0.40505305443E+01 -0.17061097888E+02  0.35422946485E+02  0.13118605527E+03  0.12509000000E+03 0.  0.
         25    1    3    3    0    0 -0.68440888534E+02  0.64675538065E+02 -0.24333670767E+02  0.15845098952E+03  0.12509000000E+03 0.  0.
<mgrwt>
<rscale>  2 0.45575676E+03</rscale>
<asrwt>0</asrwt>
<pdfrwt beam="1">  1       21 0.42776057E-01 0.45575676E+03</pdfrwt>
<pdfrwt beam="2">  1       21 0.26253528E-01 0.45575676E+03</pdfrwt>
<totfact> 0.67076757E+04</totfact>
</mgrwt>
</event>
<event>
 7    0  0.4779893E-002  0.4518792E+03  0.7546771E-02  0.1027163E+00
         21   -1    0    0  502  501  0.00000000000E+00  0.00000000000E+00  0.50320934654E+03  0.50320934654E+03  0.00000000000E+00 0.  1.
         21   -1    0    0  501  502 -0.00000000000E+00 -0.00000000000E+00 -0.10144626415E+03  0.10144626415E+03  0.00000000000E+00 0.  1.
      99926    2    1    2    0    0  0.00000000000E+00  0.00000000000E+00  0.40176308240E+03  0.60465561069E+03  0.45187922409E+03 0.  0.
      99925    2    3    3    0    0 -0.61577567604E+02 -0.12478596995E+02  0.37409924702E+03  0.46196605921E+03  0.26365674848E+03 0.  0.
         25    1    4    4    0    0 -0.66348809559E+02 -0.12232380574E+02  0.16044699823E+03  0.21434211673E+03  0.12509000000E+03 0.  0.
         25    1    4    4    0    0  0.47712419551E+01 -0.24621642161E+00  0.21365224879E+03  0.24762394247E+03  0.12509000000E+03 0.  0.
         25    1    3    3    0    0  0.61577567604E+02  0.12478596995E+02  0.27663835377E+02  0.14268955148E+03  0.12509000000E+03 0.  0.
<mgrwt>
<rscale>  2 0.45187922E+03</rscale>
<asrwt>0</asrwt>
<pdfrwt beam="1">  1       21 0.74001374E-01 0.45187922E+03</pdfrwt>
<pdfrwt beam="2">  1       21 0.14918568E-01 0.45187922E+03</pdfrwt>
<totfact> 0.59854697E+04</totfact>
</mgrwt>
</event>
<event>
 7    0  0.4779893E-002  0.4564912E+03  0.7546771E-02  0.1025804E+00
         21   -1    0    0  502  501  0.00000000000E+00  0.00000000000E+00  0.14256451776E+03  0.14256451776E+03  0.00000000000E+00 0. -1.
         21   -1    0    0  501  502 -0.00000000000E+00 -0.00000000000E+00 -0.36542095987E+03  0.36542095987E+03  0.00000000000E+00 0. -1.
      99926    2    1    2    0    0  0.00000000000E+00  0.00000000000E+00 -0.22285644212E+03  0.50798547763E+03  0.45649123945E+03 0.  0.
      99925    2    3    3    0    0  0.78796658665E+02 -0.36762440723E+02 -0.56798542229E+02  0.28263436341E+03  0.26286064467E+03 0.  0.
         25    1    4    4    0    0  0.42418118401E+02  0.20298297439E+02 -0.15465643082E+02  0.13452885142E+03  0.12509000000E+03 0.  0.
         25    1    3    3    0    0 -0.78796658665E+02  0.36762440723E+02 -0.16605789989E+03  0.22535111422E+03  0.12509000000E+03 0.  0.
         25    1    4    4    0    0  0.36378540263E+02 -0.57060738163E+02 -0.41332899147E+02  0.14810551199E+03  0.12509000000E+03 0.  0.
<mgrwt>
<rscale>  2 0.45649124E+03</rscale>
<asrwt>0</asrwt>
<pdfrwt beam="1">  1       21 0.20965371E-01 0.45649124E+03</pdfrwt>
<pdfrwt beam="2">  1       21 0.53738376E-01 0.45649124E+03</pdfrwt>
<totfact> 0.63952927E+04</totfact>
</mgrwt>
</event>
<event>
 7    0  0.4779893E-002  0.4610075E+03  0.7546771E-02  0.1024489E+00
         21   -1    0    0  502  501  0.00000000000E+00  0.00000000000E+00  0.32143777047E+03  0.32143777047E+03  0.00000000000E+00 0. -1.
         21   -1    0    0  501  502 -0.00000000000E+00 -0.00000000000E+00 -0.16529473141E+03  0.16529473141E+03  0.00000000000E+00 0. -1.
      99926    2    1    2    0    0 -0.14210854715E-13  0.00000000000E+00  0.15614303907E+03  0.48673250188E+03  0.46100746169E+03 0.  0.
      99925    2    3    3    0    0 -0.96528453290E+02  0.63558775837E+02  0.69479179522E+02  0.29564196592E+03  0.26309571518E+03 0.  0.
         25    1    3    3    0    0  0.96528453290E+02 -0.63558775837E+02  0.86663859547E+02  0.19109053596E+03  0.12509000000E+03 0.  0.
         25    1    4    4    0    0 -0.66143693042E+02  0.51770203841E+02  0.39749315235E+01  0.15072640882E+03  0.12509000000E+03 0.  0.
         25    1    4    4    0    0 -0.30384760248E+02  0.11788571996E+02  0.65504247998E+02  0.14491555710E+03  0.12509000000E+03 0.  0.
<mgrwt>
<rscale>  2 0.46100746E+03</rscale>
<asrwt>0</asrwt>
<pdfrwt beam="1">  1       21 0.47270260E-01 0.46100746E+03</pdfrwt>
<pdfrwt beam="2">  1       21 0.24308049E-01 0.46100746E+03</pdfrwt>
<totfact> 0.63147670E+04</totfact>
</mgrwt>
</event>
<event>
 7    0  0.4779893E-002  0.4567273E+03  0.7546771E-02  0.1025735E+00
         21   -1    0    0  502  501  0.00000000000E+00  0.00000000000E+00  0.58129016424E+02  0.58129016424E+02  0.00000000000E+00 0. -1.
         21   -1    0    0  501  502 -0.00000000000E+00 -0.00000000000E+00 -0.89714142277E+03  0.89714142277E+03  0.00000000000E+00 0. -1.
      99926    2    1    2    0    0  0.00000000000E+00  0.00000000000E+00 -0.83901240635E+03  0.95527043920E+03  0.45672726435E+03 0.  0.
      99925    2    3    3    0    0  0.80679637497E+01 -0.11103998485E+03 -0.46876731232E+03  0.54891602735E+03  0.26300388155E+03 0.  0.
         25    1    3    3    0    0 -0.80679637497E+01  0.11103998485E+03 -0.37024509403E+03  0.40635441184E+03  0.12509000000E+03 0.  0.
         25    1    4    4    0    0  0.24507050988E+02 -0.59027947676E+02 -0.17050613872E+03  0.22091796123E+03  0.12509000000E+03 0.  0.
         25    1    4    4    0    0 -0.16439087238E+02 -0.52012037169E+02 -0.29826117360E+03  0.32799806612E+03  0.12509000000E+03 0.  0.
<mgrwt>
<rscale>  2 0.45672726E+03</rscale>
<asrwt>0</asrwt>
<pdfrwt beam="1">  1       21 0.85483852E-02 0.45672726E+03</pdfrwt>
<pdfrwt beam="2">  1       21 0.13193256E+00 0.45672726E+03</pdfrwt>
<totfact> 0.40380001E+04</totfact>
</mgrwt>
</event>
<event>
 7    0  0.4779893E-002  0.4530755E+03  0.7546771E-02  0.1026809E+00
         21   -1    0    0  502  501  0.00000000000E+00  0.00000000000E+00  0.15689931576E+03  0.15689931576E+03  0.00000000000E+00 0.  1.
         21   -1    0    0  501  502 -0.00000000000E+00 -0.00000000000E+00 -0.32708456828E+03  0.32708456828E+03  0.00000000000E+00 0.  1.
      99926    2    1    2    0    0  0.14210854715E-13  0.00000000000E+00 -0.17018525252E+03  0.48398388404E+03  0.45307546815E+03 0.  0.
      99925    2    3    3    0    0  0.98154058156E+02  0.39216090499E+02 -0.14457075628E+03  0.31822583325E+03  0.26304915223E+03 0.  0.
         25    1    4    4    0    0  0.44559540657E+02 -0.18274905794E+02 -0.86277059363E+02  0.15940754034E+03  0.12509000000E+03 0.  0.
         25    1    4    4    0    0  0.53594517498E+02  0.57490996293E+02 -0.58293696919E+02  0.15881829290E+03  0.12509000000E+03 0.  0.
         25    1    3    3    0    0 -0.98154058156E+02 -0.39216090499E+02 -0.25614496235E+02  0.16575805080E+03  0.12509000000E+03 0.  0.
<mgrwt>
<rscale>  2 0.45307547E+03</rscale>
<asrwt>0</asrwt>
<pdfrwt beam="1">  1       21 0.23073429E-01 0.45307547E+03</pdfrwt>
<pdfrwt beam="2">  1       21 0.48100671E-01 0.45307547E+03</pdfrwt>
<totfact> 0.67435614E+04</totfact>
</mgrwt>
</event>
<event>
 7    0  0.4779893E-002  0.4434863E+03  0.7546771E-02  0.1029682E+00
         21   -1    0    0  502  501  0.00000000000E+00  0.00000000000E+00  0.38198037316E+03  0.38198037316E+03  0.00000000000E+00 0.  1.
         21   -1    0    0  501  502 -0.00000000000E+00 -0.00000000000E+00 -0.12872394841E+03  0.12872394841E+03  0.00000000000E+00 0.  1.
      99926    2    1    2    0    0  0.00000000000E+00  0.71054273576E-14  0.25325642475E+03  0.51070432156E+03  0.44348628771E+03 0.  0.
      99925    2    3    3    0    0  0.82761115534E+02  0.56767566797E+02  0.14015998651E+03  0.31446398084E+03  0.26300344968E+03 0.  0.
         25    1    4    4    0    0  0.26869789028E+02  0.63235075959E+02  0.54600369437E+02  0.15280500266E+03  0.12509000000E+03 0.  0.
         25    1    3    3    0    0 -0.82761115534E+02 -0.56767566797E+02  0.11309643824E+03  0.19624034072E+03  0.12509000000E+03 0.  0.
         25    1    4    4    0    0  0.55891326506E+02 -0.64675091619E+01  0.85559617076E+02  0.16165897818E+03  0.12509000000E+03 0.  0.
<mgrwt>
<rscale>  2 0.44348629E+03</rscale>
<asrwt>0</asrwt>
<pdfrwt beam="1">  1       21 0.56173584E-01 0.44348629E+03</pdfrwt>
<pdfrwt beam="2">  1       21 0.18929992E-01 0.44348629E+03</pdfrwt>
<totfact> 0.70772765E+04</totfact>
</mgrwt>
</event>
<event>
 7    0  0.4779893E-002  0.4625373E+03  0.7546771E-02  0.1024048E+00
         21   -1    0    0  502  501  0.00000000000E+00  0.00000000000E+00  0.36625912673E+03  0.36625912673E+03  0.00000000000E+00 0. -1.
         21   -1    0    0  501  502 -0.00000000000E+00 -0.00000000000E+00 -0.14603099402E+03  0.14603099402E+03  0.00000000000E+00 0. -1.
      99926    2    1    2    0    0  0.71054273576E-14  0.00000000000E+00  0.22022813271E+03  0.51229012076E+03  0.46253728216E+03 0.  0.
      99925    2    3    3    0    0  0.57798598720E+02 -0.76903935346E+02  0.57956757376E+02  0.28593994815E+03  0.26295964507E+03 0.  0.
         25    1    4    4    0    0  0.69549329980E+02 -0.32711239558E+02  0.29674674968E+02  0.14978394082E+03  0.12509000000E+03 0.  0.
         25    1    4    4    0    0 -0.11750731260E+02 -0.44192695788E+02  0.28282082409E+02  0.13615600733E+03  0.12509000000E+03 0.  0.
         25    1    3    3    0    0 -0.57798598720E+02  0.76903935346E+02  0.16227137533E+03  0.22635017260E+03  0.12509000000E+03 0.  0.
<mgrwt>
<rscale>  2 0.46253728E+03</rscale>
<asrwt>0</asrwt>
<pdfrwt beam="1">  1       21 0.53861636E-01 0.46253728E+03</pdfrwt>
<pdfrwt beam="2">  1       21 0.21475146E-01 0.46253728E+03</pdfrwt>
<totfact> 0.60702215E+04</totfact>
</mgrwt>
</event>
<event>
 7    0  0.4779893E-002  0.4487664E+03  0.7546771E-02  0.1028091E+00
         21   -1    0    0  502  501  0.00000000000E+00  0.00000000000E+00  0.26742512398E+03  0.26742512398E+03  0.00000000000E+00 0.  1.
         21   -1    0    0  501  502 -0.00000000000E+00 -0.00000000000E+00 -0.18826885256E+03  0.18826885256E+03  0.00000000000E+00 0.  1.
      99926    2    1    2    0    0  0.00000000000E+00  0.00000000000E+00  0.79156271417E+02  0.45569397654E+03  0.44876640355E+03 0.  0.
      99925    2    3    3    0    0 -0.38970805569E+02 -0.62971325199E+02  0.12903677253E+03  0.30200700906E+03  0.26281863208E+03 0.  0.
         25    1    4    4    0    0 -0.39725448184E+02 -0.44346659611E+01  0.38434532250E+02  0.13683018258E+03  0.12509000000E+03 0.  0.
         25    1    3    3    0    0  0.38970805569E+02  0.62971325199E+02 -0.49880501116E+02  0.15368696749E+03  0.12509000000E+03 0.  0.
         25    1    4    4    0    0  0.75464261548E+00 -0.58536659238E+02  0.90602240283E+02  0.16517682648E+03  0.12509000000E+03 0.  0.
<mgrwt>
<rscale>  2 0.44876640E+03</rscale>
<asrwt>0</asrwt>
<pdfrwt beam="1">  1       21 0.39327224E-01 0.44876640E+03</pdfrwt>
<pdfrwt beam="2">  1       21 0.27686596E-01 0.44876640E+03</pdfrwt>
<totfact> 0.72008792E+04</totfact>
</mgrwt>
</event>
<event>
 6    0  0.4779893E-002  0.4606792E+03  0.7546771E-02  0.1024584E+00
         21   -1    0    0  502  501  0.00000000000E+00  0.00000000000E+00  0.58219638916E+03  0.58219638916E+03  0.00000000000E+00 0.  1.
         21   -1    0    0  501  502 -0.00000000000E+00 -0.00000000000E+00 -0.91131347750E+02  0.91131347750E+02  0.00000000000E+00 0.  1.
      99926    2    1    2    0    0  0.00000000000E+00  0.00000000000E+00  0.49106504141E+03  0.67332773691E+03  0.46067924459E+03 0.  0.
         25    1    3    3    0    0  0.60526129874E+02  0.67944032678E+02  0.21396830392E+03  0.26402603500E+03  0.12509000000E+03 0.  0.
         25    1    3    3    0    0  0.34753165431E+01 -0.27968056260E+01  0.20087568534E+03  0.23668216875E+03  0.12509000000E+03 0.  0.
         25    1    3    3    0    0 -0.64001446417E+02 -0.65147227052E+02  0.76221052150E+02  0.17261953316E+03  0.12509000000E+03 0.  0.
<mgrwt>
<rscale>  2 0.46067924E+03</rscale>
<asrwt>0</asrwt>
<pdfrwt beam="1">  1       21 0.85617114E-01 0.46067924E+03</pdfrwt>
<pdfrwt beam="2">  1       21 0.13401669E-01 0.46067924E+03</pdfrwt>
<totfact> 0.52007799E+04</totfact>
</mgrwt>
</event>
<event>
 7    0  0.4779893E-002  0.4580290E+03  0.7546771E-02  0.1025354E+00
         21   -1    0    0  502  501  0.00000000000E+00  0.00000000000E+00  0.21436321123E+04  0.21436321123E+04  0.00000000000E+00 0.  1.
         21   -1    0    0  501  502 -0.00000000000E+00 -0.00000000000E+00 -0.24466715067E+02  0.24466715067E+02  0.00000000000E+00 0.  1.
      99926    2    1    2    0    0 -0.14210854715E-13  0.00000000000E+00  0.21191653972E+04  0.21680988274E+04  0.45802897769E+03 0.  0.
      99925    2    3    3    0    0 -0.10789347855E+03 -0.22052665105E+02  0.11593470587E+04  0.11939191346E+04  0.26311589586E+03 0.  0.
         25    1    4    4    0    0 -0.38301708559E+02  0.15086874003E+02  0.42929461051E+03  0.44903897978E+03  0.12509000000E+03 0.  0.
         25    1    4    4    0    0 -0.69591769987E+02 -0.37139539108E+02  0.73005244817E+03  0.74488015478E+03  0.12509000000E+03 0.  0.
         25    1    3    3    0    0  0.10789347855E+03  0.22052665105E+02  0.95981833856E+03  0.97417969281E+03  0.12509000000E+03 0.  0.
<mgrwt>
<rscale>  2 0.45802898E+03</rscale>
<asrwt>0</asrwt>
<pdfrwt beam="1">  1       21 0.31523989E+00 0.45802898E+03</pdfrwt>
<pdfrwt beam="2">  1       21 0.35980478E-02 0.45802898E+03</pdfrwt>
<totfact> 0.10895827E+04</totfact>
</mgrwt>
</event>
<event>
 7    0  0.4779893E-002  0.4740620E+03  0.7546771E-02  0.1020780E+00
         21   -1    0    0  502  501  0.00000000000E+00  0.00000000000E+00  0.50405290141E+03  0.50405290141E+03  0.00000000000E+00 0.  1.
         21   -1    0    0  501  502 -0.00000000000E+00 -0.00000000000E+00 -0.11146387994E+03  0.11146387994E+03  0.00000000000E+00 0.  1.
      99926    2    1    2    0    0  0.00000000000E+00  0.00000000000E+00  0.39258902147E+03  0.61551678135E+03  0.47406198787E+03 0.  0.
      99925    2    3    3    0    0 -0.10254593311E+03  0.78845317526E+02  0.26265365805E+03  0.39356417547E+03  0.26300867596E+03 0.  0.
         25    1    4    4    0    0 -0.66938444463E+02  0.69321113379E+01  0.10308967160E+03  0.17551010799E+03  0.12509000000E+03 0.  0.
         25    1    3    3    0    0  0.10254593311E+03 -0.78845317526E+02  0.12993536342E+03  0.22195260588E+03  0.12509000000E+03 0.  0.
         25    1    4    4    0    0 -0.35607488643E+02  0.71913206188E+02  0.15956398645E+03  0.21805406748E+03  0.12509000000E+03 0.  0.
<mgrwt>
<rscale>  2 0.47406199E+03</rscale>
<asrwt>0</asrwt>
<pdfrwt beam="1">  1       21 0.74125426E-01 0.47406199E+03</pdfrwt>
<pdfrwt beam="2">  1       21 0.16391747E-01 0.47406199E+03</pdfrwt>
<totfact> 0.49800758E+04</totfact>
</mgrwt>
</event>
<event>
 7    0  0.4779893E-002  0.4400046E+03  0.7546771E-02  0.1030745E+00
         21   -1    0    0  502  501  0.00000000000E+00  0.00000000000E+00  0.12681568122E+03  0.12681568122E+03  0.00000000000E+00 0.  1.
         21   -1    0    0  501  502 -0.00000000000E+00 -0.00000000000E+00 -0.38166417535E+03  0.38166417535E+03  0.00000000000E+00 0.  1.
      99926    2    1    2    0    0  0.00000000000E+00  0.17763568394E-14 -0.25484849414E+03  0.50847985657E+03  0.44000455631E+03 0.  0.
      99925    2    3    3    0    0  0.78798717706E+02  0.71977413295E+01 -0.94711673579E+02  0.29041483235E+03  0.26288672150E+03 0.  0.
         25    1    4    4    0    0  0.52506525346E+02  0.13599824117E+02 -0.95295961149E+01  0.13667557105E+03  0.12509000000E+03 0.  0.
         25    1    3    3    0    0 -0.78798717706E+02 -0.71977413295E+01 -0.16013682056E+03  0.21806502423E+03  0.12509000000E+03 0.  0.
         25    1    4    4    0    0  0.26292192360E+02 -0.64020827875E+01 -0.85182077464E+02  0.15373926130E+03  0.12509000000E+03 0.  0.
<mgrwt>
<rscale>  2 0.44000456E+03</rscale>
<asrwt>0</asrwt>
<pdfrwt beam="1">  1       21 0.18649365E-01 0.44000456E+03</pdfrwt>
<pdfrwt beam="2">  1       21 0.56127084E-01 0.44000456E+03</pdfrwt>
<totfact> 0.72983072E+04</totfact>
</mgrwt>
</event>
<event>
 7    0  0.4779893E-002  0.4547093E+03  0.7546771E-02  0.1026327E+00
         21   -1    0    0  502  501  0.00000000000E+00  0.00000000000E+00  0.13884277851E+03  0.13884277851E+03  0.00000000000E+00 0. -1.
         21   -1    0    0  501  502 -0.00000000000E+00 -0.00000000000E+00 -0.37229255256E+03  0.37229255256E+03  0.00000000000E+00 0. -1.
      99926    2    1    2    0    0  0.00000000000E+00  0.00000000000E+00 -0.23344977404E+03  0.51113533107E+03  0.45470928039E+03 0.  0.
      99925    2    3    3    0    0 -0.28192210628E+02 -0.92562993575E+02 -0.21217808915E+03  0.35156496666E+03  0.26308872220E+03 0.  0.
         25    1    3    3    0    0  0.28192210628E+02  0.92562993575E+02 -0.21271684889E+02  0.15957036441E+03  0.12509000000E+03 0.  0.
         25    1    4    4    0    0  0.16946118562E+02 -0.66808757468E+02 -0.13002147649E+03  0.19314158915E+03  0.12509000000E+03 0.  0.
         25    1    4    4    0    0 -0.45138329190E+02 -0.25754236107E+02 -0.82156612662E+02  0.15842337752E+03  0.12509000000E+03 0.  0.
<mgrwt>
<rscale>  2 0.45470928E+03</rscale>
<asrwt>0</asrwt>
<pdfrwt beam="1">  1       21 0.20418056E-01 0.45470928E+03</pdfrwt>
<pdfrwt beam="2">  1       21 0.54748904E-01 0.45470928E+03</pdfrwt>
<totfact> 0.64644253E+04</totfact>
</mgrwt>
</event>
<event>
 7    0  0.4779893E-002  0.4600140E+03  0.7546771E-02  0.1024777E+00
         21   -1    0    0  502  501  0.00000000000E+00  0.00000000000E+00  0.94690911439E+03  0.94690911439E+03  0.00000000000E+00 0. -1.
         21   -1    0    0  501  502 -0.00000000000E+00 -0.00000000000E+00 -0.55869366617E+02  0.55869366617E+02  0.00000000000E+00 0. -1.
      99926    2    1    2    0    0 -0.35527136788E-14  0.00000000000E+00  0.89103974777E+03  0.10027784810E+04  0.46001396703E+03 0.  0.
      99925    2    3    3    0    0 -0.25236550018E+02 -0.10631399410E+03  0.65442670540E+03  0.71368889503E+03  0.26294101497E+03 0.  0.
         25    1    3    3    0    0  0.25236550018E+02  0.10631399410E+03  0.23661304237E+03  0.28908958597E+03  0.12509000000E+03 0.  0.
         25    1    4    4    0    0 -0.98610987943E+01 -0.60021370464E+02  0.23267227650E+03  0.27107877551E+03  0.12509000000E+03 0.  0.
         25    1    4    4    0    0 -0.15375451223E+02 -0.46292623637E+02  0.42175442890E+03  0.44261011951E+03  0.12509000000E+03 0.  0.
<mgrwt>
<rscale>  2 0.46001397E+03</rscale>
<asrwt>0</asrwt>
<pdfrwt beam="1">  1       21 0.13925133E+00 0.46001397E+03</pdfrwt>
<pdfrwt beam="2">  1       21 0.82160839E-02 0.46001397E+03</pdfrwt>
<totfact> 0.37566228E+04</totfact>
</mgrwt>
</event>
<event>
 7    0  0.4779893E-002  0.4681539E+03  0.7546771E-02  0.1022443E+00
         21   -1    0    0  502  501  0.00000000000E+00  0.00000000000E+00  0.10167346292E+04  0.10167346292E+04  0.00000000000E+00 0. -1.
         21   -1    0    0  501  502 -0.00000000000E+00 -0.00000000000E+00 -0.53890192284E+02  0.53890192284E+02  0.00000000000E+00 0. -1.
      99926    2    1    2    0    0  0.00000000000E+00 -0.14210854715E-13  0.96284443692E+03  0.10706248215E+04  0.46815392627E+03 0.  0.
      99925    2    3    3    0    0 -0.24417535957E+02  0.70510552199E+02  0.82857307199E+03  0.87252317694E+03  0.26305019413E+03 0.  0.
         25    1    4    4    0    0  0.63751444527E+01  0.72149388034E+02  0.42995305500E+03  0.45360039050E+03  0.12509000000E+03 0.  0.
         25    1    3    3    0    0  0.24417535957E+02 -0.70510552199E+02  0.13427136493E+03  0.19810164455E+03  0.12509000000E+03 0.  0.
         25    1    4    4    0    0 -0.30792680410E+02 -0.16388358354E+01  0.39862001699E+03  0.41892278643E+03  0.12509000000E+03 0.  0.
<mgrwt>
<rscale>  2 0.46815393E+03</rscale>
<asrwt>0</asrwt>
<pdfrwt beam="1">  1       21 0.14951979E+00 0.46815393E+03</pdfrwt>
<pdfrwt beam="2">  1       21 0.79250289E-02 0.46815393E+03</pdfrwt>
<totfact> 0.33008828E+04</totfact>
</mgrwt>
</event>
<event>
 7    0  0.4779893E-002  0.4514763E+03  0.7546771E-02  0.1027283E+00
         21   -1    0    0  502  501  0.00000000000E+00  0.00000000000E+00  0.14457924524E+03  0.14457924524E+03  0.00000000000E+00 0.  1.
         21   -1    0    0  501  502 -0.00000000000E+00 -0.00000000000E+00 -0.35245521011E+03  0.35245521011E+03  0.00000000000E+00 0.  1.
      99926    2    1    2    0    0  0.00000000000E+00  0.00000000000E+00 -0.20787596488E+03  0.49703445535E+03  0.45147628181E+03 0.  0.
      99925    2    3    3    0    0 -0.65805812950E+02 -0.55381942032E+02 -0.20650065479E+03  0.34522218938E+03  0.26294158114E+03 0.  0.
         25    1    4    4    0    0 -0.64497945098E+02 -0.60935909110E+01 -0.88772595647E+02  0.16650885445E+03  0.12509000000E+03 0.  0.
         25    1    3    3    0    0  0.65805812950E+02  0.55381942032E+02 -0.13753100911E+01  0.15181226597E+03  0.12509000000E+03 0.  0.
         25    1    4    4    0    0 -0.13078678521E+01 -0.49288351121E+02 -0.11772805914E+03  0.17871333493E+03  0.12509000000E+03 0.  0.
<mgrwt>
<rscale>  2 0.45147628E+03</rscale>
<asrwt>0</asrwt>
<pdfrwt beam="1">  1       21 0.21261654E-01 0.45147628E+03</pdfrwt>
<pdfrwt beam="2">  1       21 0.51831647E-01 0.45147628E+03</pdfrwt>
<totfact> 0.67343607E+04</totfact>
</mgrwt>
</event>
<event>
 7    0  0.4779893E-002  0.4563581E+03  0.7546771E-02  0.1025843E+00
         21   -1    0    0  502  501  0.00000000000E+00  0.00000000000E+00  0.14416476099E+03  0.14416476099E+03  0.00000000000E+00 0. -1.
         21   -1    0    0  501  502 -0.00000000000E+00 -0.00000000000E+00 -0.36115394101E+03  0.36115394101E+03  0.00000000000E+00 0. -1.
      99926    2    1    2    0    0  0.12212453271E-14  0.00000000000E+00 -0.21698918002E+03  0.50531870200E+03  0.45635806812E+03 0.  0.
      99925    2    3    3    0    0  0.38604584718E+00 -0.11351913257E+03 -0.15266127992E+03  0.32456381459E+03  0.26296285072E+03 0.  0.
         25    1    4    4    0    0 -0.27679004636E+02 -0.47759979907E+02 -0.42458601076E+02  0.14316907447E+03  0.12509000000E+03 0.  0.
         25    1    3    3    0    0 -0.38604584718E+00  0.11351913257E+03 -0.64327900097E+02  0.18075488741E+03  0.12509000000E+03 0.  0.
         25    1    4    4    0    0  0.28065050484E+02 -0.65759152665E+02 -0.11020267885E+03  0.18139474012E+03  0.12509000000E+03 0.  0.
<mgrwt>
<rscale>  2 0.45635807E+03</rscale>
<asrwt>0</asrwt>
<pdfrwt beam="1">  1       21 0.21200700E-01 0.45635807E+03</pdfrwt>
<pdfrwt beam="2">  1       21 0.53110873E-01 0.45635807E+03</pdfrwt>
<totfact> 0.64203720E+04</totfact>
</mgrwt>
</event>
<event>
 7    0  0.4779893E-002  0.4511709E+03  0.7546771E-02  0.1027373E+00
         21   -1    0    0  502  501  0.00000000000E+00  0.00000000000E+00  0.18745381191E+04  0.18745381191E+04  0.00000000000E+00 0.  1.
         21   -1    0    0  501  502 -0.00000000000E+00 -0.00000000000E+00 -0.27147381862E+02  0.27147381862E+02  0.00000000000E+00 0.  1.
      99926    2    1    2    0    0  0.71054273576E-14  0.00000000000E+00  0.18473907373E+04  0.19016855010E+04  0.45117093051E+03 0.  0.
      99925    2    3    3    0    0  0.53293250434E+02  0.75666468388E+02  0.91826058055E+03  0.95961547111E+03  0.26285694516E+03 0.  0.
         25    1    4    4    0    0  0.11777062921E+02  0.56738250531E+02  0.57839866432E+03  0.59460108583E+03  0.12509000000E+03 0.  0.
         25    1    3    3    0    0 -0.53293250434E+02 -0.75666468388E+02  0.92913015673E+03  0.94207002990E+03  0.12509000000E+03 0.  0.
         25    1    4    4    0    0  0.41516187513E+02  0.18928217858E+02  0.33986191623E+03  0.36501438528E+03  0.12509000000E+03 0.  0.
<mgrwt>
<rscale>  2 0.45117093E+03</rscale>
<asrwt>0</asrwt>
<pdfrwt beam="1">  1       21 0.27566728E+00 0.45117093E+03</pdfrwt>
<pdfrwt beam="2">  1       21 0.39922633E-02 0.45117093E+03</pdfrwt>
<totfact> 0.15847744E+04</totfact>
</mgrwt>
</event>
<event>
 7    0  0.4779893E-002  0.4738785E+03  0.7546771E-02  0.1020831E+00
         21   -1    0    0  502  501  0.00000000000E+00  0.00000000000E+00  0.92401487215E+02  0.92401487215E+02  0.00000000000E+00 0.  1.
         21   -1    0    0  501  502 -0.00000000000E+00 -0.00000000000E+00 -0.60756812512E+03  0.60756812512E+03  0.00000000000E+00 0.  1.
      99926    2    1    2    0    0  0.00000000000E+00  0.14210854715E-13 -0.51516663790E+03  0.69996961233E+03  0.47387845845E+03 0.  0.
      99925    2    3    3    0    0 -0.74910467158E+02 -0.10495214392E+03 -0.34522494608E+03  0.45267582486E+03  0.26288516202E+03 0.  0.
         25    1    4    4    0    0 -0.33381728953E+02 -0.40810753334E+02 -0.10649296261E+03  0.17253439252E+03  0.12509000000E+03 0.  0.
         25    1    3    3    0    0  0.74910467158E+02  0.10495214392E+03 -0.16994169182E+03  0.24729378747E+03  0.12509000000E+03 0.  0.
         25    1    4    4    0    0 -0.41528738205E+02 -0.64141390590E+02 -0.23873198346E+03  0.28014143234E+03  0.12509000000E+03 0.  0.
<mgrwt>
<rscale>  2 0.47387846E+03</rscale>
<asrwt>0</asrwt>
<pdfrwt beam="1">  1       21 0.13588454E-01 0.47387846E+03</pdfrwt>
<pdfrwt beam="2">  1       21 0.89348253E-01 0.47387846E+03</pdfrwt>
<totfact> 0.45719744E+04</totfact>
</mgrwt>
</event>
<event>
 7    0  0.4779893E-002  0.3996173E+03  0.7546771E-02  0.1043912E+00
         21   -1    0    0  502  501  0.00000000000E+00  0.00000000000E+00  0.71071995535E+02  0.71071995535E+02  0.00000000000E+00 0.  1.
         21   -1    0    0  501  502 -0.00000000000E+00 -0.00000000000E+00 -0.56173321047E+03  0.56173321047E+03  0.00000000000E+00 0.  1.
      99926    2    1    2    0    0  0.00000000000E+00  0.00000000000E+00 -0.49066121494E+03  0.63280520601E+03  0.39961731808E+03 0.  0.
      99925    2    3    3    0    0  0.33554384724E+02  0.11640745456E+02 -0.28414472135E+03  0.38876018165E+03  0.26293507274E+03 0.  0.
         25    1    4    4    0    0  0.32869934815E+02 -0.16221393338E+02 -0.99442041653E+02  0.16395058391E+03  0.12509000000E+03 0.  0.
         25    1    4    4    0    0  0.68444990894E+00  0.27862138794E+02 -0.18470267970E+03  0.22480959774E+03  0.12509000000E+03 0.  0.
         25    1    3    3    0    0 -0.33554384724E+02 -0.11640745456E+02 -0.20651649359E+03  0.24404502435E+03  0.12509000000E+03 0.  0.
<mgrwt>
<rscale>  2 0.39961732E+03</rscale>
<asrwt>0</asrwt>
<pdfrwt beam="1">  1       21 0.10451764E-01 0.39961732E+03</pdfrwt>
<pdfrwt beam="2">  1       21 0.82607829E-01 0.39961732E+03</pdfrwt>
<totfact> 0.90055096E+04</totfact>
</mgrwt>
</event>
<event>
 7    0  0.4779893E-002  0.4534503E+03  0.7546771E-02  0.1026698E+00
         21   -1    0    0  502  501  0.00000000000E+00  0.00000000000E+00  0.94737199975E+02  0.94737199975E+02  0.00000000000E+00 0.  1.
         21   -1    0    0  501  502 -0.00000000000E+00 -0.00000000000E+00 -0.54259871428E+03  0.54259871428E+03  0.00000000000E+00 0.  1.
      99926    2    1    2    0    0  0.00000000000E+00  0.00000000000E+00 -0.44786151431E+03  0.63733591426E+03  0.45345025262E+03 0.  0.
      99925    2    3    3    0    0 -0.82329552692E+02  0.73570833551E+02 -0.25707115128E+03  0.38388119735E+03  0.26284667406E+03 0.  0.
         25    1    3    3    0    0  0.82329552692E+02 -0.73570833551E+02 -0.19079036303E+03  0.25345471691E+03  0.12509000000E+03 0.  0.
         25    1    4    4    0    0 -0.39560913698E+01  0.16668483485E+02 -0.10143586121E+03  0.16195749763E+03  0.12509000000E+03 0.  0.
         25    1    4    4    0    0 -0.78373461322E+02  0.56902350065E+02 -0.15563529006E+03  0.22192369972E+03  0.12509000000E+03 0.  0.
<mgrwt>
<rscale>  2 0.45345025E+03</rscale>
<asrwt>0</asrwt>
<pdfrwt beam="1">  1       21 0.13931941E-01 0.45345025E+03</pdfrwt>
<pdfrwt beam="2">  1       21 0.79793930E-01 0.45345025E+03</pdfrwt>
<totfact> 0.57132604E+04</totfact>
</mgrwt>
</event>
<event>
 7    0  0.4779893E-002  0.4536068E+03  0.7546771E-02  0.1026652E+00
         21   -1    0    0  502  501  0.00000000000E+00  0.00000000000E+00  0.64724422780E+03  0.64724422780E+03  0.00000000000E+00 0. -1.
         21   -1    0    0  501  502 -0.00000000000E+00 -0.00000000000E+00 -0.79475076520E+02  0.79475076520E+02  0.00000000000E+00 0. -1.
      99926    2    1    2    0    0  0.71054273576E-14  0.00000000000E+00  0.56776915128E+03  0.72671930432E+03  0.45360681005E+03 0.  0.
      99925    2    3    3    0    0 -0.31962394785E+02 -0.38682262175E+02  0.51784105478E+03  0.58298957529E+03  0.26305812056E+03 0.  0.
         25    1    4    4    0    0  0.17538900658E+01  0.17535044064E+02  0.23194616354E+03  0.26411566554E+03  0.12509000000E+03 0.  0.
         25    1    4    4    0    0 -0.33716284850E+02 -0.56217306239E+02  0.28589489124E+03  0.31887390975E+03  0.12509000000E+03 0.  0.
         25    1    3    3    0    0  0.31962394785E+02  0.38682262175E+02  0.49928096503E+02  0.14372972903E+03  0.12509000000E+03 0.  0.
<mgrwt>
<rscale>  2 0.45360681E+03</rscale>
<asrwt>0</asrwt>
<pdfrwt beam="1">  1       21 0.95182972E-01 0.45360681E+03</pdfrwt>
<pdfrwt beam="2">  1       21 0.11687512E-01 0.45360681E+03</pdfrwt>
<totfact> 0.52044078E+04</totfact>
</mgrwt>
</event>
<event>
 7    0  0.4779893E-002  0.4562923E+03  0.7546771E-02  0.1025862E+00
         21   -1    0    0  502  501  0.00000000000E+00  0.00000000000E+00  0.75898420914E+03  0.75898420914E+03  0.00000000000E+00 0. -1.
         21   -1    0    0  501  502 -0.00000000000E+00 -0.00000000000E+00 -0.68579374301E+02  0.68579374301E+02  0.00000000000E+00 0. -1.
      99926    2    1    2    0    0  0.71054273576E-14 -0.17763568394E-14  0.69040483484E+03  0.82756358344E+03  0.45629228425E+03 0.  0.
      99925    2    3    3    0    0  0.38743153235E+02 -0.85599857176E+01  0.62837113936E+03  0.68240851893E+03  0.26316685325E+03 0.  0.
         25    1    4    4    0    0  0.30534753864E+02  0.29559223943E+02  0.36655904237E+03  0.38963978051E+03  0.12509000000E+03 0.  0.
         25    1    3    3    0    0 -0.38743153235E+02  0.85599857176E+01  0.62033695478E+02  0.14515506451E+03  0.12509000000E+03 0.  0.
         25    1    4    4    0    0  0.82083993706E+01 -0.38119209660E+02  0.26181209699E+03  0.29276873842E+03  0.12509000000E+03 0.  0.
<mgrwt>
<rscale>  2 0.45629228E+03</rscale>
<asrwt>0</asrwt>
<pdfrwt beam="1">  1       21 0.11161532E+00 0.45629228E+03</pdfrwt>
<pdfrwt beam="2">  1       21 0.10085203E-01 0.45629228E+03</pdfrwt>
<totfact> 0.45992202E+04</totfact>
</mgrwt>
</event>
<event>
 7    0  0.4779893E-002  0.4573082E+03  0.7546771E-02  0.1025565E+00
         21   -1    0    0  502  501  0.00000000000E+00  0.00000000000E+00  0.84797068553E+02  0.84797068553E+02  0.00000000000E+00 0. -1.
         21   -1    0    0  501  502 -0.00000000000E+00 -0.00000000000E+00 -0.61656246260E+03  0.61656246260E+03  0.00000000000E+00 0. -1.
      99926    2    1    2    0    0  0.00000000000E+00  0.00000000000E+00 -0.53176539404E+03  0.70135953115E+03  0.45730816484E+03 0.  0.
      99925    2    3    3    0    0  0.66996242201E+02  0.68397048431E+02 -0.23528798803E+03  0.36563194354E+03  0.26298218214E+03 0.  0.
         25    1    4    4    0    0  0.75920602236E+01  0.33149260269E+02 -0.70656729890E+02  0.14763602004E+03  0.12509000000E+03 0.  0.
         25    1    4    4    0    0  0.59404181978E+02  0.35247788162E+02 -0.16463125814E+03  0.21799592350E+03  0.12509000000E+03 0.  0.
         25    1    3    3    0    0 -0.66996242201E+02 -0.68397048431E+02 -0.29647740601E+03  0.33572758760E+03  0.12509000000E+03 0.  0.
<mgrwt>
<rscale>  2 0.45730816E+03</rscale>
<asrwt>0</asrwt>
<pdfrwt beam="1">  1       21 0.12470158E-01 0.45730816E+03</pdfrwt>
<pdfrwt beam="2">  1       21 0.90670943E-01 0.45730816E+03</pdfrwt>
<totfact> 0.51880395E+04</totfact>
</mgrwt>
</event>
<event>
 7    0  0.4779893E-002  0.5272603E+03  0.7546771E-02  0.1006899E+00
         21   -1    0    0  502  501  0.00000000000E+00  0.00000000000E+00  0.20647191676E+03  0.20647191676E+03  0.00000000000E+00 0. -1.
         21   -1    0    0  501  502 -0.00000000000E+00 -0.00000000000E+00 -0.33661160396E+03  0.33661160396E+03  0.00000000000E+00 0. -1.
      99926    2    1    2    0    0  0.00000000000E+00 -0.88817841970E-15 -0.13013968720E+03  0.54308352072E+03  0.52726025100E+03 0.  0.
      99925    2    3    3    0    0 -0.48617332354E+02  0.36116331612E+01  0.92541855035E+02  0.28306185575E+03  0.26302724260E+03 0.  0.
         25    1    4    4    0    0 -0.45428901182E+02  0.36070890543E+02  0.40530531152E+02  0.14371891407E+03  0.12509000000E+03 0.  0.
         25    1    4    4    0    0 -0.31884311728E+01 -0.32459257382E+02  0.52011323883E+02  0.13934294168E+03  0.12509000000E+03 0.  0.
         25    1    3    3    0    0  0.48617332354E+02 -0.36116331612E+01 -0.22268154223E+03  0.26002166496E+03  0.12509000000E+03 0.  0.
<mgrwt>
<rscale>  2 0.52726025E+03</rscale>
<asrwt>0</asrwt>
<pdfrwt beam="1">  1       21 0.30363518E-01 0.52726025E+03</pdfrwt>
<pdfrwt beam="2">  1       21 0.49501706E-01 0.52726025E+03</pdfrwt>
<totfact> 0.36478141E+04</totfact>
</mgrwt>
</event>
<event>
 7    0  0.4779893E-002  0.4636927E+03  0.7546771E-02  0.1023716E+00
         21   -1    0    0  502  501  0.00000000000E+00  0.00000000000E+00  0.29201266320E+03  0.29201266320E+03  0.00000000000E+00 0. -1.
         21   -1    0    0  501  502 -0.00000000000E+00 -0.00000000000E+00 -0.18407670014E+03  0.18407670014E+03  0.00000000000E+00 0. -1.
      99926    2    1    2    0    0 -0.14210854715E-13  0.00000000000E+00  0.10793596306E+03  0.47608936335E+03  0.46369268893E+03 0.  0.
      99925    2    3    3    0    0 -0.11228640005E+03  0.96748620368E+01  0.11329308368E+03  0.30763151867E+03  0.26286876931E+03 0.  0.
         25    1    3    3    0    0  0.11228640005E+03 -0.96748620368E+01 -0.53571206201E+01  0.16845784467E+03  0.12509000000E+03 0.  0.
         25    1    4    4    0    0 -0.31945557238E+02  0.67318946583E+01  0.16793667900E+02  0.13036630092E+03  0.12509000000E+03 0.  0.
         25    1    4    4    0    0 -0.80340842810E+02  0.29429673785E+01  0.96499415777E+02  0.17726521775E+03  0.12509000000E+03 0.  0.
<mgrwt>
<rscale>  2 0.46369269E+03</rscale>
<asrwt>0</asrwt>
<pdfrwt beam="1">  1       21 0.42943039E-01 0.46369269E+03</pdfrwt>
<pdfrwt beam="2">  1       21 0.27070103E-01 0.46369269E+03</pdfrwt>
<totfact> 0.62558986E+04</totfact>
</mgrwt>
</event>
<event>
 7    0  0.4779893E-002  0.4551922E+03  0.7546771E-02  0.1026185E+00
         21   -1    0    0  502  501  0.00000000000E+00  0.00000000000E+00  0.14397521908E+03  0.14397521908E+03  0.00000000000E+00 0. -1.
         21   -1    0    0  501  502 -0.00000000000E+00 -0.00000000000E+00 -0.35978400250E+03  0.35978400250E+03  0.00000000000E+00 0. -1.
      99926    2    1    2    0    0  0.00000000000E+00  0.44408920985E-15 -0.21580878342E+03  0.50375922158E+03  0.45519218175E+03 0.  0.
      99925    2    3    3    0    0  0.10030377724E+03 -0.35067424327E+01 -0.19200364457E+03  0.34162551841E+03  0.26413907383E+03 0.  0.
         25    1    4    4    0    0  0.59541840389E+02  0.21651344617E+02 -0.56747101760E+02  0.15126715816E+03  0.12509000000E+03 0.  0.
         25    1    3    3    0    0 -0.10030377724E+03  0.35067424327E+01 -0.23805138844E+02  0.16213370318E+03  0.12509000000E+03 0.  0.
         25    1    4    4    0    0  0.40761936850E+02 -0.25158087050E+02 -0.13525654281E+03  0.19035836024E+03  0.12509000000E+03 0.  0.
<mgrwt>
<rscale>  2 0.45519218E+03</rscale>
<asrwt>0</asrwt>
<pdfrwt beam="1">  1       21 0.21172826E-01 0.45519218E+03</pdfrwt>
<pdfrwt beam="2">  1       21 0.52909412E-01 0.45519218E+03</pdfrwt>
<totfact> 0.64908294E+04</totfact>
</mgrwt>
</event>
<event>
 7    0  0.4779893E-002  0.4556599E+03  0.7546771E-02  0.1026048E+00
         21   -1    0    0  502  501  0.00000000000E+00  0.00000000000E+00  0.79419548838E+02  0.79419548838E+02  0.00000000000E+00 0.  1.
         21   -1    0    0  501  502 -0.00000000000E+00 -0.00000000000E+00 -0.65357324772E+03  0.65357324772E+03  0.00000000000E+00 0.  1.
      99926    2    1    2    0    0  0.00000000000E+00  0.00000000000E+00 -0.57415369888E+03  0.73299279656E+03  0.45565992787E+03 0.  0.
      99925    2    3    3    0    0  0.57332499844E+02  0.36777425167E+02 -0.21436687689E+03  0.34603845827E+03  0.26296361375E+03 0.  0.
         25    1    3    3    0    0 -0.57332499844E+02 -0.36777425167E+02 -0.35978682199E+03  0.38695433828E+03  0.12509000000E+03 0.  0.
         25    1    4    4    0    0  0.95741970350E+01 -0.16057759800E+02 -0.83986537311E+02  0.15182477877E+03  0.12509000000E+03 0.  0.
         25    1    4    4    0    0  0.47758302809E+02  0.52835184967E+02 -0.13038033958E+03  0.19421367951E+03  0.12509000000E+03 0.  0.
<mgrwt>
<rscale>  2 0.45565993E+03</rscale>
<asrwt>0</asrwt>
<pdfrwt beam="1">  1       21 0.11679346E-01 0.45565993E+03</pdfrwt>
<pdfrwt beam="2">  1       21 0.96113710E-01 0.45565993E+03</pdfrwt>
<totfact> 0.50883480E+04</totfact>
</mgrwt>
</event>
<event>
 7    0  0.4779893E-002  0.4622726E+03  0.7546771E-02  0.1024124E+00
         21   -1    0    0  502  501  0.00000000000E+00  0.00000000000E+00  0.71128120173E+02  0.71128120173E+02  0.00000000000E+00 0.  1.
         21   -1    0    0  501  502 -0.00000000000E+00 -0.00000000000E+00 -0.75109509238E+03  0.75109509238E+03  0.00000000000E+00 0.  1.
      99926    2    1    2    0    0  0.00000000000E+00  0.00000000000E+00 -0.67996697221E+03  0.82222321256E+03  0.46227256891E+03 0.  0.
      99925    2    3    3    0    0  0.46430611923E+02  0.45712262547E+02 -0.60406577768E+03  0.66205482584E+03  0.26301276774E+03 0.  0.
         25    1    4    4    0    0  0.39931834452E+02  0.60966989943E+02 -0.32509120651E+03  0.35586981596E+03  0.12509000000E+03 0.  0.
         25    1    3    3    0    0 -0.46430611923E+02 -0.45712262547E+02 -0.75901194536E+02  0.16016838671E+03  0.12509000000E+03 0.  0.
         25    1    4    4    0    0  0.64987774710E+01 -0.15254727397E+02 -0.27897457117E+03  0.30618500988E+03  0.12509000000E+03 0.  0.
<mgrwt>
<rscale>  2 0.46227257E+03</rscale>
<asrwt>0</asrwt>
<pdfrwt beam="1">  1       21 0.10460018E-01 0.46227257E+03</pdfrwt>
<pdfrwt beam="2">  1       21 0.11045516E+00 0.46227257E+03</pdfrwt>
<totfact> 0.44135614E+04</totfact>
</mgrwt>
</event>
<event>
 7    0  0.4779893E-002  0.4570313E+03  0.7546771E-02  0.1025646E+00
         21   -1    0    0  502  501  0.00000000000E+00  0.00000000000E+00  0.62449479317E+03  0.62449479317E+03  0.00000000000E+00 0.  1.
         21   -1    0    0  501  502 -0.00000000000E+00 -0.00000000000E+00 -0.83618619588E+02  0.83618619588E+02  0.00000000000E+00 0.  1.
      99926    2    1    2    0    0  0.00000000000E+00  0.00000000000E+00  0.54087617358E+03  0.70811341276E+03  0.45703125733E+03 0.  0.
      99925    2    3    3    0    0 -0.11129190083E+03  0.29502044293E+02  0.34326189876E+03  0.44743129308E+03  0.26288737717E+03 0.  0.
         25    1    4    4    0    0 -0.35636679390E+02  0.45837101551E+02  0.19244777969E+03  0.23675867207E+03  0.12509000000E+03 0.  0.
         25    1    3    3    0    0  0.11129190083E+03 -0.29502044293E+02  0.19761427482E+03  0.26068211968E+03  0.12509000000E+03 0.  0.
         25    1    4    4    0    0 -0.75655221445E+02 -0.16335057258E+02  0.15081411908E+03  0.21067262101E+03  0.12509000000E+03 0.  0.
<mgrwt>
<rscale>  2 0.45703126E+03</rscale>
<asrwt>0</asrwt>
<pdfrwt beam="1">  1       21 0.91837467E-01 0.45703126E+03</pdfrwt>
<pdfrwt beam="2">  1       21 0.12296856E-01 0.45703126E+03</pdfrwt>
<totfact> 0.51634478E+04</totfact>
</mgrwt>
</event>
<event>
 7    0  0.4779893E-002  0.4559480E+03  0.7546771E-02  0.1025963E+00
         21   -1    0    0  502  501  0.00000000000E+00  0.00000000000E+00  0.70161681311E+03  0.70161681311E+03  0.00000000000E+00 0. -1.
         21   -1    0    0  501  502 -0.00000000000E+00 -0.00000000000E+00 -0.74074815693E+02  0.74074815693E+02  0.00000000000E+00 0. -1.
      99926    2    1    2    0    0  0.00000000000E+00  0.00000000000E+00  0.62754199742E+03  0.77569162881E+03  0.45594796246E+03 0.  0.
      99925    2    3    3    0    0 -0.32758085202E+02 -0.69653095873E+02  0.53763979908E+03  0.60348663678E+03  0.26308728839E+03 0.  0.
         25    1    3    3    0    0  0.32758085202E+02  0.69653095873E+02  0.89902198344E+02  0.17220499202E+03  0.12509000000E+03 0.  0.
         25    1    4    4    0    0 -0.47814750990E+02 -0.59171438489E+02  0.25926350814E+03  0.29774583842E+03  0.12509000000E+03 0.  0.
         25    1    4    4    0    0  0.15056665789E+02 -0.10481657384E+02  0.27837629094E+03  0.30574079836E+03  0.12509000000E+03 0.  0.
<mgrwt>
<rscale>  2 0.45594796E+03</rscale>
<asrwt>0</asrwt>
<pdfrwt beam="1">  1       21 0.10317894E+00 0.45594796E+03</pdfrwt>
<pdfrwt beam="2">  1       21 0.10893356E-01 0.45594796E+03</pdfrwt>
<totfact> 0.48600423E+04</totfact>
</mgrwt>
</event>
<event>
 7    0  0.4779893E-002  0.4552332E+03  0.7546771E-02  0.1026173E+00
         21   -1    0    0  502  501  0.00000000000E+00  0.00000000000E+00  0.25986551256E+03  0.25986551256E+03  0.00000000000E+00 0.  1.
         21   -1    0    0  501  502 -0.00000000000E+00 -0.00000000000E+00 -0.19936972461E+03  0.19936972461E+03  0.00000000000E+00 0.  1.
      99926    2    1    2    0    0 -0.71054273576E-14 -0.14210854715E-13  0.60495787956E+02  0.45923523717E+03  0.45523319595E+03 0.  0.
      99925    2    3    3    0    0  0.22206520378E+02  0.11109516159E+03  0.37376833828E+02  0.28889070800E+03  0.26310748562E+03 0.  0.
         25    1    4    4    0    0  0.37550523196E+02  0.38321913465E+02 -0.82934352608E+01  0.13636311823E+03  0.12509000000E+03 0.  0.
         25    1    3    3    0    0 -0.22206520378E+02 -0.11109516159E+03  0.23118954128E+02  0.17034452916E+03  0.12509000000E+03 0.  0.
         25    1    4    4    0    0 -0.15344002818E+02  0.72773248124E+02  0.45670269089E+02  0.15252758978E+03  0.12509000000E+03 0.  0.
<mgrwt>
<rscale>  2 0.45523320E+03</rscale>
<asrwt>0</asrwt>
<pdfrwt beam="1">  1       21 0.38215516E-01 0.45523320E+03</pdfrwt>
<pdfrwt beam="2">  1       21 0.29319077E-01 0.45523320E+03</pdfrwt>
<totfact> 0.68109581E+04</totfact>
</mgrwt>
</event>
<event>
 7    0  0.4779893E-002  0.4491079E+03  0.7546771E-02  0.1027988E+00
         21   -1    0    0  502  501  0.00000000000E+00  0.00000000000E+00  0.14211484138E+03  0.14211484138E+03  0.00000000000E+00 0. -1.
         21   -1    0    0  501  502 -0.00000000000E+00 -0.00000000000E+00 -0.35481495906E+03  0.35481495906E+03  0.00000000000E+00 0. -1.
      99926    2    1    2    0    0 -0.17763568394E-14  0.00000000000E+00 -0.21270011767E+03  0.49692980044E+03  0.44910787847E+03 0.  0.
      99925    2    3    3    0    0  0.11647181701E+02  0.96187892234E+02 -0.18545246744E+03  0.33637541714E+03  0.26337812385E+03 0.  0.
         25    1    4    4    0    0  0.39226568169E+02  0.30824527200E+02 -0.68933554923E+02  0.15128852640E+03  0.12509000000E+03 0.  0.
         25    1    3    3    0    0 -0.11647181701E+02 -0.96187892234E+02 -0.27247650231E+02  0.16055438330E+03  0.12509000000E+03 0.  0.
         25    1    4    4    0    0 -0.27579386469E+02  0.65363365034E+02 -0.11651891252E+03  0.18508689073E+03  0.12509000000E+03 0.  0.
<mgrwt>
<rscale>  2 0.44910788E+03</rscale>
<asrwt>0</asrwt>
<pdfrwt beam="1">  1       21 0.20899242E-01 0.44910788E+03</pdfrwt>
<pdfrwt beam="2">  1       21 0.52178670E-01 0.44910788E+03</pdfrwt>
<totfact> 0.68641633E+04</totfact>
</mgrwt>
</event>
<event>
 7    0  0.4779893E-002  0.4551421E+03  0.7546771E-02  0.1026200E+00
         21   -1    0    0  502  501  0.00000000000E+00  0.00000000000E+00  0.28325676603E+03  0.28325676603E+03  0.00000000000E+00 0.  1.
         21   -1    0    0  501  502 -0.00000000000E+00 -0.00000000000E+00 -0.18283266173E+03  0.18283266173E+03  0.00000000000E+00 0.  1.
      99926    2    1    2    0    0  0.71054273576E-14 -0.17763568394E-14  0.10042410430E+03  0.46608942776E+03  0.45514212500E+03 0.  0.
      99925    2    3    3    0    0  0.43808009355E+02  0.47164531975E+01  0.16996424971E+03  0.31634054951E+03  0.26313895659E+03 0.  0.
         25    1    4    4    0    0 -0.61895499208E+01 -0.12409905915E+02  0.11278283629E+03  0.16899642764E+03  0.12509000000E+03 0.  0.
         25    1    3    3    0    0 -0.43808009355E+02 -0.47164531975E+01 -0.69540145408E+02  0.14974887825E+03  0.12509000000E+03 0.  0.
         25    1    4    4    0    0  0.49997559276E+02  0.17126359113E+02  0.57181413414E+02  0.14734412187E+03  0.12509000000E+03 0.  0.
<mgrwt>
<rscale>  2 0.45514213E+03</rscale>
<asrwt>0</asrwt>
<pdfrwt beam="1">  1       21 0.41655407E-01 0.45514213E+03</pdfrwt>
<pdfrwt beam="2">  1       21 0.26887156E-01 0.45514213E+03</pdfrwt>
<totfact> 0.67651827E+04</totfact>
</mgrwt>
</event>
<event>
 7    0  0.4779893E-002  0.4581333E+03  0.7546771E-02  0.1025324E+00
         21   -1    0    0  502  501  0.00000000000E+00  0.00000000000E+00  0.15348783293E+02  0.15348783293E+02  0.00000000000E+00 0.  1.
         21   -1    0    0  501  502 -0.00000000000E+00 -0.00000000000E+00 -0.34186119075E+04  0.34186119075E+04  0.00000000000E+00 0.  1.
      99926    2    1    2    0    0  0.00000000000E+00  0.00000000000E+00 -0.34032631242E+04  0.34339606908E+04  0.45813331392E+03 0.  0.
      99925    2    3    3    0    0  0.58747675167E+02 -0.98022701847E+02 -0.22888633010E+04  0.23067543151E+04  0.26298387783E+03 0.  0.
         25    1    4    4    0    0  0.57619184397E+02 -0.21755355123E+02 -0.10302053712E+04  0.10395979419E+04  0.12509000000E+03 0.  0.
         25    1    4    4    0    0  0.11284907705E+01 -0.76267346725E+02 -0.12586579298E+04  0.12671563731E+04  0.12509000000E+03 0.  0.
         25    1    3    3    0    0 -0.58747675167E+02  0.98022701847E+02 -0.11143998232E+04  0.11272063757E+04  0.12509000000E+03 0.  0.
<mgrwt>
<rscale>  2 0.45813331E+03</rscale>
<asrwt>0</asrwt>
<pdfrwt beam="1">  1       21 0.22571699E-02 0.45813331E+03</pdfrwt>
<pdfrwt beam="2">  1       21 0.50273796E+00 0.45813331E+03</pdfrwt>
<totfact> 0.14314270E+03</totfact>
</mgrwt>
</event>
<event>
 7    0  0.4779893E-002  0.4465778E+03  0.7546771E-02  0.1028748E+00
         21   -1    0    0  502  501  0.00000000000E+00  0.00000000000E+00  0.22832666563E+02  0.22832666563E+02  0.00000000000E+00 0. -1.
         21   -1    0    0  501  502 -0.00000000000E+00 -0.00000000000E+00 -0.21836225407E+04  0.21836225407E+04  0.00000000000E+00 0. -1.
      99926    2    1    2    0    0  0.00000000000E+00 -0.71054273576E-14 -0.21607898741E+04  0.22064552072E+04  0.44657776644E+03 0.  0.
      99925    2    3    3    0    0  0.37997768489E+02 -0.56450041817E+02 -0.17664307565E+04  0.17871736081E+04  0.26283350310E+03 0.  0.
         25    1    3    3    0    0 -0.37997768489E+02  0.56450041817E+02 -0.39435911763E+03  0.41928159916E+03  0.12509000000E+03 0.  0.
         25    1    4    4    0    0  0.14366543565E+02 -0.67323268109E+02 -0.85721456857E+03  0.86902424861E+03  0.12509000000E+03 0.  0.
         25    1    4    4    0    0  0.23631224924E+02  0.10873226291E+02 -0.90921618791E+03  0.91814935947E+03  0.12509000000E+03 0.  0.
<mgrwt>
<rscale>  2 0.44657777E+03</rscale>
<asrwt>0</asrwt>
<pdfrwt beam="1">  1       21 0.33577460E-02 0.44657777E+03</pdfrwt>
<pdfrwt beam="2">  1       21 0.32112087E+00 0.44657777E+03</pdfrwt>
<totfact> 0.11346995E+04</totfact>
</mgrwt>
</event>
<event>
 7    0  0.4779893E-002  0.4537224E+03  0.7546771E-02  0.1026618E+00
         21   -1    0    0  502  501  0.00000000000E+00  0.00000000000E+00  0.13594243423E+04  0.13594243423E+04  0.00000000000E+00 0. -1.
         21   -1    0    0  501  502 -0.00000000000E+00 -0.00000000000E+00 -0.37858679254E+02  0.37858679254E+02  0.00000000000E+00 0. -1.
      99926    2    1    2    0    0  0.00000000000E+00  0.00000000000E+00  0.13215656630E+04  0.13972830216E+04  0.45372242680E+03 0.  0.
      99925    2    3    3    0    0 -0.55782160171E+02 -0.51257089579E+02  0.57884751785E+03  0.64030436272E+03  0.26303286748E+03 0.  0.
         25    1    4    4    0    0 -0.23487157956E+02 -0.10301395939E+02  0.19365141118E+03  0.23196151081E+03  0.12509000000E+03 0.  0.
         25    1    4    4    0    0 -0.32295002215E+02 -0.40955693639E+02  0.38519610667E+03  0.40834285191E+03  0.12509000000E+03 0.  0.
         25    1    3    3    0    0  0.55782160171E+02  0.51257089579E+02  0.74271814520E+03  0.75697865883E+03  0.12509000000E+03 0.  0.
<mgrwt>
<rscale>  2 0.45372243E+03</rscale>
<asrwt>0</asrwt>
<pdfrwt beam="1">  1       21 0.19991531E+00 0.45372243E+03</pdfrwt>
<pdfrwt beam="2">  1       21 0.55674537E-02 0.45372243E+03</pdfrwt>
<totfact> 0.26668288E+04</totfact>
</mgrwt>
</event>
<event>
 7    0  0.4779893E-002  0.4048141E+03  0.7546771E-02  0.1042125E+00
         21   -1    0    0  502  501  0.00000000000E+00  0.00000000000E+00  0.36535954489E+03  0.36535954489E+03  0.00000000000E+00 0. -1.
         21   -1    0    0  501  502 -0.00000000000E+00 -0.00000000000E+00 -0.11213229841E+03  0.11213229841E+03  0.00000000000E+00 0. -1.
      99926    2    1    2    0    0  0.35527136788E-14  0.00000000000E+00  0.25322724648E+03  0.47749184329E+03  0.40481405861E+03 0.  0.
      99925    2    3    3    0    0  0.25940736718E+02 -0.14992093254E+02  0.11515593795E+03  0.28878869276E+03  0.26313558167E+03 0.  0.
         25    1    4    4    0    0 -0.66757405953E+01 -0.38920693008E+02  0.76056091460E+02  0.15162922873E+03  0.12509000000E+03 0.  0.
         25    1    4    4    0    0  0.32616477313E+02  0.23928599754E+02  0.39099846494E+02  0.13715946403E+03  0.12509000000E+03 0.  0.
         25    1    3    3    0    0 -0.25940736718E+02  0.14992093254E+02  0.13807130853E+03  0.18870315053E+03  0.12509000000E+03 0.  0.
<mgrwt>
<rscale>  2 0.40481406E+03</rscale>
<asrwt>0</asrwt>
<pdfrwt beam="1">  1       21 0.53729345E-01 0.40481406E+03</pdfrwt>
<pdfrwt beam="2">  1       21 0.16490044E-01 0.40481406E+03</pdfrwt>
<totfact> 0.10174983E+05</totfact>
</mgrwt>
</event>
<event>
 7    0  0.4779893E-002  0.4501864E+03  0.7546771E-02  0.1027666E+00
         21   -1    0    0  502  501  0.00000000000E+00  0.00000000000E+00  0.10786510099E+04  0.10786510099E+04  0.00000000000E+00 0. -1.
         21   -1    0    0  501  502 -0.00000000000E+00 -0.00000000000E+00 -0.46972506970E+02  0.46972506970E+02  0.00000000000E+00 0. -1.
      99926    2    1    2    0    0  0.00000000000E+00  0.17763568394E-14  0.10316785029E+04  0.11256235169E+04  0.45018637065E+03 0.  0.
      99925    2    3    3    0    0 -0.10243775770E+03  0.15545340265E+02  0.73343644857E+03  0.78601936069E+03  0.26298718501E+03 0.  0.
         25    1    4    4    0    0 -0.45436899707E+02 -0.30086982290E+02  0.39458275406E+03  0.41750783976E+03  0.12509000000E+03 0.  0.
         25    1    3    3    0    0  0.10243775770E+03 -0.15545340265E+02  0.29824205436E+03  0.33960415618E+03  0.12509000000E+03 0.  0.
         25    1    4    4    0    0 -0.57000857997E+02  0.45632322556E+02  0.33885369452E+03  0.36851152093E+03  0.12509000000E+03 0.  0.
<mgrwt>
<rscale>  2 0.45018637E+03</rscale>
<asrwt>0</asrwt>
<pdfrwt beam="1">  1       21 0.15862513E+00 0.45018637E+03</pdfrwt>
<pdfrwt beam="2">  1       21 0.69077223E-02 0.45018637E+03</pdfrwt>
<totfact> 0.35936459E+04</totfact>
</mgrwt>
</event>
<event>
 7    0  0.4779893E-002  0.4395204E+03  0.7546771E-02  0.1030894E+00
         21   -1    0    0  502  501  0.00000000000E+00  0.00000000000E+00  0.19867731128E+03  0.19867731128E+03  0.00000000000E+00 0.  1.
         21   -1    0    0  501  502 -0.00000000000E+00 -0.00000000000E+00 -0.24308034436E+03  0.24308034436E+03  0.00000000000E+00 0.  1.
      99926    2    1    2    0    0  0.00000000000E+00  0.00000000000E+00 -0.44403033079E+02  0.44175765564E+03  0.43952041702E+03 0.  0.
      99925    2    3    3    0    0  0.57248347519E+02 -0.72617718339E+02 -0.60953711352E+02  0.28532192008E+03  0.26294968500E+03 0.  0.
         25    1    4    4    0    0  0.46531299086E+02 -0.54596486149E+02  0.91421268154E+00  0.14420222599E+03  0.12509000000E+03 0.  0.
         25    1    3    3    0    0 -0.57248347519E+02  0.72617718339E+02  0.16550678273E+02  0.15643573557E+03  0.12509000000E+03 0.  0.
         25    1    4    4    0    0  0.10717048433E+02 -0.18021232190E+02 -0.61867924034E+02  0.14111969409E+03  0.12509000000E+03 0.  0.
<mgrwt>
<rscale>  2 0.43952042E+03</rscale>
<asrwt>0</asrwt>
<pdfrwt beam="1">  1       21 0.29217252E-01 0.43952042E+03</pdfrwt>
<pdfrwt beam="2">  1       21 0.35747109E-01 0.43952042E+03</pdfrwt>
<totfact> 0.78821124E+04</totfact>
</mgrwt>
</event>
<event>
 7    0  0.4779893E-002  0.4541293E+03  0.7546771E-02  0.1026498E+00
         21   -1    0    0  502  501  0.00000000000E+00  0.00000000000E+00  0.21688733091E+03  0.21688733091E+03  0.00000000000E+00 0. -1.
         21   -1    0    0  501  502 -0.00000000000E+00 -0.00000000000E+00 -0.23771957527E+03  0.23771957527E+03  0.00000000000E+00 0. -1.
      99926    2    1    2    0    0  0.00000000000E+00  0.00000000000E+00 -0.20832244356E+02  0.45460690618E+03  0.45412933922E+03 0.  0.
      99925    2    3    3    0    0 -0.25587962276E+02 -0.10500805588E+03  0.17427366205E+02  0.28492266556E+03  0.26305090125E+03 0.  0.
         25    1    4    4    0    0 -0.32825422046E+02 -0.24145545916E+02  0.31053370104E+02  0.13517520340E+03  0.12509000000E+03 0.  0.
         25    1    3    3    0    0  0.25587962276E+02  0.10500805588E+03 -0.38259610562E+02  0.16968424061E+03  0.12509000000E+03 0.  0.
         25    1    4    4    0    0  0.72374597708E+01 -0.80862509961E+02 -0.13626003899E+02  0.14974746216E+03  0.12509000000E+03 0.  0.
<mgrwt>
<rscale>  2 0.45412934E+03</rscale>
<asrwt>0</asrwt>
<pdfrwt beam="1">  1       21 0.31895196E-01 0.45412934E+03</pdfrwt>
<pdfrwt beam="2">  1       21 0.34958761E-01 0.45412934E+03</pdfrwt>
<totfact> 0.69053083E+04</totfact>
</mgrwt>
</event>
<event>
 7    0  0.4779893E-002  0.4073240E+03  0.7546771E-02  0.1041273E+00
         21   -1    0    0  502  501  0.00000000000E+00  0.00000000000E+00  0.25116642085E+03  0.25116642085E+03  0.00000000000E+00 0. -1.
         21   -1    0    0  501  502 -0.00000000000E+00 -0.00000000000E+00 -0.16514231347E+03  0.16514231347E+03  0.00000000000E+00 0. -1.
      99926    2    1    2    0    0  0.00000000000E+00 -0.71054273576E-14  0.86024107374E+02  0.41630873432E+03  0.40732396838E+03 0.  0.
      99925    2    3    3    0    0 -0.81581330253E+01  0.56803572596E+02  0.66652553961E+02  0.27732684278E+03  0.26301029216E+03 0.  0.
         25    1    4    4    0    0 -0.26941953288E+01  0.55257200060E+02  0.66548562516E+02  0.15210797520E+03  0.12509000000E+03 0.  0.
         25    1    3    3    0    0  0.81581330253E+01 -0.56803572596E+02  0.19371553413E+02  0.13898189154E+03  0.12509000000E+03 0.  0.
         25    1    4    4    0    0 -0.54639376965E+01  0.15463725361E+01  0.10399144540E+00  0.12521886758E+03  0.12509000000E+03 0.  0.
<mgrwt>
<rscale>  2 0.40732397E+03</rscale>
<asrwt>0</asrwt>
<pdfrwt beam="1">  1       21 0.36936238E-01 0.40732397E+03</pdfrwt>
<pdfrwt beam="2">  1       21 0.24285634E-01 0.40732397E+03</pdfrwt>
<totfact> 0.10659192E+05</totfact>
</mgrwt>
</event>
<event>
 7    0  0.4779893E-002  0.4608989E+03  0.7546771E-02  0.1024521E+00
         21   -1    0    0  502  501  0.00000000000E+00  0.00000000000E+00  0.22425408723E+03  0.22425408723E+03  0.00000000000E+00 0. -1.
         21   -1    0    0  501  502 -0.00000000000E+00 -0.00000000000E+00 -0.23681594860E+03  0.23681594860E+03  0.00000000000E+00 0. -1.
      99926    2    1    2    0    0  0.00000000000E+00  0.00000000000E+00 -0.12561861367E+02  0.46107003582E+03  0.46089887999E+03 0.  0.
      99925    2    3    3    0    0  0.72745058373E+02  0.93247042216E+02  0.79298217241E+00  0.28840644862E+03  0.26304143473E+03 0.  0.
         25    1    3    3    0    0 -0.72745058373E+02 -0.93247042216E+02 -0.13354843540E+02  0.17266358720E+03  0.12509000000E+03 0.  0.
         25    1    4    4    0    0  0.12048525387E+02  0.39305994135E+02 -0.32448614103E+02  0.13561175759E+03  0.12509000000E+03 0.  0.
         25    1    4    4    0    0  0.60696532985E+02  0.53941048081E+02  0.33241596275E+02  0.15279469103E+03  0.12509000000E+03 0.  0.
<mgrwt>
<rscale>  2 0.46089888E+03</rscale>
<asrwt>0</asrwt>
<pdfrwt beam="1">  1       21 0.32978542E-01 0.46089888E+03</pdfrwt>
<pdfrwt beam="2">  1       21 0.34825875E-01 0.46089888E+03</pdfrwt>
<totfact> 0.64990217E+04</totfact>
</mgrwt>
</event>
<event>
 7    0  0.4779893E-002  0.4544848E+03  0.7546771E-02  0.1026393E+00
         21   -1    0    0  502  501  0.00000000000E+00  0.00000000000E+00  0.15148407037E+03  0.15148407037E+03  0.00000000000E+00 0.  1.
         21   -1    0    0  501  502 -0.00000000000E+00 -0.00000000000E+00 -0.34088805973E+03  0.34088805973E+03  0.00000000000E+00 0.  1.
      99926    2    1    2    0    0  0.88817841970E-15  0.00000000000E+00 -0.18940398935E+03  0.49237213010E+03  0.45448481087E+03 0.  0.
      99925    2    3    3    0    0  0.75005476605E+01  0.52550494088E+02 -0.11592177646E+02  0.26858124305E+03  0.26302793177E+03 0.  0.
         25    1    4    4    0    0 -0.10133305985E+02  0.57072050714E+02 -0.29279295052E+02  0.14094214445E+03  0.12509000000E+03 0.  0.
         25    1    4    4    0    0  0.17633853645E+02 -0.45215566258E+01  0.17687117406E+02  0.12763909860E+03  0.12509000000E+03 0.  0.
         25    1    3    3    0    0 -0.75005476605E+01 -0.52550494088E+02 -0.17781181171E+03  0.22379088705E+03  0.12509000000E+03 0.  0.
<mgrwt>
<rscale>  2 0.45448481E+03</rscale>
<asrwt>0</asrwt>
<pdfrwt beam="1">  1       21 0.22277069E-01 0.45448481E+03</pdfrwt>
<pdfrwt beam="2">  1       21 0.50130597E-01 0.45448481E+03</pdfrwt>
<totfact> 0.66079776E+04</totfact>
</mgrwt>
</event>
<event>
 7    0  0.4779893E-002  0.4541917E+03  0.7546771E-02  0.1026479E+00
         21   -1    0    0  502  501  0.00000000000E+00  0.00000000000E+00  0.27733789626E+02  0.27733789626E+02  0.00000000000E+00 0.  1.
         21   -1    0    0  501  502 -0.00000000000E+00 -0.00000000000E+00 -0.18595555251E+04  0.18595555251E+04  0.00000000000E+00 0.  1.
      99926    2    1    2    0    0  0.00000000000E+00  0.00000000000E+00 -0.18318217355E+04  0.18872893148E+04  0.45419168522E+03 0.  0.
      99925    2    3    3    0    0 -0.46360424265E+02  0.51051483294E+02 -0.78750127410E+03  0.83324554096E+03  0.26340905817E+03 0.  0.
         25    1    4    4    0    0 -0.46045926315E+01  0.39821036268E+02 -0.49610380455E+03  0.51319919154E+03  0.12509000000E+03 0.  0.
         25    1    3    3    0    0  0.46360424265E+02 -0.51051483294E+02 -0.10443204614E+04  0.10540437738E+04  0.12509000000E+03 0.  0.
         25    1    4    4    0    0 -0.41755831634E+02  0.11230447026E+02 -0.29139746955E+03  0.32004634942E+03  0.12509000000E+03 0.  0.
<mgrwt>
<rscale>  2 0.45419169E+03</rscale>
<asrwt>0</asrwt>
<pdfrwt beam="1">  1       21 0.40784961E-02 0.45419169E+03</pdfrwt>
<pdfrwt beam="2">  1       21 0.27346421E+00 0.45419169E+03</pdfrwt>
<totfact> 0.15736960E+04</totfact>
</mgrwt>
</event>
<event>
 7    0  0.4779893E-002  0.4537015E+03  0.7546771E-02  0.1026624E+00
         21   -1    0    0  502  501  0.00000000000E+00  0.00000000000E+00  0.16399637792E+03  0.16399637792E+03  0.00000000000E+00 0.  1.
         21   -1    0    0  501  502 -0.00000000000E+00 -0.00000000000E+00 -0.31379513632E+03  0.31379513632E+03  0.00000000000E+00 0.  1.
      99926    2    1    2    0    0  0.00000000000E+00 -0.17763568394E-14 -0.14979875840E+03  0.47779151425E+03  0.45370151319E+03 0.  0.
      99925    2    3    3    0    0  0.10832441367E+03  0.78096571015E+00 -0.63465477744E+02  0.29114818607E+03  0.26268728726E+03 0.  0.
         25    1    4    4    0    0  0.33986182180E+02 -0.18615068349E+02 -0.60662443910E+02  0.14432263007E+03  0.12509000000E+03 0.  0.
         25    1    3    3    0    0 -0.10832441367E+03 -0.78096571015E+00 -0.86333280655E+02  0.18664332817E+03  0.12509000000E+03 0.  0.
         25    1    4    4    0    0  0.74338231486E+02  0.19396034059E+02 -0.28030338346E+01  0.14682555601E+03  0.12509000000E+03 0.  0.
<mgrwt>
<rscale>  2 0.45370151E+03</rscale>
<asrwt>0</asrwt>
<pdfrwt beam="1">  1       21 0.24117115E-01 0.45370151E+03</pdfrwt>
<pdfrwt beam="2">  1       21 0.46146343E-01 0.45370151E+03</pdfrwt>
<totfact> 0.67554760E+04</totfact>
</mgrwt>
</event>
<event>
 7    0  0.4779893E-002  0.4546505E+03  0.7546771E-02  0.1026344E+00
         21   -1    0    0  502  501  0.00000000000E+00  0.00000000000E+00  0.52602223720E+03  0.52602223720E+03  0.00000000000E+00 0.  1.
         21   -1    0    0  501  502 -0.00000000000E+00 -0.00000000000E+00 -0.98240666944E+02  0.98240666944E+02  0.00000000000E+00 0.  1.
      99926    2    1    2    0    0  0.00000000000E+00  0.35527136788E-14  0.42778157026E+03  0.62426290415E+03  0.45465052693E+03 0.  0.
      99925    2    3    3    0    0 -0.90453065776E+02 -0.65316926246E+01  0.36170597233E+03  0.45622150193E+03  0.26283536346E+03 0.  0.
         25    1    3    3    0    0  0.90453065776E+02  0.65316926246E+01  0.66075597928E+02  0.16804140222E+03  0.12509000000E+03 0.  0.
         25    1    4    4    0    0 -0.20666726912E+02 -0.35904517432E+02  0.17573689337E+03  0.21965247953E+03  0.12509000000E+03 0.  0.
         25    1    4    4    0    0 -0.69786338864E+02  0.29372824807E+02  0.18596907896E+03  0.23656902240E+03  0.12509000000E+03 0.  0.
<mgrwt>
<rscale>  2 0.45465053E+03</rscale>
<asrwt>0</asrwt>
<pdfrwt beam="1">  1       21 0.77356210E-01 0.45465053E+03</pdfrwt>
<pdfrwt beam="2">  1       21 0.14447157E-01 0.45465053E+03</pdfrwt>
<totfact> 0.57367262E+04</totfact>
</mgrwt>
</event>
<event>
 7    0  0.4779893E-002  0.4580023E+03  0.7546771E-02  0.1025362E+00
         21   -1    0    0  502  501  0.00000000000E+00  0.00000000000E+00  0.14227226672E+03  0.14227226672E+03  0.00000000000E+00 0. -1.
         21   -1    0    0  501  502 -0.00000000000E+00 -0.00000000000E+00 -0.36859971545E+03  0.36859971545E+03  0.00000000000E+00 0. -1.
      99926    2    1    2    0    0  0.00000000000E+00 -0.35527136788E-14 -0.22632744873E+03  0.51087198217E+03  0.45800225776E+03 0.  0.
      99925    2    3    3    0    0  0.99561616161E+02  0.29959485012E+02 -0.84635671614E+02  0.29515421759E+03  0.26295005057E+03 0.  0.
         25    1    4    4    0    0  0.88510669135E+02 -0.15680704643E+01 -0.43412304475E+02  0.15927565312E+03  0.12509000000E+03 0.  0.
         25    1    4    4    0    0  0.11050947026E+02  0.31527555476E+02 -0.41223367139E+02  0.13587856447E+03  0.12509000000E+03 0.  0.
         25    1    3    3    0    0 -0.99561616161E+02 -0.29959485012E+02 -0.14169177711E+03  0.21571776458E+03  0.12509000000E+03 0.  0.
<mgrwt>
<rscale>  2 0.45800226E+03</rscale>
<asrwt>0</asrwt>
<pdfrwt beam="1">  1       21 0.20922392E-01 0.45800226E+03</pdfrwt>
<pdfrwt beam="2">  1       21 0.54205840E-01 0.45800226E+03</pdfrwt>
<totfact> 0.62998891E+04</totfact>
</mgrwt>
</event>
<event>
 7    0  0.4779893E-002  0.4040128E+03  0.7546771E-02  0.1042399E+00
         21   -1    0    0  502  501  0.00000000000E+00  0.00000000000E+00  0.34814596810E+03  0.34814596810E+03  0.00000000000E+00 0.  1.
         21   -1    0    0  501  502 -0.00000000000E+00 -0.00000000000E+00 -0.11721112737E+03  0.11721112737E+03  0.00000000000E+00 0.  1.
      99926    2    1    2    0    0  0.00000000000E+00 -0.35527136788E-14  0.23093484073E+03  0.46535709547E+03  0.40401277905E+03 0.  0.
      99925    2    3    3    0    0  0.34135927206E+02  0.16213976766E+02  0.19889250046E+03  0.33081203150E+03  0.26162992733E+03 0.  0.
         25    1    3    3    0    0 -0.34135927206E+02 -0.16213976766E+02  0.32042340264E+02  0.13454506397E+03  0.12509000000E+03 0.  0.
         25    1    4    4    0    0  0.44437806837E+02  0.28348365652E+02  0.80339388499E+02  0.15773482163E+03  0.12509000000E+03 0.  0.
         25    1    4    4    0    0 -0.10301879631E+02 -0.12134388886E+02  0.11855311196E+03  0.17307720986E+03  0.12509000000E+03 0.  0.
<mgrwt>
<rscale>  2 0.40401278E+03</rscale>
<asrwt>0</asrwt>
<pdfrwt beam="1">  1       21 0.51197936E-01 0.40401278E+03</pdfrwt>
<pdfrwt beam="2">  1       21 0.17236931E-01 0.40401278E+03</pdfrwt>
<totfact> 0.10386089E+05</totfact>
</mgrwt>
</event>
<event>
 7    0  0.4779893E-002  0.4504461E+03  0.7546771E-02  0.1027589E+00
         21   -1    0    0  502  501  0.00000000000E+00  0.00000000000E+00  0.38775912759E+02  0.38775912759E+02  0.00000000000E+00 0. -1.
         21   -1    0    0  501  502 -0.00000000000E+00 -0.00000000000E+00 -0.13081680900E+04  0.13081680900E+04  0.00000000000E+00 0. -1.
      99926    2    1    2    0    0  0.00000000000E+00  0.36637359813E-14 -0.12693921772E+04  0.13469440027E+04  0.45044605329E+03 0.  0.
      99925    2    3    3    0    0  0.43599661167E+02  0.97502162031E+00 -0.11003446695E+04  0.11321733132E+04  0.26297554692E+03 0.  0.
         25    1    3    3    0    0 -0.43599661167E+02 -0.97502162031E+00 -0.16904750769E+03  0.21477068952E+03  0.12509000000E+03 0.  0.
         25    1    4    4    0    0  0.38975684236E+02 -0.36197495881E+02 -0.57313947590E+03  0.58903796958E+03  0.12509000000E+03 0.  0.
         25    1    4    4    0    0  0.46239769305E+01  0.37172517501E+02 -0.52720519361E+03  0.54313534362E+03  0.12509000000E+03 0.  0.
<mgrwt>
<rscale>  2 0.45044605E+03</rscale>
<asrwt>0</asrwt>
<pdfrwt beam="1">  1       21 0.57023412E-02 0.45044605E+03</pdfrwt>
<pdfrwt beam="2">  1       21 0.19237762E+00 0.45044605E+03</pdfrwt>
<totfact> 0.28786395E+04</totfact>
</mgrwt>
</event>
<event>
 7    0  0.4779893E-002  0.4530365E+03  0.7546771E-02  0.1026820E+00
         21   -1    0    0  502  501  0.00000000000E+00  0.00000000000E+00  0.30493786838E+03  0.30493786838E+03  0.00000000000E+00 0.  1.
         21   -1    0    0  501  502 -0.00000000000E+00 -0.00000000000E+00 -0.16826551401E+03  0.16826551401E+03  0.00000000000E+00 0.  1.
      99926    2    1    2    0    0  0.00000000000E+00  0.00000000000E+00  0.13667235437E+03  0.47320338239E+03  0.45303654229E+03 0.  0.
      99925    2    3    3    0    0 -0.77941319060E+02 -0.78292221924E+02  0.99102626776E+02  0.30213756534E+03  0.26317533419E+03 0.  0.
         25    1    4    4    0    0 -0.37991148152E+02 -0.65105708318E+02  0.17794634345E+02  0.14712660434E+03  0.12509000000E+03 0.  0.
         25    1    4    4    0    0 -0.39950170908E+02 -0.13186513606E+02  0.81307992430E+02  0.15501096100E+03  0.12509000000E+03 0.  0.
         25    1    3    3    0    0  0.77941319060E+02  0.78292221924E+02  0.37569727599E+02  0.17106581705E+03  0.12509000000E+03 0.  0.
<mgrwt>
<rscale>  2 0.45303654E+03</rscale>
<asrwt>0</asrwt>
<pdfrwt beam="1">  1       21 0.44843804E-01 0.45303654E+03</pdfrwt>
<pdfrwt beam="2">  1       21 0.24744929E-01 0.45303654E+03</pdfrwt>
<totfact> 0.68255601E+04</totfact>
</mgrwt>
</event>
<event>
 7    0  0.4779893E-002  0.4550755E+03  0.7546771E-02  0.1026219E+00
         21   -1    0    0  502  501  0.00000000000E+00  0.00000000000E+00  0.61696049626E+03  0.61696049626E+03  0.00000000000E+00 0. -1.
         21   -1    0    0  501  502 -0.00000000000E+00 -0.00000000000E+00 -0.83916932911E+02  0.83916932911E+02  0.00000000000E+00 0. -1.
      99926    2    1    2    0    0  0.00000000000E+00  0.35527136788E-14  0.53304356335E+03  0.70087742917E+03  0.45507552153E+03 0.  0.
      99925    2    3    3    0    0  0.38225836574E+02 -0.19870788960E+02  0.17382730917E+03  0.31807214159E+03  0.26286477704E+03 0.  0.
         25    1    4    4    0    0  0.22735825479E+02 -0.36246648130E+02  0.12490400597E+03  0.18187703557E+03  0.12509000000E+03 0.  0.
         25    1    3    3    0    0 -0.38225836574E+02  0.19870788960E+02  0.35921625418E+03  0.38280528758E+03  0.12509000000E+03 0.  0.
         25    1    4    4    0    0  0.15490011096E+02  0.16375859170E+02  0.48923303201E+02  0.13619510602E+03  0.12509000000E+03 0.  0.
<mgrwt>
<rscale>  2 0.45507552E+03</rscale>
<asrwt>0</asrwt>
<pdfrwt beam="1">  1       21 0.90729482E-01 0.45507552E+03</pdfrwt>
<pdfrwt beam="2">  1       21 0.12340726E-01 0.45507552E+03</pdfrwt>
<totfact> 0.52823941E+04</totfact>
</mgrwt>
</event>
<event>
 7    0  0.4779893E-002  0.4265503E+03  0.7546771E-02  0.1034955E+00
         21   -1    0    0  502  501  0.00000000000E+00  0.00000000000E+00  0.12987724221E+03  0.12987724221E+03  0.00000000000E+00 0.  1.
         21   -1    0    0  501  502 -0.00000000000E+00 -0.00000000000E+00 -0.35022525946E+03  0.35022525946E+03  0.00000000000E+00 0.  1.
      99926    2    1    2    0    0 -0.35527136788E-14  0.00000000000E+00 -0.22034801726E+03  0.48010250167E+03  0.42655030583E+03 0.  0.
      99925    2    3    3    0    0  0.15480458374E+02 -0.16545862330E+02 -0.51810763411E+02  0.26899654679E+03  0.26298550688E+03 0.  0.
         25    1    3    3    0    0 -0.15480458374E+02  0.16545862330E+02 -0.16853725385E+03  0.21110595488E+03  0.12509000000E+03 0.  0.
         25    1    4    4    0    0 -0.19603802844E+02 -0.37037201311E+02 -0.17553539767E+02  0.13308530432E+03  0.12509000000E+03 0.  0.
         25    1    4    4    0    0  0.35084261218E+02  0.20491338981E+02 -0.34257223645E+02  0.13591124247E+03  0.12509000000E+03 0.  0.
<mgrwt>
<rscale>  2 0.42655031E+03</rscale>
<asrwt>0</asrwt>
<pdfrwt beam="1">  1       21 0.19099595E-01 0.42655031E+03</pdfrwt>
<pdfrwt beam="2">  1       21 0.51503714E-01 0.42655031E+03</pdfrwt>
<totfact> 0.84150624E+04</totfact>
</mgrwt>
</event>
<event>
 7    0  0.4779893E-002  0.4503654E+03  0.7546771E-02  0.1027613E+00
         21   -1    0    0  502  501  0.00000000000E+00  0.00000000000E+00  0.27062180087E+03  0.27062180087E+03  0.00000000000E+00 0. -1.
         21   -1    0    0  501  502 -0.00000000000E+00 -0.00000000000E+00 -0.18737313587E+03  0.18737313587E+03  0.00000000000E+00 0. -1.
      99926    2    1    2    0    0  0.00000000000E+00  0.00000000000E+00  0.83248664991E+02  0.45799493674E+03  0.45036543146E+03 0.  0.
      99925    2    3    3    0    0  0.63668064020E+02 -0.80801673013E+02  0.88901951995E+02  0.29593938919E+03  0.26285743716E+03 0.  0.
         25    1    3    3    0    0 -0.63668064020E+02  0.80801673013E+02 -0.56532870044E+01  0.16205554755E+03  0.12509000000E+03 0.  0.
         25    1    4    4    0    0  0.41058691461E+02 -0.71381269433E+02  0.20140883370E+02  0.15111010904E+03  0.12509000000E+03 0.  0.
         25    1    4    4    0    0  0.22609372559E+02 -0.94204035806E+01  0.68761068625E+02  0.14482928015E+03  0.12509000000E+03 0.  0.
<mgrwt>
<rscale>  2 0.45036543E+03</rscale>
<asrwt>0</asrwt>
<pdfrwt beam="1">  1       21 0.39797324E-01 0.45036543E+03</pdfrwt>
<pdfrwt beam="2">  1       21 0.27554873E-01 0.45036543E+03</pdfrwt>
<totfact> 0.70909983E+04</totfact>
</mgrwt>
</event>
<event>
 7    0  0.4779893E-002  0.4531326E+03  0.7546771E-02  0.1026792E+00
         21   -1    0    0  502  501  0.00000000000E+00  0.00000000000E+00  0.11258939903E+04  0.11258939903E+04  0.00000000000E+00 0. -1.
         21   -1    0    0  501  502 -0.00000000000E+00 -0.00000000000E+00 -0.45592466064E+02  0.45592466064E+02  0.00000000000E+00 0. -1.
      99926    2    1    2    0    0  0.00000000000E+00  0.00000000000E+00  0.10803015243E+04  0.11714864564E+04  0.45313257903E+03 0.  0.
      99925    2    3    3    0    0  0.87455169759E+02 -0.41670221953E+01  0.50268561208E+03  0.57403066648E+03  0.26296883974E+03 0.  0.
         25    1    4    4    0    0  0.20924067922E+02 -0.50573772546E+01  0.30900212344E+03  0.33405570504E+03  0.12509000000E+03 0.  0.
         25    1    3    3    0    0 -0.87455169759E+02  0.41670221953E+01  0.57761591218E+03  0.59745578991E+03  0.12509000000E+03 0.  0.
         25    1    4    4    0    0  0.66531101837E+02  0.89035505924E+00  0.19368348865E+03  0.23997496144E+03  0.12509000000E+03 0.  0.
<mgrwt>
<rscale>  2 0.45313258E+03</rscale>
<asrwt>0</asrwt>
<pdfrwt beam="1">  1       21 0.16557263E+00 0.45313258E+03</pdfrwt>
<pdfrwt beam="2">  1       21 0.67047751E-02 0.45313258E+03</pdfrwt>
<totfact> 0.33558688E+04</totfact>
</mgrwt>
</event>
<event>
 7    0  0.4779893E-002  0.4303195E+03  0.7546771E-02  0.1033759E+00
         21   -1    0    0  502  501  0.00000000000E+00  0.00000000000E+00  0.38965029224E+03  0.38965029224E+03  0.00000000000E+00 0. -1.
         21   -1    0    0  501  502 -0.00000000000E+00 -0.00000000000E+00 -0.11880836878E+03  0.11880836878E+03  0.00000000000E+00 0. -1.
      99926    2    1    2    0    0  0.71054273576E-14  0.00000000000E+00  0.27084192346E+03  0.50845866102E+03  0.43031948883E+03 0.  0.
      99925    2    3    3    0    0 -0.42535655874E+02 -0.29516082072E+02  0.90658297357E+02  0.28308313365E+03  0.26312858559E+03 0.  0.
         25    1    4    4    0    0 -0.40277618620E+02  0.21057539268E+02  0.40489552021E+02  0.13911368892E+03  0.12509000000E+03 0.  0.
         25    1    4    4    0    0 -0.22580372549E+01 -0.50573621340E+02  0.50168745335E+02  0.14396944473E+03  0.12509000000E+03 0.  0.
         25    1    3    3    0    0  0.42535655874E+02  0.29516082072E+02  0.18018362611E+03  0.22537552737E+03  0.12509000000E+03 0.  0.
<mgrwt>
<rscale>  2 0.43031949E+03</rscale>
<asrwt>0</asrwt>
<pdfrwt beam="1">  1       21 0.57301513E-01 0.43031949E+03</pdfrwt>
<pdfrwt beam="2">  1       21 0.17471819E-01 0.43031949E+03</pdfrwt>
<totfact> 0.79054372E+04</totfact>
</mgrwt>
</event>
<event>
 6    0  0.4779893E-002  0.4665950E+03  0.7546771E-02  0.1022886E+00
         21   -1    0    0  502  501  0.00000000000E+00  0.00000000000E+00  0.13038009908E+03  0.13038009908E+03  0.00000000000E+00 0.  1.
         21   -1    0    0  501  502 -0.00000000000E+00 -0.00000000000E+00 -0.41745424243E+03  0.41745424243E+03  0.00000000000E+00 0.  1.
      99926    2    1    2    0    0  0.00000000000E+00  0.00000000000E+00 -0.28707414334E+03  0.54783434151E+03  0.46659500850E+03 0.  0.
         25    1    3    3    0    0 -0.23244749260E+02 -0.16511600029E+02 -0.39518656585E+02  0.13424672667E+03  0.12509000000E+03 0.  0.
         25    1    3    3    0    0  0.18958730812E+02  0.10454710996E+03 -0.18754198866E+03  0.24921684792E+03  0.12509000000E+03 0.  0.
         25    1    3    3    0    0  0.42860184487E+01 -0.88035509931E+02 -0.60013498099E+02  0.16437076692E+03  0.12509000000E+03 0.  0.
<mgrwt>
<rscale>  2 0.46659501E+03</rscale>
<asrwt>0</asrwt>
<pdfrwt beam="1">  1       21 0.19173544E-01 0.46659501E+03</pdfrwt>
<pdfrwt beam="2">  1       21 0.61390330E-01 0.46659501E+03</pdfrwt>
<totfact> 0.56630378E+04</totfact>
</mgrwt>
</event>
<event>
 7    0  0.4779893E-002  0.4603145E+03  0.7546771E-02  0.1024690E+00
         21   -1    0    0  502  501  0.00000000000E+00  0.00000000000E+00  0.48247724190E+02  0.48247724190E+02  0.00000000000E+00 0. -1.
         21   -1    0    0  501  502 -0.00000000000E+00 -0.00000000000E+00 -0.10979243528E+04  0.10979243528E+04  0.00000000000E+00 0. -1.
      99926    2    1    2    0    0  0.00000000000E+00  0.00000000000E+00 -0.10496766286E+04  0.11461720770E+04  0.46031446363E+03 0.  0.
      99925    2    3    3    0    0 -0.51237801062E+02 -0.10593341342E+03 -0.63287411488E+03  0.69537384730E+03  0.26299798838E+03 0.  0.
         25    1    4    4    0    0  0.95484756940E+00 -0.31760352616E+02 -0.35024488582E+03  0.37326749105E+03  0.12509000000E+03 0.  0.
         25    1    4    4    0    0 -0.52192648631E+02 -0.74173060807E+02 -0.28262922905E+03  0.32210635625E+03  0.12509000000E+03 0.  0.
         25    1    3    3    0    0  0.51237801062E+02  0.10593341342E+03 -0.41680251377E+03  0.45079822972E+03  0.12509000000E+03 0.  0.
<mgrwt>
<rscale>  2 0.46031446E+03</rscale>
<asrwt>0</asrwt>
<pdfrwt beam="1">  1       21 0.70952536E-02 0.46031446E+03</pdfrwt>
<pdfrwt beam="2">  1       21 0.16145946E+00 0.46031446E+03</pdfrwt>
<totfact> 0.32541491E+04</totfact>
</mgrwt>
</event>
<event>
 7    0  0.4779893E-002  0.4599063E+03  0.7546771E-02  0.1024808E+00
         21   -1    0    0  502  501  0.00000000000E+00  0.00000000000E+00  0.50413674869E+03  0.50413674869E+03  0.00000000000E+00 0. -1.
         21   -1    0    0  501  502 -0.00000000000E+00 -0.00000000000E+00 -0.10488908235E+03  0.10488908235E+03  0.00000000000E+00 0. -1.
      99926    2    1    2    0    0 -0.14210854715E-13  0.00000000000E+00  0.39924766634E+03  0.60902583103E+03  0.45990625544E+03 0.  0.
      99925    2    3    3    0    0  0.76082220713E+02 -0.78007656005E+02  0.19058450717E+03  0.34245216242E+03  0.26282566554E+03 0.  0.
         25    1    4    4    0    0  0.14613942987E+02 -0.24572535379E+02  0.12591665621E+03  0.17977733237E+03  0.12509000000E+03 0.  0.
         25    1    3    3    0    0 -0.76082220713E+02  0.78007656005E+02  0.20866315917E+03  0.26657366861E+03  0.12509000000E+03 0.  0.
         25    1    4    4    0    0  0.61468277726E+02 -0.53435120627E+02  0.64667850964E+02  0.16267483005E+03  0.12509000000E+03 0.  0.
<mgrwt>
<rscale>  2 0.45990626E+03</rscale>
<asrwt>0</asrwt>
<pdfrwt beam="1">  1       21 0.74137756E-01 0.45990626E+03</pdfrwt>
<pdfrwt beam="2">  1       21 0.15424865E-01 0.45990626E+03</pdfrwt>
<totfact> 0.55926875E+04</totfact>
</mgrwt>
</event>
<event>
 7    0  0.4779893E-002  0.4576437E+03  0.7546771E-02  0.1025467E+00
         21   -1    0    0  502  501  0.00000000000E+00  0.00000000000E+00  0.13160322424E+03  0.13160322424E+03  0.00000000000E+00 0. -1.
         21   -1    0    0  501  502 -0.00000000000E+00 -0.00000000000E+00 -0.39785837891E+03  0.39785837891E+03  0.00000000000E+00 0. -1.
      99926    2    1    2    0    0  0.00000000000E+00  0.00000000000E+00 -0.26625515467E+03  0.52946160314E+03  0.45764372804E+03 0.  0.
      99925    2    3    3    0    0  0.43662395661E+02 -0.45964484027E+02 -0.55161764058E+02  0.27603100861E+03  0.26292804893E+03 0.  0.
         25    1    4    4    0    0  0.56323389579E+02 -0.40995886337E+02 -0.43612710153E+02  0.14967485927E+03  0.12509000000E+03 0.  0.
         25    1    4    4    0    0 -0.12660993917E+02 -0.49685976903E+01 -0.11549053906E+02  0.12635614934E+03  0.12509000000E+03 0.  0.
         25    1    3    3    0    0 -0.43662395661E+02  0.45964484027E+02 -0.21109339061E+03  0.25343059453E+03  0.12509000000E+03 0.  0.
<mgrwt>
<rscale>  2 0.45764373E+03</rscale>
<asrwt>0</asrwt>
<pdfrwt beam="1">  1       21 0.19353415E-01 0.45764373E+03</pdfrwt>
<pdfrwt beam="2">  1       21 0.58508586E-01 0.45764373E+03</pdfrwt>
<totfact> 0.61934907E+04</totfact>
</mgrwt>
</event>
<event>
 7    0  0.4779893E-002  0.4490749E+03  0.7546771E-02  0.1027998E+00
         21   -1    0    0  502  501  0.00000000000E+00  0.00000000000E+00  0.13408299999E+03  0.13408299999E+03  0.00000000000E+00 0. -1.
         21   -1    0    0  501  502 -0.00000000000E+00 -0.00000000000E+00 -0.37601388579E+03  0.37601388579E+03  0.00000000000E+00 0. -1.
      99926    2    1    2    0    0 -0.14210854715E-13 -0.35527136788E-14 -0.24193088580E+03  0.51009688578E+03  0.44907491511E+03 0.  0.
      99925    2    3    3    0    0  0.10622053488E+03  0.16117845087E+02 -0.15932309107E+03  0.32566765054E+03  0.26293152017E+03 0.  0.
         25    1    3    3    0    0 -0.10622053488E+03 -0.16117845087E+02 -0.82607794729E+02  0.18442923524E+03  0.12509000000E+03 0.  0.
         25    1    4    4    0    0  0.45175435851E+02 -0.14957022002E+02 -0.11461728907E+03  0.17620772845E+03  0.12509000000E+03 0.  0.
         25    1    4    4    0    0  0.61045099030E+02  0.31074867089E+02 -0.44705802004E+02  0.14945992210E+03  0.12509000000E+03 0.  0.
<mgrwt>
<rscale>  2 0.44907492E+03</rscale>
<asrwt>0</asrwt>
<pdfrwt beam="1">  1       21 0.19718088E-01 0.44907492E+03</pdfrwt>
<pdfrwt beam="2">  1       21 0.55296159E-01 0.44907492E+03</pdfrwt>
<totfact> 0.67694295E+04</totfact>
</mgrwt>
</event>
<event>
 7    0  0.4779893E-002  0.4548362E+03  0.7546771E-02  0.1026290E+00
         21   -1    0    0  502  501  0.00000000000E+00  0.00000000000E+00  0.61769258261E+02  0.61769258261E+02  0.00000000000E+00 0. -1.
         21   -1    0    0  501  502 -0.00000000000E+00 -0.00000000000E+00 -0.83729351617E+03  0.83729351617E+03  0.00000000000E+00 0. -1.
      99926    2    1    2    0    0  0.00000000000E+00  0.00000000000E+00 -0.77552425791E+03  0.89906277443E+03  0.45483623180E+03 0.  0.
      99925    2    3    3    0    0  0.10186202247E+03  0.23284114817E+02 -0.57326520786E+03  0.63930470805E+03  0.26298191870E+03 0.  0.
         25    1    3    3    0    0 -0.10186202247E+03 -0.23284114817E+02 -0.20225905004E+03  0.25975806638E+03  0.12509000000E+03 0.  0.
         25    1    4    4    0    0  0.81988948660E+02  0.23533543172E+02 -0.37035609418E+03  0.40010893511E+03  0.12509000000E+03 0.  0.
         25    1    4    4    0    0  0.19873073813E+02 -0.24942835508E+00 -0.20290911368E+03  0.23919577294E+03  0.12509000000E+03 0.  0.
<mgrwt>
<rscale>  2 0.45483623E+03</rscale>
<asrwt>0</asrwt>
<pdfrwt beam="1">  1       21 0.90837148E-02 0.45483623E+03</pdfrwt>
<pdfrwt beam="2">  1       21 0.12313139E+00 0.45483623E+03</pdfrwt>
<totfact> 0.43329766E+04</totfact>
</mgrwt>
</event>
<event>
 7    0  0.4779893E-002  0.4531435E+03  0.7546771E-02  0.1026789E+00
         21   -1    0    0  502  501  0.00000000000E+00  0.00000000000E+00  0.19438847686E+03  0.19438847686E+03  0.00000000000E+00 0.  1.
         21   -1    0    0  501  502 -0.00000000000E+00 -0.00000000000E+00 -0.26408328321E+03  0.26408328321E+03  0.00000000000E+00 0.  1.
      99926    2    1    2    0    0  0.00000000000E+00  0.14210854715E-13 -0.69694806353E+02  0.45847176008E+03  0.45314345273E+03 0.  0.
      99925    2    3    3    0    0  0.20528184975E+02 -0.91056067120E+02 -0.10529117768E+03  0.29838670928E+03  0.26312693218E+03 0.  0.
         25    1    4    4    0    0 -0.38087033751E+01 -0.84145194146E+02 -0.67995107662E+02  0.16542600366E+03  0.12509000000E+03 0.  0.
         25    1    4    4    0    0  0.24336888350E+02 -0.69108729735E+01 -0.37296070023E+02  0.13296070562E+03  0.12509000000E+03 0.  0.
         25    1    3    3    0    0 -0.20528184975E+02  0.91056067120E+02  0.35596371332E+02  0.16008505080E+03  0.12509000000E+03 0.  0.
<mgrwt>
<rscale>  2 0.45314345E+03</rscale>
<asrwt>0</asrwt>
<pdfrwt beam="1">  1       21 0.28586541E-01 0.45314345E+03</pdfrwt>
<pdfrwt beam="2">  1       21 0.38835777E-01 0.45314345E+03</pdfrwt>
<totfact> 0.69312595E+04</totfact>
</mgrwt>
</event>
<event>
 7    0  0.4779893E-002  0.4559667E+03  0.7546771E-02  0.1025958E+00
         21   -1    0    0  502  501  0.00000000000E+00  0.00000000000E+00  0.53060425734E+02  0.53060425734E+02  0.00000000000E+00 0.  1.
         21   -1    0    0  501  502 -0.00000000000E+00 -0.00000000000E+00 -0.97957005307E+03  0.97957005307E+03  0.00000000000E+00 0.  1.
      99926    2    1    2    0    0  0.00000000000E+00  0.00000000000E+00 -0.92650962734E+03  0.10326304788E+04  0.45596668322E+03 0.  0.
      99925    2    3    3    0    0  0.68632955101E+02  0.69677251785E+02 -0.44959755697E+03  0.52997947372E+03  0.26301117352E+03 0.  0.
         25    1    3    3    0    0 -0.68632955101E+02 -0.69677251785E+02 -0.47691207037E+03  0.50265100508E+03  0.12509000000E+03 0.  0.
         25    1    4    4    0    0  0.71364879562E+02  0.28579694013E+02 -0.20461906604E+03  0.25184561785E+03  0.12509000000E+03 0.  0.
         25    1    4    4    0    0 -0.27319244611E+01  0.41097557772E+02 -0.24497849093E+03  0.27813385587E+03  0.12509000000E+03 0.  0.
<mgrwt>
<rscale>  2 0.45596668E+03</rscale>
<asrwt>0</asrwt>
<pdfrwt beam="1">  1       21 0.78030041E-02 0.45596668E+03</pdfrwt>
<pdfrwt beam="2">  1       21 0.14405441E+00 0.45596668E+03</pdfrwt>
<totfact> 0.37636433E+04</totfact>
</mgrwt>
</event>
<event>
 7    0  0.4779893E-002  0.4701163E+03  0.7546771E-02  0.1021887E+00
         21   -1    0    0  502  501  0.00000000000E+00  0.00000000000E+00  0.13516064607E+03  0.13516064607E+03  0.00000000000E+00 0. -1.
         21   -1    0    0  501  502 -0.00000000000E+00 -0.00000000000E+00 -0.40879012280E+03  0.40879012280E+03  0.00000000000E+00 0. -1.
      99926    2    1    2    0    0  0.00000000000E+00 -0.35527136788E-14 -0.27362947674E+03  0.54395076887E+03  0.47011631371E+03 0.  0.
      99925    2    3    3    0    0 -0.11663511300E+03  0.25556214983E+02 -0.22054257975E+03  0.36305688716E+03  0.26251553121E+03 0.  0.
         25    1    4    4    0    0 -0.95562184374E+02 -0.62307336624E+01 -0.12478498232E+03  0.20097202053E+03  0.12509000000E+03 0.  0.
         25    1    3    3    0    0  0.11663511300E+03 -0.25556214983E+02 -0.53086896991E+02  0.18089388171E+03  0.12509000000E+03 0.  0.
         25    1    4    4    0    0 -0.21072928623E+02  0.31786948645E+02 -0.95757597424E+02  0.16208486663E+03  0.12509000000E+03 0.  0.
<mgrwt>
<rscale>  2 0.47011631E+03</rscale>
<asrwt>0</asrwt>
<pdfrwt beam="1">  1       21 0.19876566E-01 0.47011631E+03</pdfrwt>
<pdfrwt beam="2">  1       21 0.60116194E-01 0.47011631E+03</pdfrwt>
<totfact> 0.55339269E+04</totfact>
</mgrwt>
</event>
<event>
 7    0  0.4779893E-002  0.4550104E+03  0.7546771E-02  0.1026238E+00
         21   -1    0    0  502  501  0.00000000000E+00  0.00000000000E+00  0.59025210003E+02  0.59025210003E+02  0.00000000000E+00 0.  1.
         21   -1    0    0  501  502 -0.00000000000E+00 -0.00000000000E+00 -0.87689018157E+03  0.87689018157E+03  0.00000000000E+00 0.  1.
      99926    2    1    2    0    0 -0.71054273576E-14  0.14210854715E-13 -0.81786497157E+03  0.93591539157E+03  0.45501044875E+03 0.  0.
      99925    2    3    3    0    0  0.37397308910E+02 -0.68768768737E+02 -0.68286005580E+03  0.73591154749E+03  0.26294533206E+03 0.  0.
         25    1    3    3    0    0 -0.37397308910E+02  0.68768768737E+02 -0.13500491576E+03  0.20000384408E+03  0.12509000000E+03 0.  0.
         25    1    4    4    0    0  0.35621018770E+02  0.27635233094E+01 -0.31191315228E+03  0.33795534721E+03  0.12509000000E+03 0.  0.
         25    1    4    4    0    0  0.17762901404E+01 -0.71532292046E+02 -0.37094690352E+03  0.39795620029E+03  0.12509000000E+03 0.  0.
<mgrwt>
<rscale>  2 0.45501045E+03</rscale>
<asrwt>0</asrwt>
<pdfrwt beam="1">  1       21 0.86801782E-02 0.45501045E+03</pdfrwt>
<pdfrwt beam="2">  1       21 0.12895443E+00 0.45501045E+03</pdfrwt>
<totfact> 0.41713052E+04</totfact>
</mgrwt>
</event>
<event>
 7    0  0.4779893E-002  0.4539411E+03  0.7546771E-02  0.1026553E+00
         21   -1    0    0  502  501  0.00000000000E+00  0.00000000000E+00  0.61250703526E+02  0.61250703526E+02  0.00000000000E+00 0.  1.
         21   -1    0    0  501  502 -0.00000000000E+00 -0.00000000000E+00 -0.84106198105E+03  0.84106198105E+03  0.00000000000E+00 0.  1.
      99926    2    1    2    0    0  0.14210854715E-13  0.00000000000E+00 -0.77981127752E+03  0.90231268458E+03  0.45394113296E+03 0.  0.
      99925    2    3    3    0    0 -0.83694442914E+02 -0.36856085837E+02 -0.62020962214E+03  0.67986420214E+03  0.26304415431E+03 0.  0.
         25    1    3    3    0    0  0.83694442914E+02  0.36856085837E+02 -0.15960165538E+03  0.22244848244E+03  0.12509000000E+03 0.  0.
         25    1    4    4    0    0 -0.63766216136E+02 -0.90679579020E+01 -0.24064105926E+03  0.27875434648E+03  0.12509000000E+03 0.  0.
         25    1    4    4    0    0 -0.19928226777E+02 -0.27788127935E+02 -0.37956856288E+03  0.40110985566E+03  0.12509000000E+03 0.  0.
<mgrwt>
<rscale>  2 0.45394113E+03</rscale>
<asrwt>0</asrwt>
<pdfrwt beam="1">  1       21 0.90074566E-02 0.45394113E+03</pdfrwt>
<pdfrwt beam="2">  1       21 0.12368558E+00 0.45394113E+03</pdfrwt>
<totfact> 0.43493297E+04</totfact>
</mgrwt>
</event>
<event>
 7    0  0.4779893E-002  0.4583075E+03  0.7546771E-02  0.1025273E+00
         21   -1    0    0  502  501  0.00000000000E+00  0.00000000000E+00  0.67439878622E+03  0.67439878622E+03  0.00000000000E+00 0. -1.
         21   -1    0    0  501  502 -0.00000000000E+00 -0.00000000000E+00 -0.77864086195E+02  0.77864086195E+02  0.00000000000E+00 0. -1.
      99926    2    1    2    0    0  0.00000000000E+00  0.00000000000E+00  0.59653470002E+03  0.75226287241E+03  0.45830751781E+03 0.  0.
      99925    2    3    3    0    0 -0.97591054960E+02 -0.20358662098E+02  0.47246627623E+03  0.54983023914E+03  0.26296467552E+03 0.  0.
         25    1    3    3    0    0  0.97591054960E+02  0.20358662098E+02  0.12406842379E+03  0.20243263327E+03  0.12509000000E+03 0.  0.
         25    1    4    4    0    0 -0.47488488976E+02 -0.54015723179E+01  0.15629080467E+03  0.20581218937E+03  0.12509000000E+03 0.  0.
         25    1    4    4    0    0 -0.50102565984E+02 -0.14957089780E+02  0.31617547156E+03  0.34401804977E+03  0.12509000000E+03 0.  0.
<mgrwt>
<rscale>  2 0.45830752E+03</rscale>
<asrwt>0</asrwt>
<pdfrwt beam="1">  1       21 0.99176289E-01 0.45830752E+03</pdfrwt>
<pdfrwt beam="2">  1       21 0.11450601E-01 0.45830752E+03</pdfrwt>
<totfact> 0.48872749E+04</totfact>
</mgrwt>
</event>
<event>
 7    0  0.4779893E-002  0.4554327E+03  0.7546771E-02  0.1026114E+00
         21   -1    0    0  502  501  0.00000000000E+00  0.00000000000E+00  0.18794133584E+03  0.18794133584E+03  0.00000000000E+00 0.  1.
         21   -1    0    0  501  502 -0.00000000000E+00 -0.00000000000E+00 -0.27590919185E+03  0.27590919185E+03  0.00000000000E+00 0.  1.
      99926    2    1    2    0    0 -0.71054273576E-14  0.00000000000E+00 -0.87967856010E+02  0.46385052769E+03  0.45543272648E+03 0.  0.
      99925    2    3    3    0    0 -0.60335579482E+02  0.90987725465E+02 -0.24628724584E+02  0.28614711747E+03  0.26335233134E+03 0.  0.
         25    1    4    4    0    0 -0.43359943452E+02  0.55943261756E+02  0.25316636102E+02  0.14593893722E+03  0.12509000000E+03 0.  0.
         25    1    4    4    0    0 -0.16975636030E+02  0.35044463709E+02 -0.49945360686E+02  0.14020818025E+03  0.12509000000E+03 0.  0.
         25    1    3    3    0    0  0.60335579482E+02 -0.90987725465E+02 -0.63339131426E+02  0.17770341023E+03  0.12509000000E+03 0.  0.
<mgrwt>
<rscale>  2 0.45543273E+03</rscale>
<asrwt>0</asrwt>
<pdfrwt beam="1">  1       21 0.27638432E-01 0.45543273E+03</pdfrwt>
<pdfrwt beam="2">  1       21 0.40574880E-01 0.45543273E+03</pdfrwt>
<totfact> 0.67662555E+04</totfact>
</mgrwt>
</event>
<event>
 7    0  0.4779893E-002  0.4511955E+03  0.7546771E-02  0.1027366E+00
         21   -1    0    0  502  501  0.00000000000E+00  0.00000000000E+00  0.83932570142E+02  0.83932570142E+02  0.00000000000E+00 0.  1.
         21   -1    0    0  501  502 -0.00000000000E+00 -0.00000000000E+00 -0.60637193451E+03  0.60637193451E+03  0.00000000000E+00 0.  1.
      99926    2    1    2    0    0  0.00000000000E+00  0.00000000000E+00 -0.52243936437E+03  0.69030450466E+03  0.45119554486E+03 0.  0.
      99925    2    3    3    0    0 -0.21800784114E+02  0.85733971891E+02 -0.23081317084E+03  0.36088238491E+03  0.26293685132E+03 0.  0.
         25    1    4    4    0    0 -0.16787411374E+02  0.23768112945E+02 -0.15717742440E+03  0.20297534632E+03  0.12509000000E+03 0.  0.
         25    1    4    4    0    0 -0.50133727402E+01  0.61965858946E+02 -0.73635746438E+02  0.15790703858E+03  0.12509000000E+03 0.  0.
         25    1    3    3    0    0  0.21800784114E+02 -0.85733971891E+02 -0.29162619354E+03  0.32942211975E+03  0.12509000000E+03 0.  0.
<mgrwt>
<rscale>  2 0.45119554E+03</rscale>
<asrwt>0</asrwt>
<pdfrwt beam="1">  1       21 0.12343025E-01 0.45119554E+03</pdfrwt>
<pdfrwt beam="2">  1       21 0.89172340E-01 0.45119554E+03</pdfrwt>
<totfact> 0.55063220E+04</totfact>
</mgrwt>
</event>
<event>
 7    0  0.4779893E-002  0.4689386E+03  0.7546771E-02  0.1022220E+00
         21   -1    0    0  502  501  0.00000000000E+00  0.00000000000E+00  0.44769166448E+03  0.44769166448E+03  0.00000000000E+00 0. -1.
         21   -1    0    0  501  502 -0.00000000000E+00 -0.00000000000E+00 -0.12279846805E+03  0.12279846805E+03  0.00000000000E+00 0. -1.
      99926    2    1    2    0    0  0.00000000000E+00  0.00000000000E+00  0.32489319643E+03  0.57049013254E+03  0.46893859111E+03 0.  0.
      99925    2    3    3    0    0 -0.11121438901E+03 -0.51212049251E+02  0.16711498574E+03  0.33483617823E+03  0.26305233981E+03 0.  0.
         25    1    4    4    0    0 -0.66802035559E+02 -0.28648418962E+02  0.13162980921E+03  0.19559437271E+03  0.12509000000E+03 0.  0.
         25    1    3    3    0    0  0.11121438901E+03  0.51212049251E+02  0.15777821069E+03  0.23565395430E+03  0.12509000000E+03 0.  0.
         25    1    4    4    0    0 -0.44412353454E+02 -0.22563630288E+02  0.35485176534E+02  0.13924180552E+03  0.12509000000E+03 0.  0.
<mgrwt>
<rscale>  2 0.46893859E+03</rscale>
<asrwt>0</asrwt>
<pdfrwt beam="1">  1       21 0.65837009E-01 0.46893859E+03</pdfrwt>
<pdfrwt beam="2">  1       21 0.18058598E-01 0.46893859E+03</pdfrwt>
<totfact> 0.54295494E+04</totfact>
</mgrwt>
</event>
<event>
 7    0  0.4779893E-002  0.4548064E+03  0.7546771E-02  0.1026298E+00
         21   -1    0    0  502  501  0.00000000000E+00  0.00000000000E+00  0.39758398724E+02  0.39758398724E+02  0.00000000000E+00 0.  1.
         21   -1    0    0  501  502 -0.00000000000E+00 -0.00000000000E+00 -0.13006614885E+04  0.13006614885E+04  0.00000000000E+00 0.  1.
      99926    2    1    2    0    0  0.00000000000E+00  0.00000000000E+00 -0.12609030897E+04  0.13404198872E+04  0.45480641184E+03 0.  0.
      99925    2    3    3    0    0 -0.95955399951E+02  0.29312314345E+02 -0.64031044100E+03  0.69944454107E+03  0.26298014114E+03 0.  0.
         25    1    4    4    0    0 -0.75296050587E+02  0.26950149128E+02 -0.27151096839E+03  0.30945358267E+03  0.12509000000E+03 0.  0.
         25    1    3    3    0    0  0.95955399951E+02 -0.29312314345E+02 -0.62059264875E+03  0.64097534612E+03  0.12509000000E+03 0.  0.
         25    1    4    4    0    0 -0.20659349364E+02  0.23621652176E+01 -0.36879947260E+03  0.38999095840E+03  0.12509000000E+03 0.  0.
<mgrwt>
<rscale>  2 0.45480641E+03</rscale>
<asrwt>0</asrwt>
<pdfrwt beam="1">  1       21 0.58468245E-02 0.45480641E+03</pdfrwt>
<pdfrwt beam="2">  1       21 0.19127371E+00 0.45480641E+03</pdfrwt>
<totfact> 0.28005227E+04</totfact>
</mgrwt>
</event>
<event>
 7    0  0.4779893E-002  0.4617712E+03  0.7546771E-02  0.1024269E+00
         21   -1    0    0  502  501  0.00000000000E+00  0.00000000000E+00  0.22153054274E+03  0.22153054274E+03  0.00000000000E+00 0. -1.
         21   -1    0    0  501  502 -0.00000000000E+00 -0.00000000000E+00 -0.24063568294E+03  0.24063568294E+03  0.00000000000E+00 0. -1.
      99926    2    1    2    0    0  0.17763568394E-14  0.00000000000E+00 -0.19105140195E+02  0.46216622568E+03  0.46177117036E+03 0.  0.
      99925    2    3    3    0    0 -0.11664027350E+02 -0.62388703257E+02 -0.11293639346E+03  0.29340541264E+03  0.26325597310E+03 0.  0.
         25    1    3    3    0    0  0.11664027350E+02  0.62388703257E+02  0.93831253262E+02  0.16876081304E+03  0.12509000000E+03 0.  0.
         25    1    4    4    0    0 -0.13522738513E+02 -0.55024194935E+02 -0.23201955863E+02  0.13927083450E+03  0.12509000000E+03 0.  0.
         25    1    4    4    0    0  0.18587111634E+01 -0.73645083214E+01 -0.89734437594E+02  0.15413457815E+03  0.12509000000E+03 0.  0.
<mgrwt>
<rscale>  2 0.46177117E+03</rscale>
<asrwt>0</asrwt>
<pdfrwt beam="1">  1       21 0.32578021E-01 0.46177117E+03</pdfrwt>
<pdfrwt beam="2">  1       21 0.35387600E-01 0.46177117E+03</pdfrwt>
<totfact> 0.64469861E+04</totfact>
</mgrwt>
</event>
<event>
 7    0  0.4779893E-002  0.4539386E+03  0.7546771E-02  0.1026554E+00
         21   -1    0    0  502  501  0.00000000000E+00  0.00000000000E+00  0.15305455754E+04  0.15305455754E+04  0.00000000000E+00 0. -1.
         21   -1    0    0  501  502 -0.00000000000E+00 -0.00000000000E+00 -0.33657975673E+02  0.33657975673E+02  0.00000000000E+00 0. -1.
      99926    2    1    2    0    0 -0.14210854715E-13 -0.35527136788E-14  0.14968875998E+04  0.15642035511E+04  0.45393861146E+03 0.  0.
      99925    2    3    3    0    0  0.10096121073E+03  0.23348286853E+02  0.10905324542E+04  0.11265846290E+04  0.26304673358E+03 0.  0.
         25    1    3    3    0    0 -0.10096121073E+03 -0.23348286853E+02  0.40635514559E+03  0.43761892214E+03  0.12509000000E+03 0.  0.
         25    1    4    4    0    0  0.88276620868E+02  0.32673982608E+02  0.61857680406E+03  0.63807924394E+03  0.12509000000E+03 0.  0.
         25    1    4    4    0    0  0.12684589860E+02 -0.93256957552E+01  0.47195565012E+03  0.48850538503E+03  0.12509000000E+03 0.  0.
<mgrwt>
<rscale>  2 0.45393861E+03</rscale>
<asrwt>0</asrwt>
<pdfrwt beam="1">  1       21 0.22508018E+00 0.45393861E+03</pdfrwt>
<pdfrwt beam="2">  1       21 0.49497033E-02 0.45393861E+03</pdfrwt>
<totfact> 0.22432926E+04</totfact>
</mgrwt>
</event>
<event>
 7    0  0.4779893E-002  0.4547043E+03  0.7546771E-02  0.1026328E+00
         21   -1    0    0  502  501  0.00000000000E+00  0.00000000000E+00  0.78108806089E+03  0.78108806089E+03  0.00000000000E+00 0.  1.
         21   -1    0    0  501  502 -0.00000000000E+00 -0.00000000000E+00 -0.66175629668E+02  0.66175629668E+02  0.00000000000E+00 0.  1.
      99926    2    1    2    0    0  0.00000000000E+00  0.88817841970E-15  0.71491243123E+03  0.84726369056E+03  0.45470427425E+03 0.  0.
      99925    2    3    3    0    0 -0.10029430805E+03 -0.24120657161E+01  0.35231316038E+03  0.45079111193E+03  0.26272285270E+03 0.  0.
         25    1    4    4    0    0 -0.70372502346E+02 -0.36060961934E+02  0.19580809699E+03  0.24544042252E+03  0.12509000000E+03 0.  0.
         25    1    4    4    0    0 -0.29921805705E+02  0.33648896218E+02  0.15650506339E+03  0.20535068941E+03  0.12509000000E+03 0.  0.
         25    1    3    3    0    0  0.10029430805E+03  0.24120657161E+01  0.36259927085E+03  0.39647257863E+03  0.12509000000E+03 0.  0.
<mgrwt>
<rscale>  2 0.45470427E+03</rscale>
<asrwt>0</asrwt>
<pdfrwt beam="1">  1       21 0.11486589E+00 0.45470427E+03</pdfrwt>
<pdfrwt beam="2">  1       21 0.97317107E-02 0.45470427E+03</pdfrwt>
<totfact> 0.45667885E+04</totfact>
</mgrwt>
</event>
<event>
 7    0  0.4779893E-002  0.4577059E+03  0.7546771E-02  0.1025449E+00
         21   -1    0    0  502  501  0.00000000000E+00  0.00000000000E+00  0.29381045675E+03  0.29381045675E+03  0.00000000000E+00 0.  1.
         21   -1    0    0  501  502 -0.00000000000E+00 -0.00000000000E+00 -0.17825670316E+03  0.17825670316E+03  0.00000000000E+00 0.  1.
      99926    2    1    2    0    0 -0.71054273576E-14  0.00000000000E+00  0.11555375359E+03  0.47206715991E+03  0.45770594654E+03 0.  0.
      99925    2    3    3    0    0  0.45060670091E+02 -0.10654206949E+03  0.72330983049E+02  0.29629061838E+03  0.26301080371E+03 0.  0.
         25    1    3    3    0    0 -0.45060670091E+02  0.10654206949E+03  0.43222770539E+02  0.17577654153E+03  0.12509000000E+03 0.  0.
         25    1    4    4    0    0  0.51624980884E+02 -0.81933368024E+02  0.54893983908E+02  0.16744871757E+03  0.12509000000E+03 0.  0.
         25    1    4    4    0    0 -0.65643107932E+01 -0.24608701468E+02  0.17436999141E+02  0.12884190081E+03  0.12509000000E+03 0.  0.
<mgrwt>
<rscale>  2 0.45770595E+03</rscale>
<asrwt>0</asrwt>
<pdfrwt beam="1">  1       21 0.43207420E-01 0.45770595E+03</pdfrwt>
<pdfrwt beam="2">  1       21 0.26214221E-01 0.45770595E+03</pdfrwt>
<totfact> 0.65857174E+04</totfact>
</mgrwt>
</event>
<event>
 7    0  0.4779893E-002  0.4568088E+03  0.7546771E-02  0.1025711E+00
         21   -1    0    0  502  501  0.00000000000E+00  0.00000000000E+00  0.23492717732E+03  0.23492717732E+03  0.00000000000E+00 0. -1.
         21   -1    0    0  501  502 -0.00000000000E+00 -0.00000000000E+00 -0.22206276007E+03  0.22206276007E+03  0.00000000000E+00 0. -1.
      99926    2    1    2    0    0  0.00000000000E+00 -0.17763568394E-14  0.12864417252E+02  0.45698993739E+03  0.45680883271E+03 0.  0.
      99925    2    3    3    0    0 -0.11110635711E+03 -0.14728083203E+02 -0.17203461374E+02  0.28636425218E+03  0.26295814652E+03 0.  0.
         25    1    4    4    0    0 -0.15463722892E+02 -0.22878656193E+02 -0.10865679802E+02  0.12856177788E+03  0.12509000000E+03 0.  0.
         25    1    3    3    0    0  0.11110635711E+03  0.14728083203E+02  0.30067878626E+02  0.17062568520E+03  0.12509000000E+03 0.  0.
         25    1    4    4    0    0 -0.95642634219E+02  0.81505729901E+01 -0.63377815719E+01  0.15780247430E+03  0.12509000000E+03 0.  0.
<mgrwt>
<rscale>  2 0.45680883E+03</rscale>
<asrwt>0</asrwt>
<pdfrwt beam="1">  1       21 0.34548115E-01 0.45680883E+03</pdfrwt>
<pdfrwt beam="2">  1       21 0.32656288E-01 0.45680883E+03</pdfrwt>
<totfact> 0.67421928E+04</totfact>
</mgrwt>
</event>
<event>
 7    0  0.4779893E-002  0.4571315E+03  0.7546771E-02  0.1025616E+00
         21   -1    0    0  502  501  0.00000000000E+00  0.00000000000E+00  0.20551075440E+04  0.20551075440E+04  0.00000000000E+00 0. -1.
         21   -1    0    0  501  502 -0.00000000000E+00 -0.00000000000E+00 -0.25420715142E+02  0.25420715142E+02  0.00000000000E+00 0. -1.
      99926    2    1    2    0    0  0.00000000000E+00  0.00000000000E+00  0.20296868289E+04  0.20805282591E+04  0.45713150607E+03 0.  0.
      99925    2    3    3    0    0 -0.88131580243E+02  0.48585983135E+02  0.15297915595E+04  0.15554848689E+04  0.26295092453E+03 0.  0.
         25    1    4    4    0    0 -0.53964319880E+02 -0.15098927190E+02  0.75311860624E+03  0.76549021456E+03  0.12509000000E+03 0.  0.
         25    1    3    3    0    0  0.88131580243E+02 -0.48585983135E+02  0.49989526935E+03  0.52504339021E+03  0.12509000000E+03 0.  0.
         25    1    4    4    0    0 -0.34167260363E+02  0.63684910325E+02  0.77667295327E+03  0.78999465437E+03  0.12509000000E+03 0.  0.
<mgrwt>
<rscale>  2 0.45713151E+03</rscale>
<asrwt>0</asrwt>
<pdfrwt beam="1">  1       21 0.30222158E+00 0.45713151E+03</pdfrwt>
<pdfrwt beam="2">  1       21 0.37383419E-02 0.45713151E+03</pdfrwt>
<totfact> 0.12235658E+04</totfact>
</mgrwt>
</event>
<event>
 7    0  0.4779893E-002  0.4328902E+03  0.7546771E-02  0.1032951E+00
         21   -1    0    0  502  501  0.00000000000E+00  0.00000000000E+00  0.84943320609E+03  0.84943320609E+03  0.00000000000E+00 0. -1.
         21   -1    0    0  501  502 -0.00000000000E+00 -0.00000000000E+00 -0.55152632972E+02  0.55152632972E+02  0.00000000000E+00 0. -1.
      99926    2    1    2    0    0  0.00000000000E+00  0.00000000000E+00  0.79428057312E+03  0.90458583907E+03  0.43289018400E+03 0.  0.
      99925    2    3    3    0    0 -0.44676985941E+02 -0.47287109801E+02  0.64310955771E+03  0.69786794476E+03  0.26305448348E+03 0.  0.
         25    1    4    4    0    0  0.76407059722E+01 -0.41861182846E+02  0.26431527959E+03  0.29550095455E+03  0.12509000000E+03 0.  0.
         25    1    3    3    0    0  0.44676985941E+02  0.47287109801E+02  0.15117101541E+03  0.20671789430E+03  0.12509000000E+03 0.  0.
         25    1    4    4    0    0 -0.52317691913E+02 -0.54259269554E+01  0.37879427813E+03  0.40236699021E+03  0.12509000000E+03 0.  0.
<mgrwt>
<rscale>  2 0.43289018E+03</rscale>
<asrwt>0</asrwt>
<pdfrwt beam="1">  1       21 0.12491664E+00 0.43289018E+03</pdfrwt>
<pdfrwt beam="2">  1       21 0.81106818E-02 0.43289018E+03</pdfrwt>
<totfact> 0.51362168E+04</totfact>
</mgrwt>
</event>
<event>
 7    0  0.4779893E-002  0.3906228E+03  0.7546771E-02  0.1047076E+00
         21   -1    0    0  502  501  0.00000000000E+00  0.00000000000E+00  0.15797856141E+03  0.15797856141E+03  0.00000000000E+00 0.  1.
         21   -1    0    0  501  502 -0.00000000000E+00 -0.00000000000E+00 -0.24146663492E+03  0.24146663492E+03  0.00000000000E+00 0.  1.
      99926    2    1    2    0    0  0.00000000000E+00 -0.17763568394E-14 -0.83488073511E+02  0.39944519633E+03  0.39062284425E+03 0.  0.
      99925    2    3    3    0    0 -0.54954610261E+01 -0.15152367771E+02 -0.42891368845E+02  0.26694842327E+03  0.26298668564E+03 0.  0.
         25    1    4    4    0    0 -0.35253183694E+01  0.13376127738E+02  0.13914957307E+02  0.12661944084E+03  0.12509000000E+03 0.  0.
         25    1    4    4    0    0 -0.19701426567E+01 -0.28528495508E+02 -0.56806326152E+02  0.14032898243E+03  0.12509000000E+03 0.  0.
         25    1    3    3    0    0  0.54954610261E+01  0.15152367771E+02 -0.40596704666E+02  0.13249677306E+03  0.12509000000E+03 0.  0.
<mgrwt>
<rscale>  2 0.39062284E+03</rscale>
<asrwt>0</asrwt>
<pdfrwt beam="1">  1       21 0.23232142E-01 0.39062284E+03</pdfrwt>
<pdfrwt beam="2">  1       21 0.35509799E-01 0.39062284E+03</pdfrwt>
<totfact> 0.12619151E+05</totfact>
</mgrwt>
</event>
<event>
 7    0  0.4779893E-002  0.4556687E+03  0.7546771E-02  0.1026045E+00
         21   -1    0    0  502  501  0.00000000000E+00  0.00000000000E+00  0.60818240832E+03  0.60818240832E+03  0.00000000000E+00 0. -1.
         21   -1    0    0  501  502 -0.00000000000E+00 -0.00000000000E+00 -0.85350208115E+02  0.85350208115E+02  0.00000000000E+00 0. -1.
      99926    2    1    2    0    0  0.14210854715E-13  0.17763568394E-14  0.52283220021E+03  0.69353261644E+03  0.45566871792E+03 0.  0.
      99925    2    3    3    0    0 -0.11279903089E+03 -0.11368734917E+02  0.31381552395E+03  0.42485372156E+03  0.26299739950E+03 0.  0.
         25    1    4    4    0    0 -0.66582267450E+02 -0.20412928317E+02  0.10754005450E+03  0.17905936837E+03  0.12509000000E+03 0.  0.
         25    1    4    4    0    0 -0.46216763436E+02  0.90441933998E+01  0.20627546946E+03  0.24579435318E+03  0.12509000000E+03 0.  0.
         25    1    3    3    0    0  0.11279903089E+03  0.11368734917E+02  0.20901667626E+03  0.26867889488E+03  0.12509000000E+03 0.  0.
<mgrwt>
<rscale>  2 0.45566872E+03</rscale>
<asrwt>0</asrwt>
<pdfrwt beam="1">  1       21 0.89438587E-01 0.45566872E+03</pdfrwt>
<pdfrwt beam="2">  1       21 0.12551501E-01 0.45566872E+03</pdfrwt>
<totfact> 0.52976153E+04</totfact>
</mgrwt>
</event>
<event>
 7    0  0.4779893E-002  0.4564921E+03  0.7546771E-02  0.1025804E+00
         21   -1    0    0  502  501  0.00000000000E+00  0.00000000000E+00  0.44859009685E+03  0.44859009685E+03  0.00000000000E+00 0. -1.
         21   -1    0    0  501  502 -0.00000000000E+00 -0.00000000000E+00 -0.11613334030E+03  0.11613334030E+03  0.00000000000E+00 0. -1.
      99926    2    1    2    0    0 -0.71054273576E-14  0.00000000000E+00  0.33245675655E+03  0.56472343716E+03  0.45649213082E+03 0.  0.
      99925    2    3    3    0    0  0.40374373151E+02  0.10797842933E+03  0.20778885672E+03  0.35382292849E+03  0.26215458138E+03 0.  0.
         25    1    4    4    0    0  0.55706530460E+02  0.45361942910E+02  0.12267385291E+03  0.18936025372E+03  0.12509000000E+03 0.  0.
         25    1    4    4    0    0 -0.15332157309E+02  0.62616486419E+02  0.85115003816E+02  0.16446267477E+03  0.12509000000E+03 0.  0.
         25    1    3    3    0    0 -0.40374373151E+02 -0.10797842933E+03  0.12466789983E+03  0.21090050867E+03  0.12509000000E+03 0.  0.
<mgrwt>
<rscale>  2 0.45649213E+03</rscale>
<asrwt>0</asrwt>
<pdfrwt beam="1">  1       21 0.65969131E-01 0.45649213E+03</pdfrwt>
<pdfrwt beam="2">  1       21 0.17078433E-01 0.45649213E+03</pdfrwt>
<totfact> 0.60190464E+04</totfact>
</mgrwt>
</event>
<event>
 7    0  0.4779893E-002  0.4624398E+03  0.7546771E-02  0.1024076E+00
         21   -1    0    0  502  501  0.00000000000E+00  0.00000000000E+00  0.48904457304E+03  0.48904457304E+03  0.00000000000E+00 0.  1.
         21   -1    0    0  501  502 -0.00000000000E+00 -0.00000000000E+00 -0.10932057660E+03  0.10932057660E+03  0.00000000000E+00 0.  1.
      99926    2    1    2    0    0  0.00000000000E+00  0.00000000000E+00  0.37972399644E+03  0.59836514964E+03  0.46243976779E+03 0.  0.
      99925    2    3    3    0    0  0.36429964410E+02 -0.66316676643E+02  0.35793208891E+03  0.45055635680E+03  0.26298404224E+03 0.  0.
         25    1    3    3    0    0 -0.36429964410E+02  0.66316676643E+02  0.21791907527E+02  0.14780879284E+03  0.12509000000E+03 0.  0.
         25    1    4    4    0    0  0.30926212263E+02 -0.65302804409E+02  0.15318941138E+03  0.21055970822E+03  0.12509000000E+03 0.  0.
         25    1    4    4    0    0  0.55037521464E+01 -0.10138722334E+01  0.20474267754E+03  0.23999664858E+03  0.12509000000E+03 0.  0.
<mgrwt>
<rscale>  2 0.46243977E+03</rscale>
<asrwt>0</asrwt>
<pdfrwt beam="1">  1       21 0.71918319E-01 0.46243977E+03</pdfrwt>
<pdfrwt beam="2">  1       21 0.16076556E-01 0.46243977E+03</pdfrwt>
<totfact> 0.55446776E+04</totfact>
</mgrwt>
</event>
<event>
 6    0  0.4779893E-002  0.4535538E+03  0.7546771E-02  0.1026668E+00
         21   -1    0    0  502  501  0.00000000000E+00  0.00000000000E+00  0.43066435473E+02  0.43066435473E+02  0.00000000000E+00 0.  1.
         21   -1    0    0  501  502 -0.00000000000E+00 -0.00000000000E+00 -0.11941493152E+04  0.11941493152E+04  0.00000000000E+00 0.  1.
      99926    2    1    2    0    0  0.00000000000E+00  0.00000000000E+00 -0.11510828797E+04  0.12372157507E+04  0.45355376497E+03 0.  0.
         25    1    3    3    0    0  0.40204662486E+02 -0.28767830153E+02 -0.68843599951E+03  0.70145251903E+03  0.12509000000E+03 0.  0.
         25    1    3    3    0    0  0.72795586543E+01  0.28070603838E+02 -0.29144070538E+03  0.31847471427E+03  0.12509000000E+03 0.  0.
         25    1    3    3    0    0 -0.47484221140E+02  0.69722631528E+00 -0.17120617485E+03  0.21728851739E+03  0.12509000000E+03 0.  0.
<mgrwt>
<rscale>  2 0.45355376E+03</rscale>
<asrwt>0</asrwt>
<pdfrwt beam="1">  1       21 0.63332997E-02 0.45355376E+03</pdfrwt>
<pdfrwt beam="2">  1       21 0.17561018E+00 0.45355376E+03</pdfrwt>
<totfact> 0.31345427E+04</totfact>
</mgrwt>
</event>
<event>
 7    0  0.4779893E-002  0.4535816E+03  0.7546771E-02  0.1026659E+00
         21   -1    0    0  502  501  0.00000000000E+00  0.00000000000E+00  0.14613572828E+03  0.14613572828E+03  0.00000000000E+00 0.  1.
         21   -1    0    0  501  502 -0.00000000000E+00 -0.00000000000E+00 -0.35196086171E+03  0.35196086171E+03  0.00000000000E+00 0.  1.
      99926    2    1    2    0    0 -0.53290705182E-14  0.71054273576E-14 -0.20582513343E+03  0.49809658999E+03  0.45358155541E+03 0.  0.
      99925    2    3    3    0    0  0.14687388668E+02 -0.47083758380E+02 -0.18098640208E+02  0.26718244134E+03  0.26196621250E+03 0.  0.
         25    1    4    4    0    0 -0.20750280374E+02 -0.35806353918E+02  0.14833288402E+02  0.13259036036E+03  0.12509000000E+03 0.  0.
         25    1    3    3    0    0 -0.14687388668E+02  0.47083758380E+02 -0.18772649322E+03  0.23091414865E+03  0.12509000000E+03 0.  0.
         25    1    4    4    0    0  0.35437669042E+02 -0.11277404462E+02 -0.32931928609E+02  0.13459208097E+03  0.12509000000E+03 0.  0.
<mgrwt>
<rscale>  2 0.45358156E+03</rscale>
<asrwt>0</asrwt>
<pdfrwt beam="1">  1       21 0.21490549E-01 0.45358156E+03</pdfrwt>
<pdfrwt beam="2">  1       21 0.51758949E-01 0.45358156E+03</pdfrwt>
<totfact> 0.66146255E+04</totfact>
</mgrwt>
</event>
<event>
 7    0  0.4779893E-002  0.4463732E+03  0.7546771E-02  0.1028809E+00
         21   -1    0    0  502  501  0.00000000000E+00  0.00000000000E+00  0.78817556098E+03  0.78817556098E+03  0.00000000000E+00 0.  1.
         21   -1    0    0  501  502 -0.00000000000E+00 -0.00000000000E+00 -0.63199446476E+02  0.63199446476E+02  0.00000000000E+00 0.  1.
      99926    2    1    2    0    0  0.00000000000E+00  0.00000000000E+00  0.72497611451E+03  0.85137500746E+03  0.44637320341E+03 0.  0.
      99925    2    3    3    0    0 -0.47105536155E+02 -0.77759803679E+02  0.56003219966E+03  0.62527874090E+03  0.26281537354E+03 0.  0.
         25    1    4    4    0    0 -0.78607504925E+00 -0.29938876220E+02  0.34050913049E+03  0.36399303602E+03  0.12509000000E+03 0.  0.
         25    1    4    4    0    0 -0.46319461105E+02 -0.47820927458E+02  0.21952306916E+03  0.26128570488E+03  0.12509000000E+03 0.  0.
         25    1    3    3    0    0  0.47105536155E+02  0.77759803679E+02  0.16494391485E+03  0.22609626656E+03  0.12509000000E+03 0.  0.
<mgrwt>
<rscale>  2 0.44637320E+03</rscale>
<asrwt>0</asrwt>
<pdfrwt beam="1">  1       21 0.11590816E+00 0.44637320E+03</pdfrwt>
<pdfrwt beam="2">  1       21 0.92940367E-02 0.44637320E+03</pdfrwt>
<totfact> 0.48583078E+04</totfact>
</mgrwt>
</event>
<event>
 7    0  0.4779893E-002  0.4368063E+03  0.7546771E-02  0.1031731E+00
         21   -1    0    0  502  501  0.00000000000E+00  0.00000000000E+00  0.95097455189E+02  0.95097455189E+02  0.00000000000E+00 0.  1.
         21   -1    0    0  501  502 -0.00000000000E+00 -0.00000000000E+00 -0.50158999016E+03  0.50158999016E+03  0.00000000000E+00 0.  1.
      99926    2    1    2    0    0  0.71054273576E-14  0.14210854715E-13 -0.40649253497E+03  0.59668744535E+03  0.43680628023E+03 0.  0.
      99925    2    3    3    0    0  0.39361163784E+02  0.84016829431E+02 -0.23059678166E+03  0.36175138389E+03  0.26283275897E+03 0.  0.
         25    1    4    4    0    0  0.54475975740E+02  0.21805049121E+02 -0.11135302847E+03  0.17745449318E+03  0.12509000000E+03 0.  0.
         25    1    4    4    0    0 -0.15114811957E+02  0.62211780310E+02 -0.11924375319E+03  0.18429689071E+03  0.12509000000E+03 0.  0.
         25    1    3    3    0    0 -0.39361163784E+02 -0.84016829431E+02 -0.17589575331E+03  0.23493606146E+03  0.12509000000E+03 0.  0.
<mgrwt>
<rscale>  2 0.43680628E+03</rscale>
<asrwt>0</asrwt>
<pdfrwt beam="1">  1       21 0.13984920E-01 0.43680628E+03</pdfrwt>
<pdfrwt beam="2">  1       21 0.73763235E-01 0.43680628E+03</pdfrwt>
<totfact> 0.68165935E+04</totfact>
</mgrwt>
</event>
<event>
 7    0  0.4779893E-002  0.4521921E+03  0.7546771E-02  0.1027070E+00
         21   -1    0    0  502  501  0.00000000000E+00  0.00000000000E+00  0.52954967719E+03  0.52954967719E+03  0.00000000000E+00 0.  1.
         21   -1    0    0  501  502 -0.00000000000E+00 -0.00000000000E+00 -0.96533746910E+02  0.96533746910E+02  0.00000000000E+00 0.  1.
      99926    2    1    2    0    0  0.14210854715E-13  0.00000000000E+00  0.43301593028E+03  0.62608342410E+03  0.45219205882E+03 0.  0.
      99925    2    3    3    0    0  0.10562255543E+03 -0.31940965259E+02  0.27688911169E+03  0.39761145414E+03  0.26315573110E+03 0.  0.
         25    1    4    4    0    0  0.81578650029E+02  0.76506877201E+01  0.17204615813E+03  0.22794955098E+03  0.12509000000E+03 0.  0.
         25    1    4    4    0    0  0.24043905398E+02 -0.39591652980E+02  0.10484295356E+03  0.16966190316E+03  0.12509000000E+03 0.  0.
         25    1    3    3    0    0 -0.10562255543E+03  0.31940965259E+02  0.15612681859E+03  0.22847196997E+03  0.12509000000E+03 0.  0.
<mgrwt>
<rscale>  2 0.45219206E+03</rscale>
<asrwt>0</asrwt>
<pdfrwt beam="1">  1       21 0.77874951E-01 0.45219206E+03</pdfrwt>
<pdfrwt beam="2">  1       21 0.14196139E-01 0.45219206E+03</pdfrwt>
<totfact> 0.58384376E+04</totfact>
</mgrwt>
</event>
<event>
 7    0  0.4779893E-002  0.4498988E+03  0.7546771E-02  0.1027752E+00
         21   -1    0    0  502  501  0.00000000000E+00  0.00000000000E+00  0.51322316538E+02  0.51322316538E+02  0.00000000000E+00 0. -1.
         21   -1    0    0  501  502 -0.00000000000E+00 -0.00000000000E+00 -0.98596916182E+03  0.98596916182E+03  0.00000000000E+00 0. -1.
      99926    2    1    2    0    0  0.00000000000E+00  0.00000000000E+00 -0.93464684528E+03  0.10372914784E+04  0.44989875047E+03 0.  0.
      99925    2    3    3    0    0  0.76037060702E+02 -0.76142503943E+02 -0.56257814807E+03  0.63027558303E+03  0.26300916784E+03 0.  0.
         25    1    4    4    0    0  0.41202308268E+02 -0.80287237196E+02 -0.30258802240E+03  0.33963316985E+03  0.12509000000E+03 0.  0.
         25    1    4    4    0    0  0.34834752434E+02  0.41447332533E+01 -0.25999012567E+03  0.29064241318E+03  0.12509000000E+03 0.  0.
         25    1    3    3    0    0 -0.76037060702E+02  0.76142503943E+02 -0.37206869721E+03  0.40701589533E+03  0.12509000000E+03 0.  0.
<mgrwt>
<rscale>  2 0.44989875E+03</rscale>
<asrwt>0</asrwt>
<pdfrwt beam="1">  1       21 0.75474001E-02 0.44989875E+03</pdfrwt>
<pdfrwt beam="2">  1       21 0.14499545E+00 0.44989875E+03</pdfrwt>
<totfact> 0.39288568E+04</totfact>
</mgrwt>
</event>
<event>
 7    0  0.4779893E-002  0.4479688E+03  0.7546771E-02  0.1028330E+00
         21   -1    0    0  502  501  0.00000000000E+00  0.00000000000E+00  0.34247515234E+03  0.34247515234E+03  0.00000000000E+00 0. -1.
         21   -1    0    0  501  502 -0.00000000000E+00 -0.00000000000E+00 -0.14648946249E+03  0.14648946249E+03  0.00000000000E+00 0. -1.
      99926    2    1    2    0    0  0.35527136788E-14  0.00000000000E+00  0.19598568985E+03  0.48896461483E+03  0.44796875330E+03 0.  0.
      99925    2    3    3    0    0  0.17787066499E+02  0.74366957822E+02  0.43335104489E+02  0.27731269904E+03  0.26301630675E+03 0.  0.
         25    1    3    3    0    0 -0.17787066499E+02 -0.74366957822E+02  0.15265058536E+03  0.21165191580E+03  0.12509000000E+03 0.  0.
         25    1    4    4    0    0  0.46292204581E+02  0.28182382834E+02  0.34756800992E+02  0.14068673791E+03  0.12509000000E+03 0.  0.
         25    1    4    4    0    0 -0.28505138082E+02  0.46184574988E+02  0.85783034970E+01  0.13662596113E+03  0.12509000000E+03 0.  0.
<mgrwt>
<rscale>  2 0.44796875E+03</rscale>
<asrwt>0</asrwt>
<pdfrwt beam="1">  1       21 0.50363993E-01 0.44796875E+03</pdfrwt>
<pdfrwt beam="2">  1       21 0.21542568E-01 0.44796875E+03</pdfrwt>
<totfact> 0.69872589E+04</totfact>
</mgrwt>
</event>
<event>
 7    0  0.4779893E-002  0.4467333E+03  0.7546771E-02  0.1028701E+00
         21   -1    0    0  502  501  0.00000000000E+00  0.00000000000E+00  0.54014941633E+03  0.54014941633E+03  0.00000000000E+00 0. -1.
         21   -1    0    0  501  502 -0.00000000000E+00 -0.00000000000E+00 -0.92368253739E+02  0.92368253739E+02  0.00000000000E+00 0. -1.
      99926    2    1    2    0    0 -0.71054273576E-14 -0.14210854715E-13  0.44778116259E+03  0.63251767007E+03  0.44673329110E+03 0.  0.
      99925    2    3    3    0    0 -0.55594559806E+02 -0.88100891835E+02  0.30504692629E+03  0.41601572427E+03  0.26298846625E+03 0.  0.
         25    1    4    4    0    0 -0.49243097396E+01 -0.13304635710E+02  0.16574327595E+03  0.20813362001E+03  0.12509000000E+03 0.  0.
         25    1    3    3    0    0  0.55594559806E+02  0.88100891835E+02  0.14273423630E+03  0.21650194580E+03  0.12509000000E+03 0.  0.
         25    1    4    4    0    0 -0.50670250067E+02 -0.74796256125E+02  0.13930365034E+03  0.20788210426E+03  0.12509000000E+03 0.  0.
<mgrwt>
<rscale>  2 0.44673329E+03</rscale>
<asrwt>0</asrwt>
<pdfrwt beam="1">  1       21 0.79433736E-01 0.44673329E+03</pdfrwt>
<pdfrwt beam="2">  1       21 0.13583567E-01 0.44673329E+03</pdfrwt>
<totfact> 0.60576917E+04</totfact>
</mgrwt>
</event>
<event>
 7    0  0.4779893E-002  0.4535608E+03  0.7546771E-02  0.1026665E+00
         21   -1    0    0  502  501  0.00000000000E+00  0.00000000000E+00  0.79222448051E+03  0.79222448051E+03  0.00000000000E+00 0. -1.
         21   -1    0    0  501  502 -0.00000000000E+00 -0.00000000000E+00 -0.64917652383E+02  0.64917652383E+02  0.00000000000E+00 0. -1.
      99926    2    1    2    0    0  0.00000000000E+00 -0.71054273576E-14  0.72730682813E+03  0.85714213290E+03  0.45356081592E+03 0.  0.
      99925    2    3    3    0    0  0.10318297709E+03 -0.42098819434E+02  0.47571881009E+03  0.55487887632E+03  0.26298886620E+03 0.  0.
         25    1    4    4    0    0  0.39786159619E+02 -0.59052449483E+02  0.25531642136E+03  0.29309403509E+03  0.12509000000E+03 0.  0.
         25    1    4    4    0    0  0.63396817475E+02  0.16953630049E+02  0.22040238873E+03  0.26178484123E+03  0.12509000000E+03 0.  0.
         25    1    3    3    0    0 -0.10318297709E+03  0.42098819434E+02  0.25158801804E+03  0.30226325658E+03  0.12509000000E+03 0.  0.
<mgrwt>
<rscale>  2 0.45356082E+03</rscale>
<asrwt>0</asrwt>
<pdfrwt beam="1">  1       21 0.11650359E+00 0.45356082E+03</pdfrwt>
<pdfrwt beam="2">  1       21 0.95467141E-02 0.45356082E+03</pdfrwt>
<totfact> 0.45634519E+04</totfact>
</mgrwt>
</event>
<event>
 7    0  0.4779893E-002  0.4522694E+03  0.7546771E-02  0.1027047E+00
         21   -1    0    0  502  501  0.00000000000E+00  0.00000000000E+00  0.59865608147E+03  0.59865608147E+03  0.00000000000E+00 0. -1.
         21   -1    0    0  501  502 -0.00000000000E+00 -0.00000000000E+00 -0.85419488895E+02  0.85419488895E+02  0.00000000000E+00 0. -1.
      99926    2    1    2    0    0  0.35527136788E-14 -0.71054273576E-14  0.51323659258E+03  0.68407557037E+03  0.45226937329E+03 0.  0.
      99925    2    3    3    0    0  0.23376808615E+02 -0.35021914030E+02  0.47846291345E+03  0.54758481426E+03  0.26296265821E+03 0.  0.
         25    1    4    4    0    0  0.34182485699E+01  0.11436799871E+02  0.17462680735E+03  0.21513836190E+03  0.12509000000E+03 0.  0.
         25    1    4    4    0    0  0.19958560045E+02 -0.46458713901E+02  0.30383610610E+03  0.33244645236E+03  0.12509000000E+03 0.  0.
         25    1    3    3    0    0 -0.23376808615E+02  0.35021914030E+02  0.34773679126E+02  0.13649075611E+03  0.12509000000E+03 0.  0.
<mgrwt>
<rscale>  2 0.45226937E+03</rscale>
<asrwt>0</asrwt>
<pdfrwt beam="1">  1       21 0.88037657E-01 0.45226937E+03</pdfrwt>
<pdfrwt beam="2">  1       21 0.12561690E-01 0.45226937E+03</pdfrwt>
<totfact> 0.54948193E+04</totfact>
</mgrwt>
</event>
<event>
 7    0  0.4779893E-002  0.4605190E+03  0.7546771E-02  0.1024631E+00
         21   -1    0    0  502  501  0.00000000000E+00  0.00000000000E+00  0.14673336559E+04  0.14673336559E+04  0.00000000000E+00 0. -1.
         21   -1    0    0  501  502 -0.00000000000E+00 -0.00000000000E+00 -0.36133183718E+02  0.36133183718E+02  0.00000000000E+00 0. -1.
      99926    2    1    2    0    0 -0.71054273576E-14  0.00000000000E+00  0.14312004721E+04  0.15034668396E+04  0.46051899663E+03 0.  0.
      99925    2    3    3    0    0 -0.56409477921E+02 -0.50468529814E+02  0.59760487859E+03  0.65714643725E+03  0.26264186144E+03 0.  0.
         25    1    4    4    0    0 -0.67065019288E+02 -0.25459231187E+02  0.34611702855E+03  0.37495385692E+03  0.12509000000E+03 0.  0.
         25    1    4    4    0    0  0.10655541367E+02 -0.25009298627E+02  0.25148785004E+03  0.28219258034E+03  0.12509000000E+03 0.  0.
         25    1    3    3    0    0  0.56409477921E+02  0.50468529814E+02  0.83359559356E+03  0.84632040233E+03  0.12509000000E+03 0.  0.
<mgrwt>
<rscale>  2 0.46051900E+03</rscale>
<asrwt>0</asrwt>
<pdfrwt beam="1">  1       21 0.21578432E+00 0.46051900E+03</pdfrwt>
<pdfrwt beam="2">  1       21 0.53137045E-02 0.46051900E+03</pdfrwt>
<totfact> 0.22705272E+04</totfact>
</mgrwt>
</event>
<event>
 7    0  0.4779893E-002  0.4579083E+03  0.7546771E-02  0.1025390E+00
         21   -1    0    0  502  501  0.00000000000E+00  0.00000000000E+00  0.82067371548E+03  0.82067371548E+03  0.00000000000E+00 0. -1.
         21   -1    0    0  501  502 -0.00000000000E+00 -0.00000000000E+00 -0.63874366111E+02  0.63874366111E+02  0.00000000000E+00 0. -1.
      99926    2    1    2    0    0  0.00000000000E+00  0.00000000000E+00  0.75679934937E+03  0.88454808160E+03  0.45790834612E+03 0.  0.
      99925    2    3    3    0    0 -0.16343489747E+02  0.12796691220E+02  0.25443860282E+03  0.36643159591E+03  0.26287306235E+03 0.  0.
         25    1    4    4    0    0 -0.15384951278E+02 -0.13024218776E+02  0.17485975933E+03  0.21593927511E+03  0.12509000000E+03 0.  0.
         25    1    3    3    0    0  0.16343489747E+02 -0.12796691220E+02  0.50236074655E+03  0.51811648569E+03  0.12509000000E+03 0.  0.
         25    1    4    4    0    0 -0.95853846923E+00  0.25820909995E+02  0.79578843489E+02  0.15049232080E+03  0.12509000000E+03 0.  0.
<mgrwt>
<rscale>  2 0.45790835E+03</rscale>
<asrwt>0</asrwt>
<pdfrwt beam="1">  1       21 0.12068730E+00 0.45790835E+03</pdfrwt>
<pdfrwt beam="2">  1       21 0.93932896E-02 0.45790835E+03</pdfrwt>
<totfact> 0.42922542E+04</totfact>
</mgrwt>
</event>
<event>
 7    0  0.4779893E-002  0.4529229E+03  0.7546771E-02  0.1026854E+00
         21   -1    0    0  502  501  0.00000000000E+00  0.00000000000E+00  0.17968590655E+03  0.17968590655E+03  0.00000000000E+00 0.  1.
         21   -1    0    0  501  502 -0.00000000000E+00 -0.00000000000E+00 -0.28541352359E+03  0.28541352359E+03  0.00000000000E+00 0.  1.
      99926    2    1    2    0    0  0.00000000000E+00 -0.71054273576E-14 -0.10572761704E+03  0.46509943014E+03  0.45292289732E+03 0.  0.
      99925    2    3    3    0    0  0.89282556761E+02  0.37823265294E+02 -0.12279181382E+03  0.30591190158E+03  0.26287313983E+03 0.  0.
         25    1    4    4    0    0  0.72277223768E+02 -0.76615239152E+01 -0.48815833450E+02  0.15268657348E+03  0.12509000000E+03 0.  0.
         25    1    3    3    0    0 -0.89282556761E+02 -0.37823265294E+02  0.17064196778E+02  0.15918752857E+03  0.12509000000E+03 0.  0.
         25    1    4    4    0    0  0.17005332993E+02  0.45484789209E+02 -0.73975980372E+02  0.15322532810E+03  0.12509000000E+03 0.  0.
<mgrwt>
<rscale>  2 0.45292290E+03</rscale>
<asrwt>0</asrwt>
<pdfrwt beam="1">  1       21 0.26424398E-01 0.45292290E+03</pdfrwt>
<pdfrwt beam="2">  1       21 0.41972576E-01 0.45292290E+03</pdfrwt>
<totfact> 0.68930907E+04</totfact>
</mgrwt>
</event>
<event>
 7    0  0.4779893E-002  0.4596093E+03  0.7546771E-02  0.1024895E+00
         21   -1    0    0  502  501  0.00000000000E+00  0.00000000000E+00  0.11348534327E+04  0.11348534327E+04  0.00000000000E+00 0.  1.
         21   -1    0    0  501  502 -0.00000000000E+00 -0.00000000000E+00 -0.46534807364E+02  0.46534807364E+02  0.00000000000E+00 0.  1.
      99926    2    1    2    0    0  0.00000000000E+00 -0.14210854715E-13  0.10883186253E+04  0.11813882401E+04  0.45960933793E+03 0.  0.
      99925    2    3    3    0    0  0.35227783060E+02  0.91101795661E+02  0.84891578206E+03  0.89415703818E+03  0.26328363035E+03 0.  0.
         25    1    4    4    0    0 -0.26065873254E+01  0.16729050467E+02  0.31159002605E+03  0.33618820303E+03  0.12509000000E+03 0.  0.
         25    1    3    3    0    0 -0.35227783060E+02 -0.91101795661E+02  0.23940284327E+03  0.28723120189E+03  0.12509000000E+03 0.  0.
         25    1    4    4    0    0  0.37834370386E+02  0.74372745194E+02  0.53732575602E+03  0.55796883514E+03  0.12509000000E+03 0.  0.
<mgrwt>
<rscale>  2 0.45960934E+03</rscale>
<asrwt>0</asrwt>
<pdfrwt beam="1">  1       21 0.16689019E+00 0.45960934E+03</pdfrwt>
<pdfrwt beam="2">  1       21 0.68433547E-02 0.45960934E+03</pdfrwt>
<totfact> 0.31601243E+04</totfact>
</mgrwt>
</event>
<event>
 7    0  0.4779893E-002  0.4607351E+03  0.7546771E-02  0.1024568E+00
         21   -1    0    0  502  501  0.00000000000E+00  0.00000000000E+00  0.10025514741E+04  0.10025514741E+04  0.00000000000E+00 0.  1.
         21   -1    0    0  501  502 -0.00000000000E+00 -0.00000000000E+00 -0.52934146664E+02  0.52934146664E+02  0.00000000000E+00 0.  1.
      99926    2    1    2    0    0  0.14210854715E-13  0.00000000000E+00  0.94961732743E+03  0.10554856208E+04  0.46073509425E+03 0.  0.
      99925    2    3    3    0    0 -0.11235520622E+03  0.32394873344E+02  0.63517421586E+03  0.69744218946E+03  0.26326071290E+03 0.  0.
         25    1    4    4    0    0 -0.99312764371E+02  0.28403231984E+02  0.35950964830E+03  0.39441661232E+03  0.12509000000E+03 0.  0.
         25    1    3    3    0    0  0.11235520622E+03 -0.32394873344E+02  0.31444311157E+03  0.35804343130E+03  0.12509000000E+03 0.  0.
         25    1    4    4    0    0 -0.13042441853E+02  0.39916413594E+01  0.27566456756E+03  0.30302557714E+03  0.12509000000E+03 0.  0.
<mgrwt>
<rscale>  2 0.46073509E+03</rscale>
<asrwt>0</asrwt>
<pdfrwt beam="1">  1       21 0.14743403E+00 0.46073509E+03</pdfrwt>
<pdfrwt beam="2">  1       21 0.77844340E-02 0.46073509E+03</pdfrwt>
<totfact> 0.35462594E+04</totfact>
</mgrwt>
</event>
<event>
 7    0  0.4779893E-002  0.4558194E+03  0.7546771E-02  0.1026001E+00
         21   -1    0    0  502  501  0.00000000000E+00  0.00000000000E+00  0.13341367327E+04  0.13341367327E+04  0.00000000000E+00 0. -1.
         21   -1    0    0  501  502 -0.00000000000E+00 -0.00000000000E+00 -0.38933666418E+02  0.38933666418E+02  0.00000000000E+00 0. -1.
      99926    2    1    2    0    0  0.11102230246E-15 -0.17763568394E-14  0.12952030663E+04  0.13730703991E+04  0.45581941384E+03 0.  0.
      99925    2    3    3    0    0 -0.68597946232E+00 -0.12031005639E+02  0.11557063570E+04  0.11853150912E+04  0.26300088602E+03 0.  0.
         25    1    4    4    0    0  0.11186456764E+02 -0.41176203603E+01  0.75219280102E+03  0.76261629252E+03  0.12509000000E+03 0.  0.
         25    1    3    3    0    0  0.68597946232E+00  0.12031005639E+02  0.13949670924E+03  0.18775530793E+03  0.12509000000E+03 0.  0.
         25    1    4    4    0    0 -0.11872436226E+02 -0.79133852782E+01  0.40351355602E+03  0.42269879868E+03  0.12509000000E+03 0.  0.
<mgrwt>
<rscale>  2 0.45581941E+03</rscale>
<asrwt>0</asrwt>
<pdfrwt beam="1">  1       21 0.19619655E+00 0.45581941E+03</pdfrwt>
<pdfrwt beam="2">  1       21 0.57255401E-02 0.45581941E+03</pdfrwt>
<totfact> 0.26886922E+04</totfact>
</mgrwt>
</event>
<event>
 7    0  0.4779893E-002  0.4300053E+03  0.7546771E-02  0.1033858E+00
         21   -1    0    0  502  501  0.00000000000E+00  0.00000000000E+00  0.29653924719E+03  0.29653924719E+03  0.00000000000E+00 0. -1.
         21   -1    0    0  501  502 -0.00000000000E+00 -0.00000000000E+00 -0.15588541650E+03  0.15588541650E+03  0.00000000000E+00 0. -1.
      99926    2    1    2    0    0  0.00000000000E+00  0.00000000000E+00  0.14065383070E+03  0.45242466369E+03  0.43000532116E+03 0.  0.
      99925    2    3    3    0    0  0.60548458399E+01  0.72306628745E+02  0.14318275658E+03  0.30779128827E+03  0.26262000235E+03 0.  0.
         25    1    4    4    0    0 -0.31355351289E+01  0.55035672610E+02  0.11367603741E+03  0.17778781291E+03  0.12509000000E+03 0.  0.
         25    1    3    3    0    0 -0.60548458399E+01 -0.72306628745E+02 -0.25289258850E+01  0.14463337542E+03  0.12509000000E+03 0.  0.
         25    1    4    4    0    0  0.91903809688E+01  0.17270956135E+02  0.29506719174E+02  0.13000347536E+03  0.12509000000E+03 0.  0.
<mgrwt>
<rscale>  2 0.43000532E+03</rscale>
<asrwt>0</asrwt>
<pdfrwt beam="1">  1       21 0.43608713E-01 0.43000532E+03</pdfrwt>
<pdfrwt beam="2">  1       21 0.22924326E-01 0.43000532E+03</pdfrwt>
<totfact> 0.84278456E+04</totfact>
</mgrwt>
</event>
<event>
 7    0  0.4779893E-002  0.4475784E+03  0.7546771E-02  0.1028447E+00
         21   -1    0    0  502  501  0.00000000000E+00  0.00000000000E+00  0.11091722034E+04  0.11091722034E+04  0.00000000000E+00 0. -1.
         21   -1    0    0  501  502 -0.00000000000E+00 -0.00000000000E+00 -0.45152243872E+02  0.45152243872E+02  0.00000000000E+00 0. -1.
      99926    2    1    2    0    0  0.00000000000E+00  0.00000000000E+00  0.10640199595E+04  0.11543244472E+04  0.44757843479E+03 0.  0.
      99925    2    3    3    0    0  0.23767672771E+02 -0.48229417022E+02  0.43837993410E+03  0.51404019130E+03  0.26300070857E+03 0.  0.
         25    1    4    4    0    0  0.34577278605E+02 -0.31839523142E+02  0.16175746661E+03  0.20981498882E+03  0.12509000000E+03 0.  0.
         25    1    3    3    0    0 -0.23767672771E+02  0.48229417022E+02  0.62564002538E+03  0.64028425593E+03  0.12509000000E+03 0.  0.
         25    1    4    4    0    0 -0.10809605834E+02 -0.16389893880E+02  0.27662246749E+03  0.30422520248E+03  0.12509000000E+03 0.  0.
<mgrwt>
<rscale>  2 0.44757843E+03</rscale>
<asrwt>0</asrwt>
<pdfrwt beam="1">  1       21 0.16311354E+00 0.44757843E+03</pdfrwt>
<pdfrwt beam="2">  1       21 0.66400366E-02 0.44757843E+03</pdfrwt>
<totfact> 0.35656419E+04</totfact>
</mgrwt>
</event>
<event>
 7    0  0.4779893E-002  0.4868468E+03  0.7546771E-02  0.1017270E+00
         21   -1    0    0  502  501  0.00000000000E+00  0.00000000000E+00  0.18360898024E+03  0.18360898024E+03  0.00000000000E+00 0.  1.
         21   -1    0    0  501  502 -0.00000000000E+00 -0.00000000000E+00 -0.32272365713E+03  0.32272365713E+03  0.00000000000E+00 0.  1.
      99926    2    1    2    0    0 -0.71054273576E-14  0.00000000000E+00 -0.13911467689E+03  0.50633263737E+03  0.48684684074E+03 0.  0.
      99925    2    3    3    0    0  0.29026712862E+02  0.37551714401E+02  0.52839488017E+02  0.27235274327E+03  0.26292836279E+03 0.  0.
         25    1    4    4    0    0 -0.53926560443E+01  0.36436397954E+02 -0.45581489781E+01  0.13047979406E+03  0.12509000000E+03 0.  0.
         25    1    3    3    0    0 -0.29026712862E+02 -0.37551714401E+02 -0.19195416491E+03  0.23397989410E+03  0.12509000000E+03 0.  0.
         25    1    4    4    0    0  0.34419368907E+02  0.11153164474E+01  0.57397636995E+02  0.14187294922E+03  0.12509000000E+03 0.  0.
<mgrwt>
<rscale>  2 0.48684684E+03</rscale>
<asrwt>0</asrwt>
<pdfrwt beam="1">  1       21 0.27001321E-01 0.48684684E+03</pdfrwt>
<pdfrwt beam="2">  1       21 0.47459360E-01 0.48684684E+03</pdfrwt>
<totfact> 0.50736717E+04</totfact>
</mgrwt>
</event>
<event>
 7    0  0.4779893E-002  0.4568488E+03  0.7546771E-02  0.1025699E+00
         21   -1    0    0  502  501  0.00000000000E+00  0.00000000000E+00  0.38474732040E+02  0.38474732040E+02  0.00000000000E+00 0. -1.
         21   -1    0    0  501  502 -0.00000000000E+00 -0.00000000000E+00 -0.13561550710E+04  0.13561550710E+04  0.00000000000E+00 0. -1.
      99926    2    1    2    0    0 -0.71054273576E-14 -0.71054273576E-14 -0.13176803390E+04  0.13946298031E+04  0.45684878444E+03 0.  0.
      99925    2    3    3    0    0  0.55806246063E+02  0.61833709616E+02 -0.10693804445E+04  0.11043918137E+04  0.26299999703E+03 0.  0.
         25    1    4    4    0    0  0.58681304091E+02  0.22960282855E+02 -0.44954480853E+03  0.47085954701E+03  0.12509000000E+03 0.  0.
         25    1    3    3    0    0 -0.55806246063E+02 -0.61833709616E+02 -0.24829989449E+03  0.29023798933E+03  0.12509000000E+03 0.  0.
         25    1    4    4    0    0 -0.28750580282E+01  0.38873426762E+02 -0.61983563596E+03  0.63353226672E+03  0.12509000000E+03 0.  0.
<mgrwt>
<rscale>  2 0.45684878E+03</rscale>
<asrwt>0</asrwt>
<pdfrwt beam="1">  1       21 0.56580502E-02 0.45684878E+03</pdfrwt>
<pdfrwt beam="2">  1       21 0.19943452E+00 0.45684878E+03</pdfrwt>
<totfact> 0.26098474E+04</totfact>
</mgrwt>
</event>
<event>
 7    0  0.4779893E-002  0.4484647E+03  0.7546771E-02  0.1028181E+00
         21   -1    0    0  502  501  0.00000000000E+00  0.00000000000E+00  0.31590676840E+03  0.31590676840E+03  0.00000000000E+00 0. -1.
         21   -1    0    0  501  502 -0.00000000000E+00 -0.00000000000E+00 -0.15916137591E+03  0.15916137591E+03  0.00000000000E+00 0. -1.
      99926    2    1    2    0    0 -0.35527136788E-14  0.00000000000E+00  0.15674539249E+03  0.47506814431E+03  0.44846474072E+03 0.  0.
      99925    2    3    3    0    0 -0.19856585781E+02  0.99388273176E+02  0.63964751009E+02  0.28925084593E+03  0.26325320445E+03 0.  0.
         25    1    4    4    0    0  0.10900871472E+02  0.11381615046E+02  0.28031395106E+02  0.12915741315E+03  0.12509000000E+03 0.  0.
         25    1    3    3    0    0  0.19856585781E+02 -0.99388273176E+02  0.92780641485E+02  0.18581729838E+03  0.12509000000E+03 0.  0.
         25    1    4    4    0    0 -0.30757457252E+02  0.88006658130E+02  0.35933355903E+02  0.16009343278E+03  0.12509000000E+03 0.  0.
<mgrwt>
<rscale>  2 0.44846474E+03</rscale>
<asrwt>0</asrwt>
<pdfrwt beam="1">  1       21 0.46456878E-01 0.44846474E+03</pdfrwt>
<pdfrwt beam="2">  1       21 0.23406085E-01 0.44846474E+03</pdfrwt>
<totfact> 0.70655341E+04</totfact>
</mgrwt>
</event>
<event>
 7    0  0.4779893E-002  0.4317042E+03  0.7546771E-02  0.1033323E+00
         21   -1    0    0  502  501  0.00000000000E+00  0.00000000000E+00  0.42872850375E+03  0.42872850375E+03  0.00000000000E+00 0. -1.
         21   -1    0    0  501  502 -0.00000000000E+00 -0.00000000000E+00 -0.10867514896E+03  0.10867514896E+03  0.00000000000E+00 0. -1.
      99926    2    1    2    0    0 -0.44408920985E-15  0.00000000000E+00  0.32005335479E+03  0.53740365271E+03  0.43170422286E+03 0.  0.
      99925    2    3    3    0    0  0.23534823952E+01  0.20774767977E+02  0.31439966913E+03  0.41045247262E+03  0.26303412416E+03 0.  0.
         25    1    3    3    0    0 -0.23534823952E+01 -0.20774767977E+02  0.56536856666E+01  0.12695118009E+03  0.12509000000E+03 0.  0.
         25    1    4    4    0    0 -0.29043520812E+02  0.37458184738E+02  0.15542093284E+03  0.20506051831E+03  0.12509000000E+03 0.  0.
         25    1    4    4    0    0  0.31397003207E+02 -0.16683416762E+02  0.15897873629E+03  0.20539195431E+03  0.12509000000E+03 0.  0.
<mgrwt>
<rscale>  2 0.43170422E+03</rscale>
<asrwt>0</asrwt>
<pdfrwt beam="1">  1       21 0.63048309E-01 0.43170422E+03</pdfrwt>
<pdfrwt beam="2">  1       21 0.15981640E-01 0.43170422E+03</pdfrwt>
<totfact> 0.75733287E+04</totfact>
</mgrwt>
</event>
<event>
 7    0  0.4779893E-002  0.4584229E+03  0.7546771E-02  0.1025240E+00
         21   -1    0    0  502  501  0.00000000000E+00  0.00000000000E+00  0.70397199467E+02  0.70397199467E+02  0.00000000000E+00 0.  1.
         21   -1    0    0  501  502 -0.00000000000E+00 -0.00000000000E+00 -0.74630635706E+03  0.74630635706E+03  0.00000000000E+00 0.  1.
      99926    2    1    2    0    0  0.00000000000E+00  0.35527136788E-14 -0.67590915760E+03  0.81670355653E+03  0.45842285057E+03 0.  0.
      99925    2    3    3    0    0  0.58983332746E+02 -0.11089717511E+02 -0.60159630003E+03  0.65931256481E+03  0.26300747997E+03 0.  0.
         25    1    4    4    0    0  0.72064720931E+00  0.94796815285E+01 -0.34721830538E+03  0.36918619067E+03  0.12509000000E+03 0.  0.
         25    1    3    3    0    0 -0.58983332746E+02  0.11089717511E+02 -0.74312857563E+02  0.15739099172E+03  0.12509000000E+03 0.  0.
         25    1    4    4    0    0  0.58262685537E+02 -0.20569399039E+02 -0.25437799466E+03  0.29012637413E+03  0.12509000000E+03 0.  0.
<mgrwt>
<rscale>  2 0.45842285E+03</rscale>
<asrwt>0</asrwt>
<pdfrwt beam="1">  1       21 0.10352530E-01 0.45842285E+03</pdfrwt>
<pdfrwt beam="2">  1       21 0.10975093E+00 0.45842285E+03</pdfrwt>
<totfact> 0.45726886E+04</totfact>
</mgrwt>
</event>
<event>
 7    0  0.4779893E-002  0.4983313E+03  0.7546771E-02  0.1014215E+00
         21   -1    0    0  502  501  0.00000000000E+00  0.00000000000E+00  0.26252353572E+03  0.26252353572E+03  0.00000000000E+00 0.  1.
         21   -1    0    0  501  502 -0.00000000000E+00 -0.00000000000E+00 -0.23648746787E+03  0.23648746787E+03  0.00000000000E+00 0.  1.
      99926    2    1    2    0    0  0.26645352591E-14  0.00000000000E+00  0.26036067855E+02  0.49901100359E+03  0.49833132039E+03 0.  0.
      99925    2    3    3    0    0 -0.70685889820E+01  0.81063626190E+02 -0.11059463430E+03  0.29668272254E+03  0.26299845680E+03 0.  0.
         25    1    3    3    0    0  0.70685889820E+01 -0.81063626190E+02  0.13663070216E+03  0.20232828105E+03  0.12509000000E+03 0.  0.
         25    1    4    4    0    0  0.25047794535E+02  0.66574910794E+02 -0.73226324395E+02  0.16145963410E+03  0.12509000000E+03 0.  0.
         25    1    4    4    0    0 -0.32116383517E+02  0.14488715396E+02 -0.37368309906E+02  0.13522308845E+03  0.12509000000E+03 0.  0.
<mgrwt>
<rscale>  2 0.49833132E+03</rscale>
<asrwt>0</asrwt>
<pdfrwt beam="1">  1       21 0.38606402E-01 0.49833132E+03</pdfrwt>
<pdfrwt beam="2">  1       21 0.34777569E-01 0.49833132E+03</pdfrwt>
<totfact> 0.46971372E+04</totfact>
</mgrwt>
</event>
<event>
 7    0  0.4779893E-002  0.4568556E+03  0.7546771E-02  0.1025697E+00
         21   -1    0    0  502  501  0.00000000000E+00  0.00000000000E+00  0.22979946635E+03  0.22979946635E+03  0.00000000000E+00 0. -1.
         21   -1    0    0  501  502 -0.00000000000E+00 -0.00000000000E+00 -0.22706429448E+03  0.22706429448E+03  0.00000000000E+00 0. -1.
      99926    2    1    2    0    0  0.00000000000E+00  0.00000000000E+00  0.27351718666E+01  0.45686376083E+03  0.45685557324E+03 0.  0.
      99925    2    3    3    0    0  0.69388213603E+02 -0.81698309895E+02 -0.39841147986E+02  0.28671797294E+03  0.26292687369E+03 0.  0.
         25    1    3    3    0    0 -0.69388213603E+02  0.81698309895E+02  0.42576319852E+02  0.17014578790E+03  0.12509000000E+03 0.  0.
         25    1    4    4    0    0  0.80199331065E+01 -0.52263597529E+02  0.91621257968E+01  0.13611486180E+03  0.12509000000E+03 0.  0.
         25    1    4    4    0    0  0.61368280497E+02 -0.29434712365E+02 -0.49003273782E+02  0.15060311114E+03  0.12509000000E+03 0.  0.
<mgrwt>
<rscale>  2 0.45685557E+03</rscale>
<asrwt>0</asrwt>
<pdfrwt beam="1">  1       21 0.33794039E-01 0.45685557E+03</pdfrwt>
<pdfrwt beam="2">  1       21 0.33391808E-01 0.45685557E+03</pdfrwt>
<totfact> 0.67405944E+04</totfact>
</mgrwt>
</event>
<event>
 7    0  0.4779893E-002  0.4642154E+03  0.7546771E-02  0.1023566E+00
         21   -1    0    0  502  501  0.00000000000E+00  0.00000000000E+00  0.92053869657E+02  0.92053869657E+02  0.00000000000E+00 0. -1.
         21   -1    0    0  501  502 -0.00000000000E+00 -0.00000000000E+00 -0.58524410544E+03  0.58524410544E+03  0.00000000000E+00 0. -1.
      99926    2    1    2    0    0  0.14210854715E-13  0.00000000000E+00 -0.49319023578E+03  0.67729797509E+03  0.46421540086E+03 0.  0.
      99925    2    3    3    0    0  0.11022344873E+03 -0.49600284125E+02 -0.32723541756E+03  0.43688602317E+03  0.26301517429E+03 0.  0.
         25    1    4    4    0    0  0.13766630670E+02 -0.35414132735E+02 -0.14137079189E+03  0.19255360245E+03  0.12509000000E+03 0.  0.
         25    1    3    3    0    0 -0.11022344873E+03  0.49600284125E+02 -0.16595481822E+03  0.24041195192E+03  0.12509000000E+03 0.  0.
         25    1    4    4    0    0  0.96456818059E+02 -0.14186151390E+02 -0.18586462567E+03  0.24433242072E+03  0.12509000000E+03 0.  0.
<mgrwt>
<rscale>  2 0.46421540E+03</rscale>
<asrwt>0</asrwt>
<pdfrwt beam="1">  1       21 0.13537334E-01 0.46421540E+03</pdfrwt>
<pdfrwt beam="2">  1       21 0.86065307E-01 0.46421540E+03</pdfrwt>
<totfact> 0.50392344E+04</totfact>
</mgrwt>
</event>
<event>
 7    0  0.4779893E-002  0.4542196E+03  0.7546771E-02  0.1026471E+00
         21   -1    0    0  502  501  0.00000000000E+00  0.00000000000E+00  0.65721765359E+02  0.65721765359E+02  0.00000000000E+00 0. -1.
         21   -1    0    0  501  502 -0.00000000000E+00 -0.00000000000E+00 -0.78480650461E+03  0.78480650461E+03  0.00000000000E+00 0. -1.
      99926    2    1    2    0    0  0.00000000000E+00  0.00000000000E+00 -0.71908473926E+03  0.85052826997E+03  0.45421963387E+03 0.  0.
      99925    2    3    3    0    0  0.28720205245E+02  0.16276815648E+02 -0.65412529898E+03  0.70576286700E+03  0.26292875985E+03 0.  0.
         25    1    3    3    0    0 -0.28720205245E+02 -0.16276815648E+02 -0.64959440278E+02  0.14476540297E+03  0.12509000000E+03 0.  0.
         25    1    4    4    0    0  0.48522200857E+02  0.17061692116E+01 -0.39095929676E+03  0.41334488603E+03  0.12509000000E+03 0.  0.
         25    1    4    4    0    0 -0.19801995611E+02  0.14570646437E+02 -0.26316600222E+03  0.29241798097E+03  0.12509000000E+03 0.  0.
<mgrwt>
<rscale>  2 0.45421963E+03</rscale>
<asrwt>0</asrwt>
<pdfrwt beam="1">  1       21 0.96649662E-02 0.45421963E+03</pdfrwt>
<pdfrwt beam="2">  1       21 0.11541271E+00 0.45421963E+03</pdfrwt>
<totfact> 0.45694839E+04</totfact>
</mgrwt>
</event>
<event>
 7    0  0.4779893E-002  0.4544377E+03  0.7546771E-02  0.1026407E+00
         21   -1    0    0  502  501  0.00000000000E+00  0.00000000000E+00  0.11284206137E+03  0.11284206137E+03  0.00000000000E+00 0. -1.
         21   -1    0    0  501  502 -0.00000000000E+00 -0.00000000000E+00 -0.45752803710E+03  0.45752803710E+03  0.00000000000E+00 0. -1.
      99926    2    1    2    0    0 -0.71054273576E-14  0.14210854715E-13 -0.34468597573E+03  0.57037009846E+03  0.45443770459E+03 0.  0.
      99925    2    3    3    0    0  0.57934265057E+02 -0.94147540707E+02 -0.24364708118E+03  0.37523807956E+03  0.26309613774E+03 0.  0.
         25    1    4    4    0    0  0.69965159816E+01 -0.13470420443E+02 -0.13083310556E+03  0.18164584519E+03  0.12509000000E+03 0.  0.
         25    1    4    4    0    0  0.50937749075E+02 -0.80677120264E+02 -0.11281397561E+03  0.19359223437E+03  0.12509000000E+03 0.  0.
         25    1    3    3    0    0 -0.57934265057E+02  0.94147540707E+02 -0.10103889455E+03  0.19513201890E+03  0.12509000000E+03 0.  0.
<mgrwt>
<rscale>  2 0.45443770E+03</rscale>
<asrwt>0</asrwt>
<pdfrwt beam="1">  1       21 0.16594421E-01 0.45443770E+03</pdfrwt>
<pdfrwt beam="2">  1       21 0.67283536E-01 0.45443770E+03</pdfrwt>
<totfact> 0.60810109E+04</totfact>
</mgrwt>
</event>
<event>
 7    0  0.4779893E-002  0.4509653E+03  0.7546771E-02  0.1027435E+00
         21   -1    0    0  502  501  0.00000000000E+00  0.00000000000E+00  0.22471079299E+03  0.22471079299E+03  0.00000000000E+00 0.  1.
         21   -1    0    0  501  502 -0.00000000000E+00 -0.00000000000E+00 -0.22625717259E+03  0.22625717259E+03  0.00000000000E+00 0.  1.
      99926    2    1    2    0    0  0.00000000000E+00  0.00000000000E+00 -0.15463796055E+01  0.45096796558E+03  0.45096531428E+03 0.  0.
      99925    2    3    3    0    0 -0.56855839274E+02 -0.94099979781E+02  0.78240742473E+01  0.28416656822E+03  0.26191989177E+03 0.  0.
         25    1    4    4    0    0 -0.51666849183E+01 -0.76023931647E+02  0.16170995121E+02  0.14736126356E+03  0.12509000000E+03 0.  0.
         25    1    3    3    0    0  0.56855839274E+02  0.94099979781E+02 -0.93704538528E+01  0.16680139736E+03  0.12509000000E+03 0.  0.
         25    1    4    4    0    0 -0.51689154356E+02 -0.18076048134E+02 -0.83469208734E+01  0.13680530466E+03  0.12509000000E+03 0.  0.
<mgrwt>
<rscale>  2 0.45096531E+03</rscale>
<asrwt>0</asrwt>
<pdfrwt beam="1">  1       21 0.33045705E-01 0.45096531E+03</pdfrwt>
<pdfrwt beam="2">  1       21 0.33273114E-01 0.45096531E+03</pdfrwt>
<totfact> 0.71103782E+04</totfact>
</mgrwt>
</event>
<event>
 7    0  0.4779893E-002  0.4506472E+03  0.7546771E-02  0.1027529E+00
         21   -1    0    0  502  501  0.00000000000E+00  0.00000000000E+00  0.12914183483E+04  0.12914183483E+04  0.00000000000E+00 0. -1.
         21   -1    0    0  501  502 -0.00000000000E+00 -0.00000000000E+00 -0.39313922603E+02  0.39313922603E+02  0.00000000000E+00 0. -1.
      99926    2    1    2    0    0  0.00000000000E+00  0.00000000000E+00  0.12521044257E+04  0.13307322709E+04  0.45064718348E+03 0.  0.
      99925    2    3    3    0    0 -0.46091218736E+02 -0.42112435767E+02  0.10544050431E+04  0.10885950956E+04  0.26338456586E+03 0.  0.
         25    1    3    3    0    0  0.46091218736E+02  0.42112435767E+02  0.19769938260E+03  0.24213717532E+03  0.12509000000E+03 0.  0.
         25    1    4    4    0    0 -0.11255181507E+02 -0.15150071608E+02  0.35849374630E+03  0.38015980589E+03  0.12509000000E+03 0.  0.
         25    1    4    4    0    0 -0.34836037229E+02 -0.26962364159E+02  0.69591129682E+03  0.70843528971E+03  0.12509000000E+03 0.  0.
<mgrwt>
<rscale>  2 0.45064718E+03</rscale>
<asrwt>0</asrwt>
<pdfrwt beam="1">  1       21 0.18991444E+00 0.45064718E+03</pdfrwt>
<pdfrwt beam="2">  1       21 0.57814601E-02 0.45064718E+03</pdfrwt>
<totfact> 0.29211339E+04</totfact>
</mgrwt>
</event>
<event>
 7    0  0.4779893E-002  0.4496098E+03  0.7546771E-02  0.1027838E+00
         21   -1    0    0  502  501  0.00000000000E+00  0.00000000000E+00  0.58313286495E+02  0.58313286495E+02  0.00000000000E+00 0. -1.
         21   -1    0    0  501  502 -0.00000000000E+00 -0.00000000000E+00 -0.86665040916E+03  0.86665040916E+03  0.00000000000E+00 0. -1.
      99926    2    1    2    0    0 -0.71054273576E-14  0.00000000000E+00 -0.80833712267E+03  0.92496369566E+03  0.44960975790E+03 0.  0.
      99925    2    3    3    0    0 -0.34308193473E+02 -0.74451925097E+02 -0.65603947610E+03  0.71151060353E+03  0.26294372676E+03 0.  0.
         25    1    4    4    0    0 -0.24281733673E+02 -0.64333914767E+02 -0.26926712545E+03  0.30476342977E+03  0.12509000000E+03 0.  0.
         25    1    4    4    0    0 -0.10026459801E+02 -0.10118010330E+02 -0.38677235065E+03  0.40674717376E+03  0.12509000000E+03 0.  0.
         25    1    3    3    0    0  0.34308193473E+02  0.74451925097E+02 -0.15229764657E+03  0.21345309213E+03  0.12509000000E+03 0.  0.
<mgrwt>
<rscale>  2 0.44960976E+03</rscale>
<asrwt>0</asrwt>
<pdfrwt beam="1">  1       21 0.85754847E-02 0.44960976E+03</pdfrwt>
<pdfrwt beam="2">  1       21 0.12744857E+00 0.44960976E+03</pdfrwt>
<totfact> 0.43997567E+04</totfact>
</mgrwt>
</event>
<event>
 7    0  0.4779893E-002  0.4543471E+03  0.7546771E-02  0.1026434E+00
         21   -1    0    0  502  501  0.00000000000E+00  0.00000000000E+00  0.14662770395E+03  0.14662770395E+03  0.00000000000E+00 0.  1.
         21   -1    0    0  501  502 -0.00000000000E+00 -0.00000000000E+00 -0.35196495983E+03  0.35196495983E+03  0.00000000000E+00 0.  1.
      99926    2    1    2    0    0 -0.88817841970E-15  0.00000000000E+00 -0.20533725588E+03  0.49859266378E+03  0.45434706527E+03 0.  0.
      99925    2    3    3    0    0 -0.34653227774E+01  0.11246475624E+03 -0.13099853218E+03  0.31465222831E+03  0.26303056759E+03 0.  0.
         25    1    3    3    0    0  0.34653227774E+01 -0.11246475624E+03 -0.74338723701E+02  0.18394043547E+03  0.12509000000E+03 0.  0.
         25    1    4    4    0    0  0.11834006477E+02  0.81387151213E+02 -0.10342995229E+03  0.18195926803E+03  0.12509000000E+03 0.  0.
         25    1    4    4    0    0 -0.15299329254E+02  0.31077605027E+02 -0.27568579888E+02  0.13269296028E+03  0.12509000000E+03 0.  0.
<mgrwt>
<rscale>  2 0.45434707E+03</rscale>
<asrwt>0</asrwt>
<pdfrwt beam="1">  1       21 0.21562898E-01 0.45434707E+03</pdfrwt>
<pdfrwt beam="2">  1       21 0.51759552E-01 0.45434707E+03</pdfrwt>
<totfact> 0.65709563E+04</totfact>
</mgrwt>
</event>
<event>
 7    0  0.4779893E-002  0.4822689E+03  0.7546771E-02  0.1018513E+00
         21   -1    0    0  502  501  0.00000000000E+00  0.00000000000E+00  0.47864346476E+02  0.47864346476E+02  0.00000000000E+00 0.  1.
         21   -1    0    0  501  502 -0.00000000000E+00 -0.00000000000E+00 -0.12148044198E+04  0.12148044198E+04  0.00000000000E+00 0.  1.
      99926    2    1    2    0    0  0.00000000000E+00  0.00000000000E+00 -0.11669400733E+04  0.12626687663E+04  0.48226888620E+03 0.  0.
      99925    2    3    3    0    0  0.43771328580E+02  0.11180472419E+03 -0.54435854496E+03  0.61639367538E+03  0.26305648066E+03 0.  0.
         25    1    4    4    0    0  0.60510386848E+02  0.72271189564E+02 -0.30868484216E+03  0.34614804872E+03  0.12509000000E+03 0.  0.
         25    1    3    3    0    0 -0.43771328580E+02 -0.11180472419E+03 -0.62258152836E+03  0.64627509089E+03  0.12509000000E+03 0.  0.
         25    1    4    4    0    0 -0.16739058268E+02  0.39533534629E+02 -0.23567370280E+03  0.27024562665E+03  0.12509000000E+03 0.  0.
<mgrwt>
<rscale>  2 0.48226889E+03</rscale>
<asrwt>0</asrwt>
<pdfrwt beam="1">  1       21 0.70388749E-02 0.48226889E+03</pdfrwt>
<pdfrwt beam="2">  1       21 0.17864770E+00 0.48226889E+03</pdfrwt>
<totfact> 0.24573422E+04</totfact>
</mgrwt>
</event>
<event>
 7    0  0.4779893E-002  0.4552892E+03  0.7546771E-02  0.1026156E+00
         21   -1    0    0  502  501  0.00000000000E+00  0.00000000000E+00  0.27783574891E+03  0.27783574891E+03  0.00000000000E+00 0. -1.
         21   -1    0    0  501  502 -0.00000000000E+00 -0.00000000000E+00 -0.18652054120E+03  0.18652054120E+03  0.00000000000E+00 0. -1.
      99926    2    1    2    0    0  0.00000000000E+00  0.00000000000E+00  0.91315207713E+02  0.46435629011E+03  0.45528924543E+03 0.  0.
      99925    2    3    3    0    0  0.40758956847E+02  0.10187975761E+03  0.28520089196E+02  0.28650378778E+03  0.26311641407E+03 0.  0.
         25    1    4    4    0    0 -0.74075537017E+01  0.65610318120E+02 -0.11710308955E+02  0.14193035310E+03  0.12509000000E+03 0.  0.
         25    1    4    4    0    0  0.48166510549E+02  0.36269439492E+02  0.40230398151E+02  0.14457343468E+03  0.12509000000E+03 0.  0.
         25    1    3    3    0    0 -0.40758956847E+02 -0.10187975761E+03  0.62795118517E+02  0.17785250233E+03  0.12509000000E+03 0.  0.
<mgrwt>
<rscale>  2 0.45528925E+03</rscale>
<asrwt>0</asrwt>
<pdfrwt beam="1">  1       21 0.40858198E-01 0.45528925E+03</pdfrwt>
<pdfrwt beam="2">  1       21 0.27429491E-01 0.45528925E+03</pdfrwt>
<totfact> 0.67702250E+04</totfact>
</mgrwt>
</event>
<event>
 7    0  0.4779893E-002  0.4087994E+03  0.7546771E-02  0.1040775E+00
         21   -1    0    0  502  501  0.00000000000E+00  0.00000000000E+00  0.15113294331E+02  0.15113294331E+02  0.00000000000E+00 0. -1.
         21   -1    0    0  501  502 -0.00000000000E+00 -0.00000000000E+00 -0.27644030004E+04  0.27644030004E+04  0.00000000000E+00 0. -1.
      99926    2    1    2    0    0  0.00000000000E+00  0.00000000000E+00 -0.27492897061E+04  0.27795162948E+04  0.40879939431E+03 0.  0.
      99925    2    3    3    0    0  0.38553610887E+02  0.24483739344E+02 -0.20835398297E+04  0.21005787126E+04  0.26307198940E+03 0.  0.
         25    1    4    4    0    0  0.21729088733E+02 -0.28321042220E+02 -0.10451252194E+04  0.10531896634E+04  0.12509000000E+03 0.  0.
         25    1    3    3    0    0 -0.38553610887E+02 -0.24483739344E+02 -0.66574987642E+03  0.67893758216E+03  0.12509000000E+03 0.  0.
         25    1    4    4    0    0  0.16824522154E+02  0.52804781564E+02 -0.10384146102E+04  0.10473890492E+04  0.12509000000E+03 0.  0.
<mgrwt>
<rscale>  2 0.40879939E+03</rscale>
<asrwt>0</asrwt>
<pdfrwt beam="1">  1       21 0.22225424E-02 0.40879939E+03</pdfrwt>
<pdfrwt beam="2">  1       21 0.40653001E+00 0.40879939E+03</pdfrwt>
<totfact> 0.68126441E+03</totfact>
</mgrwt>
</event>
<event>
 7    0  0.4779893E-002  0.4581762E+03  0.7546771E-02  0.1025311E+00
         21   -1    0    0  502  501  0.00000000000E+00  0.00000000000E+00  0.16565269189E+04  0.16565269189E+04  0.00000000000E+00 0.  1.
         21   -1    0    0  501  502 -0.00000000000E+00 -0.00000000000E+00 -0.31681562709E+02  0.31681562709E+02  0.00000000000E+00 0.  1.
      99926    2    1    2    0    0 -0.17763568394E-14  0.00000000000E+00  0.16248453562E+04  0.16882084816E+04  0.45817621701E+03 0.  0.
      99925    2    3    3    0    0 -0.13878042324E+02  0.34009472621E+02  0.61401138233E+03  0.66900189063E+03  0.26306711643E+03 0.  0.
         25    1    4    4    0    0 -0.30167332475E+02  0.39002711676E+02  0.38035453627E+03  0.40342082350E+03  0.12509000000E+03 0.  0.
         25    1    4    4    0    0  0.16289290151E+02 -0.49932390554E+01  0.23365684606E+03  0.26558106714E+03  0.12509000000E+03 0.  0.
         25    1    3    3    0    0  0.13878042324E+02 -0.34009472621E+02  0.10108339738E+04  0.10192065909E+04  0.12509000000E+03 0.  0.
<mgrwt>
<rscale>  2 0.45817622E+03</rscale>
<asrwt>0</asrwt>
<pdfrwt beam="1">  1       21 0.24360684E+00 0.45817622E+03</pdfrwt>
<pdfrwt beam="2">  1       21 0.46590545E-02 0.45817622E+03</pdfrwt>
<totfact> 0.19034293E+04</totfact>
</mgrwt>
</event>
<event>
 7    0  0.4779893E-002  0.4560399E+03  0.7546771E-02  0.1025936E+00
         21   -1    0    0  502  501  0.00000000000E+00  0.00000000000E+00  0.41975183621E+03  0.41975183621E+03  0.00000000000E+00 0.  1.
         21   -1    0    0  501  502 -0.00000000000E+00 -0.00000000000E+00 -0.12386629450E+03  0.12386629450E+03  0.00000000000E+00 0.  1.
      99926    2    1    2    0    0  0.00000000000E+00  0.22204460493E-14  0.29588554171E+03  0.54361813071E+03  0.45603993054E+03 0.  0.
      99925    2    3    3    0    0 -0.76938231298E+02 -0.37294929292E+01  0.28640371785E+03  0.39640803039E+03  0.26301869973E+03 0.  0.
         25    1    4    4    0    0 -0.33568736250E+02 -0.26162866730E+02  0.18861721379E+03  0.23029397970E+03  0.12509000000E+03 0.  0.
         25    1    4    4    0    0 -0.43369495048E+02  0.22433373801E+02  0.97786504059E+02  0.16611405069E+03  0.12509000000E+03 0.  0.
         25    1    3    3    0    0  0.76938231298E+02  0.37294929292E+01  0.94818238630E+01  0.14721010032E+03  0.12509000000E+03 0.  0.
<mgrwt>
<rscale>  2 0.45603993E+03</rscale>
<asrwt>0</asrwt>
<pdfrwt beam="1">  1       21 0.61728211E-01 0.45603993E+03</pdfrwt>
<pdfrwt beam="2">  1       21 0.18215632E-01 0.45603993E+03</pdfrwt>
<totfact> 0.61780239E+04</totfact>
</mgrwt>
</event>
<event>
 7    0  0.4779893E-002  0.4551364E+03  0.7546771E-02  0.1026201E+00
         21   -1    0    0  502  501  0.00000000000E+00  0.00000000000E+00  0.16346699418E+03  0.16346699418E+03  0.00000000000E+00 0. -1.
         21   -1    0    0  501  502 -0.00000000000E+00 -0.00000000000E+00 -0.31680569285E+03  0.31680569285E+03  0.00000000000E+00 0. -1.
      99926    2    1    2    0    0 -0.17763568394E-14  0.00000000000E+00 -0.15333869867E+03  0.48027268704E+03  0.45513635035E+03 0.  0.
      99925    2    3    3    0    0  0.93996919768E+01  0.96583300325E+02 -0.34835586675E+02  0.28251732361E+03  0.26303199792E+03 0.  0.
         25    1    4    4    0    0 -0.27000085982E+02  0.24567273173E+02 -0.32668432190E+01  0.13034851713E+03  0.12509000000E+03 0.  0.
         25    1    3    3    0    0 -0.93996919768E+01 -0.96583300325E+02 -0.11850311199E+03  0.19775536342E+03  0.12509000000E+03 0.  0.
         25    1    4    4    0    0  0.36399777959E+02  0.72016027152E+02 -0.31568743456E+02  0.15216880648E+03  0.12509000000E+03 0.  0.
<mgrwt>
<rscale>  2 0.45513635E+03</rscale>
<asrwt>0</asrwt>
<pdfrwt beam="1">  1       21 0.24039264E-01 0.45513635E+03</pdfrwt>
<pdfrwt beam="2">  1       21 0.46589072E-01 0.45513635E+03</pdfrwt>
<totfact> 0.66608135E+04</totfact>
</mgrwt>
</event>
<event>
 7    0  0.4779893E-002  0.4541994E+03  0.7546771E-02  0.1026477E+00
         21   -1    0    0  502  501  0.00000000000E+00  0.00000000000E+00  0.63958198896E+03  0.63958198896E+03  0.00000000000E+00 0. -1.
         21   -1    0    0  501  502 -0.00000000000E+00 -0.00000000000E+00 -0.80637454789E+02  0.80637454789E+02  0.00000000000E+00 0. -1.
      99926    2    1    2    0    0  0.17763568394E-14  0.00000000000E+00  0.55894453417E+03  0.72021944375E+03  0.45419935587E+03 0.  0.
      99925    2    3    3    0    0  0.15081290561E+02  0.26028704106E+02  0.52371847157E+03  0.58682783101E+03  0.26302267398E+03 0.  0.
         25    1    3    3    0    0 -0.15081290561E+02 -0.26028704106E+02  0.35226062608E+02  0.13339161274E+03  0.12509000000E+03 0.  0.
         25    1    4    4    0    0 -0.26604449365E+02  0.11813297222E+02  0.20897875925E+03  0.24528958526E+03  0.12509000000E+03 0.  0.
         25    1    4    4    0    0  0.41685739926E+02  0.14215406884E+02  0.31473971231E+03  0.34153824575E+03  0.12509000000E+03 0.  0.
<mgrwt>
<rscale>  2 0.45419936E+03</rscale>
<asrwt>0</asrwt>
<pdfrwt beam="1">  1       21 0.94056172E-01 0.45419936E+03</pdfrwt>
<pdfrwt beam="2">  1       21 0.11858450E-01 0.45419936E+03</pdfrwt>
<totfact> 0.52146542E+04</totfact>
</mgrwt>
</event>
<event>
 7    0  0.4779893E-002  0.4573428E+03  0.7546771E-02  0.1025555E+00
         21   -1    0    0  502  501  0.00000000000E+00  0.00000000000E+00  0.26301594224E+03  0.26301594224E+03  0.00000000000E+00 0. -1.
         21   -1    0    0  501  502 -0.00000000000E+00 -0.00000000000E+00 -0.19881151509E+03  0.19881151509E+03  0.00000000000E+00 0. -1.
      99926    2    1    2    0    0  0.00000000000E+00  0.00000000000E+00  0.64204427153E+02  0.46182745734E+03  0.45734275099E+03 0.  0.
      99925    2    3    3    0    0  0.24500650901E+02  0.17128114280E+02  0.15299395689E+03  0.30554328384E+03  0.26278488021E+03 0.  0.
         25    1    4    4    0    0 -0.10749003023E+02  0.40769996662E+02  0.84662426220E+02  0.15682145327E+03  0.12509000000E+03 0.  0.
         25    1    3    3    0    0 -0.24500650901E+02 -0.17128114280E+02 -0.88789529737E+02  0.15628417349E+03  0.12509000000E+03 0.  0.
         25    1    4    4    0    0  0.35249653924E+02 -0.23641882382E+02  0.68331530670E+02  0.14872183057E+03  0.12509000000E+03 0.  0.
<mgrwt>
<rscale>  2 0.45734275E+03</rscale>
<asrwt>0</asrwt>
<pdfrwt beam="1">  1       21 0.38678815E-01 0.45734275E+03</pdfrwt>
<pdfrwt beam="2">  1       21 0.29236987E-01 0.45734275E+03</pdfrwt>
<totfact> 0.66791002E+04</totfact>
</mgrwt>
</event>
<event>
 7    0  0.4779893E-002  0.4481313E+03  0.7546771E-02  0.1028281E+00
         21   -1    0    0  502  501  0.00000000000E+00  0.00000000000E+00  0.31659674102E+03  0.31659674102E+03  0.00000000000E+00 0.  1.
         21   -1    0    0  501  502 -0.00000000000E+00 -0.00000000000E+00 -0.15857841114E+03  0.15857841114E+03  0.00000000000E+00 0.  1.
      99926    2    1    2    0    0  0.00000000000E+00  0.00000000000E+00  0.15801832989E+03  0.47517515216E+03  0.44813126721E+03 0.  0.
      99925    2    3    3    0    0  0.65394601161E+02 -0.23189900573E+02  0.18603734492E+03  0.32941233573E+03  0.26284666229E+03 0.  0.
         25    1    4    4    0    0  0.13695707358E+02  0.13797493906E+02  0.11963585272E+03  0.17417861118E+03  0.12509000000E+03 0.  0.
         25    1    4    4    0    0  0.51698893803E+02 -0.36987394479E+02  0.66401492203E+02  0.15523372455E+03  0.12509000000E+03 0.  0.
         25    1    3    3    0    0 -0.65394601161E+02  0.23189900573E+02 -0.28019015031E+02  0.14576281643E+03  0.12509000000E+03 0.  0.
<mgrwt>
<rscale>  2 0.44813127E+03</rscale>
<asrwt>0</asrwt>
<pdfrwt beam="1">  1       21 0.46558344E-01 0.44813127E+03</pdfrwt>
<pdfrwt beam="2">  1       21 0.23320355E-01 0.44813127E+03</pdfrwt>
<totfact> 0.70836874E+04</totfact>
</mgrwt>
</event>
<event>
 7    0  0.4779893E-002  0.4533937E+03  0.7546771E-02  0.1026715E+00
         21   -1    0    0  502  501  0.00000000000E+00  0.00000000000E+00  0.73033848474E+03  0.73033848474E+03  0.00000000000E+00 0. -1.
         21   -1    0    0  501  502 -0.00000000000E+00 -0.00000000000E+00 -0.70366640759E+02  0.70366640759E+02  0.00000000000E+00 0. -1.
      99926    2    1    2    0    0 -0.26645352591E-14  0.00000000000E+00  0.65997184398E+03  0.80070512550E+03  0.45339371759E+03 0.  0.
      99925    2    3    3    0    0  0.70912077248E+01  0.84806422664E+02  0.54364363481E+03  0.60985918003E+03  0.26293992327E+03 0.  0.
         25    1    4    4    0    0 -0.28506755120E+02  0.64899535520E+02  0.25763801104E+03  0.29504141680E+03  0.12509000000E+03 0.  0.
         25    1    3    3    0    0 -0.70912077248E+01 -0.84806422664E+02  0.11632820917E+03  0.19084594546E+03  0.12509000000E+03 0.  0.
         25    1    4    4    0    0  0.35597962845E+02  0.19906887144E+02  0.28600562378E+03  0.31481776323E+03  0.12509000000E+03 0.  0.
<mgrwt>
<rscale>  2 0.45339372E+03</rscale>
<asrwt>0</asrwt>
<pdfrwt beam="1">  1       21 0.10740271E+00 0.45339372E+03</pdfrwt>
<pdfrwt beam="2">  1       21 0.10348036E-01 0.45339372E+03</pdfrwt>
<totfact> 0.48337172E+04</totfact>
</mgrwt>
</event>
<event>
 7    0  0.4779893E-002  0.4544677E+03  0.7546771E-02  0.1026398E+00
         21   -1    0    0  502  501  0.00000000000E+00  0.00000000000E+00  0.97406770273E+02  0.97406770273E+02  0.00000000000E+00 0. -1.
         21   -1    0    0  501  502 -0.00000000000E+00 -0.00000000000E+00 -0.53009898576E+03  0.53009898576E+03  0.00000000000E+00 0. -1.
      99926    2    1    2    0    0  0.00000000000E+00  0.26645352591E-14 -0.43269221548E+03  0.62750575603E+03  0.45446773319E+03 0.  0.
      99925    2    3    3    0    0  0.10876206409E+03  0.35654715169E+01 -0.23195381500E+03  0.36714962935E+03  0.26297220170E+03 0.  0.
         25    1    3    3    0    0 -0.10876206409E+03 -0.35654715169E+01 -0.20073840048E+03  0.26035612668E+03  0.12509000000E+03 0.  0.
         25    1    4    4    0    0  0.60249149337E+02 -0.25298381906E+02 -0.79326443657E+02  0.16189552460E+03  0.12509000000E+03 0.  0.
         25    1    4    4    0    0  0.48512914751E+02  0.28863853423E+02 -0.15262737134E+03  0.20525410475E+03  0.12509000000E+03 0.  0.
<mgrwt>
<rscale>  2 0.45446773E+03</rscale>
<asrwt>0</asrwt>
<pdfrwt beam="1">  1       21 0.14324525E-01 0.45446773E+03</pdfrwt>
<pdfrwt beam="2">  1       21 0.77955733E-01 0.45446773E+03</pdfrwt>
<totfact> 0.57256585E+04</totfact>
</mgrwt>
</event>
<event>
 7    0  0.4779893E-002  0.4514291E+03  0.7546771E-02  0.1027297E+00
         21   -1    0    0  502  501  0.00000000000E+00  0.00000000000E+00  0.25893371221E+03  0.25893371221E+03  0.00000000000E+00 0.  1.
         21   -1    0    0  501  502 -0.00000000000E+00 -0.00000000000E+00 -0.19675717346E+03  0.19675717346E+03  0.00000000000E+00 0.  1.
      99926    2    1    2    0    0  0.44408920985E-15  0.00000000000E+00  0.62176538752E+02  0.45569088568E+03  0.45142913211E+03 0.  0.
      99925    2    3    3    0    0  0.36607634315E+01  0.10264038413E+03  0.16553206808E+00  0.28236655763E+03  0.26302546611E+03 0.  0.
         25    1    4    4    0    0 -0.92854789335E+01  0.93152198903E+02 -0.11212066093E+01  0.15624441585E+03  0.12509000000E+03 0.  0.
         25    1    4    4    0    0  0.12946242365E+02  0.94881852288E+01  0.12867386774E+01  0.12612214178E+03  0.12509000000E+03 0.  0.
         25    1    3    3    0    0 -0.36607634315E+01 -0.10264038413E+03  0.62011006684E+02  0.17332432805E+03  0.12509000000E+03 0.  0.
<mgrwt>
<rscale>  2 0.45142913E+03</rscale>
<asrwt>0</asrwt>
<pdfrwt beam="1">  1       21 0.38078487E-01 0.45142913E+03</pdfrwt>
<pdfrwt beam="2">  1       21 0.28934878E-01 0.45142913E+03</pdfrwt>
<totfact> 0.70481565E+04</totfact>
</mgrwt>
</event>
<event>
 7    0  0.4779893E-002  0.4552161E+03  0.7546771E-02  0.1026178E+00
         21   -1    0    0  502  501  0.00000000000E+00  0.00000000000E+00  0.22056051204E+03  0.22056051204E+03  0.00000000000E+00 0.  1.
         21   -1    0    0  501  502 -0.00000000000E+00 -0.00000000000E+00 -0.23488080076E+03  0.23488080076E+03  0.00000000000E+00 0.  1.
      99926    2    1    2    0    0  0.88817841970E-15 -0.14210854715E-13 -0.14320288726E+02  0.45544131280E+03  0.45521612310E+03 0.  0.
      99925    2    3    3    0    0 -0.49578711354E+01  0.10532365854E+03  0.31548279732E+02  0.28553225711E+03  0.26346863639E+03 0.  0.
         25    1    4    4    0    0  0.16595294865E+01  0.46662408491E+02 -0.25458080553E+02  0.13592555451E+03  0.12509000000E+03 0.  0.
         25    1    4    4    0    0 -0.66174006220E+01  0.58661250044E+02  0.57006360285E+02  0.14960670259E+03  0.12509000000E+03 0.  0.
         25    1    3    3    0    0  0.49578711354E+01 -0.10532365854E+03 -0.45868568458E+02  0.16990905569E+03  0.12509000000E+03 0.  0.
<mgrwt>
<rscale>  2 0.45521612E+03</rscale>
<asrwt>0</asrwt>
<pdfrwt beam="1">  1       21 0.32435370E-01 0.45521612E+03</pdfrwt>
<pdfrwt beam="2">  1       21 0.34541294E-01 0.45521612E+03</pdfrwt>
<totfact> 0.68395467E+04</totfact>
</mgrwt>
</event>
<event>
 7    0  0.4779893E-002  0.4647063E+03  0.7546771E-02  0.1023425E+00
         21   -1    0    0  502  501  0.00000000000E+00  0.00000000000E+00  0.53455228168E+03  0.53455228168E+03  0.00000000000E+00 0.  1.
         21   -1    0    0  501  502 -0.00000000000E+00 -0.00000000000E+00 -0.10099663980E+03  0.10099663980E+03  0.00000000000E+00 0.  1.
      99926    2    1    2    0    0  0.00000000000E+00  0.71054273576E-14  0.43355564189E+03  0.63554892148E+03  0.46470629109E+03 0.  0.
      99925    2    3    3    0    0 -0.10588085318E+03 -0.53340305381E+02  0.23079792972E+03  0.36943965597E+03  0.26298675212E+03 0.  0.
         25    1    4    4    0    0 -0.32590006062E+02  0.28400192138E+01  0.75711290853E+02  0.14983284642E+03  0.12509000000E+03 0.  0.
         25    1    4    4    0    0 -0.73290847120E+02 -0.56180324594E+02  0.15508663887E+03  0.21960680955E+03  0.12509000000E+03 0.  0.
         25    1    3    3    0    0  0.10588085318E+03  0.53340305381E+02  0.20275771217E+03  0.26610926551E+03  0.12509000000E+03 0.  0.
<mgrwt>
<rscale>  2 0.46470629E+03</rscale>
<asrwt>0</asrwt>
<pdfrwt beam="1">  1       21 0.78610628E-01 0.46470629E+03</pdfrwt>
<pdfrwt beam="2">  1       21 0.14852447E-01 0.46470629E+03</pdfrwt>
<totfact> 0.52409569E+04</totfact>
</mgrwt>
</event>
<event>
 7    0  0.4779893E-002  0.4498005E+03  0.7546771E-02  0.1027782E+00
         21   -1    0    0  502  501  0.00000000000E+00  0.00000000000E+00  0.33466581501E+03  0.33466581501E+03  0.00000000000E+00 0. -1.
         21   -1    0    0  501  502 -0.00000000000E+00 -0.00000000000E+00 -0.15113617928E+03  0.15113617928E+03  0.00000000000E+00 0. -1.
      99926    2    1    2    0    0  0.00000000000E+00  0.00000000000E+00  0.18352963572E+03  0.48580199429E+03  0.44980045627E+03 0.  0.
      99925    2    3    3    0    0 -0.79057955457E+02  0.63535707090E+02  0.15694207253E+03  0.32258020342E+03  0.26294529301E+03 0.  0.
         25    1    3    3    0    0  0.79057955457E+02 -0.63535707090E+02  0.26587563194E+02  0.16322179086E+03  0.12509000000E+03 0.  0.
         25    1    4    4    0    0 -0.58990466528E+02  0.76834330253E+00  0.97450014210E+02  0.16918770305E+03  0.12509000000E+03 0.  0.
         25    1    4    4    0    0 -0.20067488930E+02  0.62767363787E+02  0.59492058321E+02  0.15339250038E+03  0.12509000000E+03 0.  0.
<mgrwt>
<rscale>  2 0.44980046E+03</rscale>
<asrwt>0</asrwt>
<pdfrwt beam="1">  1       21 0.49215561E-01 0.44980046E+03</pdfrwt>
<pdfrwt beam="2">  1       21 0.22225909E-01 0.44980046E+03</pdfrwt>
<totfact> 0.69088159E+04</totfact>
</mgrwt>
</event>
<event>
 7    0  0.4779893E-002  0.4573898E+03  0.7546771E-02  0.1025541E+00
         21   -1    0    0  502  501  0.00000000000E+00  0.00000000000E+00  0.10124519941E+04  0.10124519941E+04  0.00000000000E+00 0. -1.
         21   -1    0    0  501  502 -0.00000000000E+00 -0.00000000000E+00 -0.51658121956E+02  0.51658121956E+02  0.00000000000E+00 0. -1.
      99926    2    1    2    0    0  0.00000000000E+00 -0.35527136788E-14  0.96079387217E+03  0.10641101161E+04  0.45738984942E+03 0.  0.
      99925    2    3    3    0    0 -0.58375027517E+01 -0.26541409937E+02  0.86406879621E+03  0.90366769245E+03  0.26317653947E+03 0.  0.
         25    1    4    4    0    0 -0.21936227073E+02  0.86569197053E+01  0.32790039828E+03  0.35174183660E+03  0.12509000000E+03 0.  0.
         25    1    3    3    0    0  0.58375027517E+01  0.26541409937E+02  0.96725075965E+02  0.16044242363E+03  0.12509000000E+03 0.  0.
         25    1    4    4    0    0  0.16098724321E+02 -0.35198329642E+02  0.53616839792E+03  0.55192585586E+03  0.12509000000E+03 0.  0.
<mgrwt>
<rscale>  2 0.45738985E+03</rscale>
<asrwt>0</asrwt>
<pdfrwt beam="1">  1       21 0.14888999E+00 0.45738985E+03</pdfrwt>
<pdfrwt beam="2">  1       21 0.75967833E-02 0.45738985E+03</pdfrwt>
<totfact> 0.36086133E+04</totfact>
</mgrwt>
</event>
<event>
 7    0  0.4779893E-002  0.4529600E+03  0.7546771E-02  0.1026843E+00
         21   -1    0    0  502  501  0.00000000000E+00  0.00000000000E+00  0.22926149537E+03  0.22926149537E+03  0.00000000000E+00 0.  1.
         21   -1    0    0  501  502 -0.00000000000E+00 -0.00000000000E+00 -0.22373229165E+03  0.22373229165E+03  0.00000000000E+00 0.  1.
      99926    2    1    2    0    0  0.00000000000E+00  0.00000000000E+00  0.55292037270E+01  0.45299378702E+03  0.45296004127E+03 0.  0.
      99925    2    3    3    0    0  0.71735775333E+02  0.93402245791E+01  0.88033755223E+02  0.28659736165E+03  0.26297308681E+03 0.  0.
         25    1    3    3    0    0 -0.71735775333E+02 -0.93402245791E+01 -0.82504551496E+02  0.16639642537E+03  0.12509000000E+03 0.  0.
         25    1    4    4    0    0  0.71291546122E+02  0.71519523782E+00  0.69395479529E+02  0.15983190148E+03  0.12509000000E+03 0.  0.
         25    1    4    4    0    0  0.44422921080E+00  0.86250293413E+01  0.18638275694E+02  0.12676546017E+03  0.12509000000E+03 0.  0.
<mgrwt>
<rscale>  2 0.45296004E+03</rscale>
<asrwt>0</asrwt>
<pdfrwt beam="1">  1       21 0.33714926E-01 0.45296004E+03</pdfrwt>
<pdfrwt beam="2">  1       21 0.32901807E-01 0.45296004E+03</pdfrwt>
<totfact> 0.69822598E+04</totfact>
</mgrwt>
</event>
<event>
 7    0  0.4779893E-002  0.4519344E+03  0.7546771E-02  0.1027147E+00
         21   -1    0    0  502  501  0.00000000000E+00  0.00000000000E+00  0.11100640176E+03  0.11100640176E+03  0.00000000000E+00 0. -1.
         21   -1    0    0  501  502 -0.00000000000E+00 -0.00000000000E+00 -0.45998396277E+03  0.45998396277E+03  0.00000000000E+00 0. -1.
      99926    2    1    2    0    0  0.00000000000E+00 -0.88817841970E-15 -0.34897756101E+03  0.57099036453E+03  0.45193435176E+03 0.  0.
      99925    2    3    3    0    0 -0.86320531823E+02  0.67526292961E+01 -0.13432940480E+03  0.30789689962E+03  0.26317157822E+03 0.  0.
         25    1    4    4    0    0 -0.68881444871E+02 -0.81494765555E+01 -0.36973713476E+02  0.14773500264E+03  0.12509000000E+03 0.  0.
         25    1    3    3    0    0  0.86320531823E+02 -0.67526292961E+01 -0.21464815621E+03  0.26309346491E+03  0.12509000000E+03 0.  0.
         25    1    4    4    0    0 -0.17439086952E+02  0.14902105852E+02 -0.97355691323E+02  0.16016189698E+03  0.12509000000E+03 0.  0.
<mgrwt>
<rscale>  2 0.45193435E+03</rscale>
<asrwt>0</asrwt>
<pdfrwt beam="1">  1       21 0.16324471E-01 0.45193435E+03</pdfrwt>
<pdfrwt beam="2">  1       21 0.67644699E-01 0.45193435E+03</pdfrwt>
<totfact> 0.61989514E+04</totfact>
</mgrwt>
</event>
<event>
 7    0  0.4779893E-002  0.4552441E+03  0.7546771E-02  0.1026170E+00
         21   -1    0    0  502  501  0.00000000000E+00  0.00000000000E+00  0.41707445325E+03  0.41707445325E+03  0.00000000000E+00 0. -1.
         21   -1    0    0  501  502 -0.00000000000E+00 -0.00000000000E+00 -0.12422672778E+03  0.12422672778E+03  0.00000000000E+00 0. -1.
      99926    2    1    2    0    0  0.17763568394E-14  0.14210854715E-13  0.29284772547E+03  0.54130118102E+03  0.45524408647E+03 0.  0.
      99925    2    3    3    0    0  0.81575009483E+01 -0.10416229920E+03  0.23786968806E+03  0.36929414020E+03  0.26244969821E+03 0.  0.
         25    1    4    4    0    0 -0.57001629668E+00 -0.38262846695E+02  0.16322319818E+03  0.20917382934E+03  0.12509000000E+03 0.  0.
         25    1    4    4    0    0  0.87275172450E+01 -0.65899452505E+02  0.74646489873E+02  0.16012031085E+03  0.12509000000E+03 0.  0.
         25    1    3    3    0    0 -0.81575009483E+01  0.10416229920E+03  0.54978037413E+02  0.17200704083E+03  0.12509000000E+03 0.  0.
<mgrwt>
<rscale>  2 0.45524409E+03</rscale>
<asrwt>0</asrwt>
<pdfrwt beam="1">  1       21 0.61334478E-01 0.45524409E+03</pdfrwt>
<pdfrwt beam="2">  1       21 0.18268636E-01 0.45524409E+03</pdfrwt>
<totfact> 0.62324549E+04</totfact>
</mgrwt>
</event>
<event>
 7    0  0.4779893E-002  0.4570436E+03  0.7546771E-02  0.1025642E+00
         21   -1    0    0  502  501  0.00000000000E+00  0.00000000000E+00  0.24219367983E+02  0.24219367983E+02  0.00000000000E+00 0.  1.
         21   -1    0    0  501  502 -0.00000000000E+00 -0.00000000000E+00 -0.21562169634E+04  0.21562169634E+04  0.00000000000E+00 0.  1.
      99926    2    1    2    0    0  0.00000000000E+00  0.00000000000E+00 -0.21319975955E+04  0.21804363314E+04  0.45704359569E+03 0.  0.
      99925    2    3    3    0    0 -0.62032821986E+02 -0.44881555927E+02 -0.92929763629E+03  0.96882701942E+03  0.26300051648E+03 0.  0.
         25    1    3    3    0    0  0.62032821986E+02  0.44881555927E+02 -0.12026999592E+04  0.12116093120E+04  0.12509000000E+03 0.  0.
         25    1    4    4    0    0 -0.33421105653E+00 -0.17975198546E+02 -0.53496711534E+03  0.54969131525E+03  0.12509000000E+03 0.  0.
         25    1    4    4    0    0 -0.61698610930E+02 -0.26906357381E+02 -0.39433052095E+03  0.41913570417E+03  0.12509000000E+03 0.  0.
<mgrwt>
<rscale>  2 0.45704360E+03</rscale>
<asrwt>0</asrwt>
<pdfrwt beam="1">  1       21 0.35616709E-02 0.45704360E+03</pdfrwt>
<pdfrwt beam="2">  1       21 0.31709080E+00 0.45704360E+03</pdfrwt>
<totfact> 0.10808763E+04</totfact>
</mgrwt>
</event>
<event>
 7    0  0.4779893E-002  0.4535554E+03  0.7546771E-02  0.1026667E+00
         21   -1    0    0  502  501  0.00000000000E+00  0.00000000000E+00  0.10715334828E+03  0.10715334828E+03  0.00000000000E+00 0.  1.
         21   -1    0    0  501  502 -0.00000000000E+00 -0.00000000000E+00 -0.47994877158E+03  0.47994877158E+03  0.00000000000E+00 0.  1.
      99926    2    1    2    0    0  0.00000000000E+00 -0.14210854715E-13 -0.37279542330E+03  0.58710211986E+03  0.45355536764E+03 0.  0.
      99925    2    3    3    0    0 -0.35421653776E+02  0.10543979309E+03 -0.22409408147E+03  0.36320071146E+03  0.26329518783E+03 0.  0.
         25    1    3    3    0    0  0.35421653776E+02 -0.10543979309E+03 -0.14870134183E+03  0.22390140840E+03  0.12509000000E+03 0.  0.
         25    1    4    4    0    0  0.59183533698E+01  0.16175135693E+02 -0.10894161918E+03  0.16677064014E+03  0.12509000000E+03 0.  0.
         25    1    4    4    0    0 -0.41340007146E+02  0.89264657397E+02 -0.11515246228E+03  0.19643007133E+03  0.12509000000E+03 0.  0.
<mgrwt>
<rscale>  2 0.45355537E+03</rscale>
<asrwt>0</asrwt>
<pdfrwt beam="1">  1       21 0.15757846E-01 0.45355537E+03</pdfrwt>
<pdfrwt beam="2">  1       21 0.70580700E-01 0.45355537E+03</pdfrwt>
<totfact> 0.60163311E+04</totfact>
</mgrwt>
</event>
<event>
 7    0  0.4779893E-002  0.4593283E+03  0.7546771E-02  0.1024976E+00
         21   -1    0    0  502  501  0.00000000000E+00  0.00000000000E+00  0.35305559471E+03  0.35305559471E+03  0.00000000000E+00 0.  1.
         21   -1    0    0  501  502 -0.00000000000E+00 -0.00000000000E+00 -0.14939749552E+03  0.14939749552E+03  0.00000000000E+00 0.  1.
      99926    2    1    2    0    0  0.00000000000E+00  0.00000000000E+00  0.20365809919E+03  0.50245309023E+03  0.45932829928E+03 0.  0.
      99925    2    3    3    0    0  0.11433038576E+03 -0.23583003377E+02  0.13906039535E+03  0.31956523772E+03  0.26297633438E+03 0.  0.
         25    1    3    3    0    0 -0.11433038576E+03  0.23583003377E+02  0.64597703838E+02  0.18288785252E+03  0.12509000000E+03 0.  0.
         25    1    4    4    0    0  0.71754504563E+02  0.11872245406E+02  0.38377783906E+02  0.14969977132E+03  0.12509000000E+03 0.  0.
         25    1    4    4    0    0  0.42575881199E+02 -0.35455248783E+02  0.10068261144E+03  0.16986546639E+03  0.12509000000E+03 0.  0.
<mgrwt>
<rscale>  2 0.45932830E+03</rscale>
<asrwt>0</asrwt>
<pdfrwt beam="1">  1       21 0.51919940E-01 0.45932830E+03</pdfrwt>
<pdfrwt beam="2">  1       21 0.21970220E-01 0.45932830E+03</pdfrwt>
<totfact> 0.62909271E+04</totfact>
</mgrwt>
</event>
<event>
 7    0  0.4779893E-002  0.4604311E+03  0.7546771E-02  0.1024656E+00
         21   -1    0    0  502  501  0.00000000000E+00  0.00000000000E+00  0.17778795343E+04  0.17778795343E+04  0.00000000000E+00 0. -1.
         21   -1    0    0  501  502 -0.00000000000E+00 -0.00000000000E+00 -0.29810346949E+02  0.29810346949E+02  0.00000000000E+00 0. -1.
      99926    2    1    2    0    0 -0.71054273576E-14  0.88817841970E-15  0.17480691874E+04  0.18076898813E+04  0.46043112732E+03 0.  0.
      99925    2    3    3    0    0 -0.51296989165E+02  0.61458804383E+01  0.67756857170E+03  0.72866799586E+03  0.26303749902E+03 0.  0.
         25    1    3    3    0    0  0.51296989165E+02 -0.61458804383E+01  0.10705006157E+04  0.10790218854E+04  0.12509000000E+03 0.  0.
         25    1    4    4    0    0 -0.54279203116E+02 -0.79213644028E+00  0.43138242935E+03  0.45242144934E+03  0.12509000000E+03 0.  0.
         25    1    4    4    0    0  0.29822139509E+01  0.69380168786E+01  0.24618614235E+03  0.27624654652E+03  0.12509000000E+03 0.  0.
<mgrwt>
<rscale>  2 0.46043113E+03</rscale>
<asrwt>0</asrwt>
<pdfrwt beam="1">  1       21 0.26145280E+00 0.46043113E+03</pdfrwt>
<pdfrwt beam="2">  1       21 0.43838757E-02 0.46043113E+03</pdfrwt>
<totfact> 0.16409303E+04</totfact>
</mgrwt>
</event>
<event>
 7    0  0.4779893E-002  0.4531793E+03  0.7546771E-02  0.1026778E+00
         21   -1    0    0  502  501  0.00000000000E+00  0.00000000000E+00  0.34898812058E+03  0.34898812058E+03  0.00000000000E+00 0. -1.
         21   -1    0    0  501  502 -0.00000000000E+00 -0.00000000000E+00 -0.14711922123E+03  0.14711922123E+03  0.00000000000E+00 0. -1.
      99926    2    1    2    0    0  0.17763568394E-14  0.00000000000E+00  0.20186889935E+03  0.49610734181E+03  0.45317926042E+03 0.  0.
      99925    2    3    3    0    0  0.13997101495E+02 -0.92456298372E+02  0.19252106599E+03  0.33964975635E+03  0.26372999485E+03 0.  0.
         25    1    4    4    0    0 -0.18217434944E+02 -0.49580343133E+02  0.56010073189E+02  0.14688336107E+03  0.12509000000E+03 0.  0.
         25    1    4    4    0    0  0.32214536439E+02 -0.42875955239E+02  0.13651099280E+03  0.19276639528E+03  0.12509000000E+03 0.  0.
         25    1    3    3    0    0 -0.13997101495E+02  0.92456298372E+02  0.93478333633E+01  0.15645758546E+03  0.12509000000E+03 0.  0.
<mgrwt>
<rscale>  2 0.45317926E+03</rscale>
<asrwt>0</asrwt>
<pdfrwt beam="1">  1       21 0.51321782E-01 0.45317926E+03</pdfrwt>
<pdfrwt beam="2">  1       21 0.21635180E-01 0.45317926E+03</pdfrwt>
<totfact> 0.66501003E+04</totfact>
</mgrwt>
</event>
<event>
 7    0  0.4779893E-002  0.4521478E+03  0.7546771E-02  0.1027083E+00
         21   -1    0    0  502  501  0.00000000000E+00  0.00000000000E+00  0.49671167006E+03  0.49671167006E+03  0.00000000000E+00 0. -1.
         21   -1    0    0  501  502 -0.00000000000E+00 -0.00000000000E+00 -0.10289552222E+03  0.10289552222E+03  0.00000000000E+00 0. -1.
      99926    2    1    2    0    0 -0.71054273576E-14  0.00000000000E+00  0.39381614784E+03  0.59960719228E+03  0.45214779301E+03 0.  0.
      99925    2    3    3    0    0  0.27209868453E+02  0.10661947398E+03  0.23746552620E+03  0.37113156084E+03  0.26313621975E+03 0.  0.
         25    1    4    4    0    0 -0.49180580488E+01  0.90821937220E+02  0.11864172154E+03  0.19492608282E+03  0.12509000000E+03 0.  0.
         25    1    3    3    0    0 -0.27209868453E+02 -0.10661947398E+03  0.15635062164E+03  0.22847563143E+03  0.12509000000E+03 0.  0.
         25    1    4    4    0    0  0.32127926502E+02  0.15797536756E+02  0.11882380467E+03  0.17620547802E+03  0.12509000000E+03 0.  0.
<mgrwt>
<rscale>  2 0.45214779E+03</rscale>
<asrwt>0</asrwt>
<pdfrwt beam="1">  1       21 0.73045833E-01 0.45214779E+03</pdfrwt>
<pdfrwt beam="2">  1       21 0.15131695E-01 0.45214779E+03</pdfrwt>
<totfact> 0.60044209E+04</totfact>
</mgrwt>
</event>
<event>
 7    0  0.4779893E-002  0.4470381E+03  0.7546771E-02  0.1028609E+00
         21   -1    0    0  502  501  0.00000000000E+00  0.00000000000E+00  0.43249542916E+02  0.43249542916E+02  0.00000000000E+00 0. -1.
         21   -1    0    0  501  502 -0.00000000000E+00 -0.00000000000E+00 -0.11551744184E+04  0.11551744184E+04  0.00000000000E+00 0. -1.
      99926    2    1    2    0    0  0.00000000000E+00 -0.71054273576E-14 -0.11119248755E+04  0.11984239613E+04  0.44703809942E+03 0.  0.
      99925    2    3    3    0    0 -0.41950633971E+02  0.36055707354E+02 -0.46234112893E+03  0.53459685912E+03  0.26263018211E+03 0.  0.
         25    1    3    3    0    0  0.41950633971E+02 -0.36055707354E+02 -0.64958374653E+03  0.66382710218E+03  0.12509000000E+03 0.  0.
         25    1    4    4    0    0 -0.69986571045E+01  0.40175957577E+02 -0.29264846518E+03  0.32086402266E+03  0.12509000000E+03 0.  0.
         25    1    4    4    0    0 -0.34951976867E+02 -0.41202502225E+01 -0.16969266375E+03  0.21373283646E+03  0.12509000000E+03 0.  0.
<mgrwt>
<rscale>  2 0.44703810E+03</rscale>
<asrwt>0</asrwt>
<pdfrwt beam="1">  1       21 0.63602267E-02 0.44703810E+03</pdfrwt>
<pdfrwt beam="2">  1       21 0.16987860E+00 0.44703810E+03</pdfrwt>
<totfact> 0.34283457E+04</totfact>
</mgrwt>
</event>
<event>
 7    0  0.4779893E-002  0.4547477E+03  0.7546771E-02  0.1026316E+00
         21   -1    0    0  502  501  0.00000000000E+00  0.00000000000E+00  0.59139776960E+03  0.59139776960E+03  0.00000000000E+00 0.  1.
         21   -1    0    0  501  502 -0.00000000000E+00 -0.00000000000E+00 -0.87418105073E+02  0.87418105073E+02  0.00000000000E+00 0.  1.
      99926    2    1    2    0    0  0.00000000000E+00 -0.22204460493E-14  0.50397966453E+03  0.67881587467E+03  0.45474772067E+03 0.  0.
      99925    2    3    3    0    0 -0.10911953862E+03 -0.26532244422E+01  0.35978546840E+03  0.45892138269E+03  0.26315231124E+03 0.  0.
         25    1    3    3    0    0  0.10911953862E+03  0.26532244422E+01  0.14419419612E+03  0.21989449198E+03  0.12509000000E+03 0.  0.
         25    1    4    4    0    0 -0.62197290407E+02  0.19044259674E+02  0.23912515345E+03  0.27759599037E+03  0.12509000000E+03 0.  0.
         25    1    4    4    0    0 -0.46922248210E+02 -0.21697484116E+02  0.12066031496E+03  0.18132539232E+03  0.12509000000E+03 0.  0.
<mgrwt>
<rscale>  2 0.45474772E+03</rscale>
<asrwt>0</asrwt>
<pdfrwt beam="1">  1       21 0.86970258E-01 0.45474772E+03</pdfrwt>
<pdfrwt beam="2">  1       21 0.12855604E-01 0.45474772E+03</pdfrwt>
<totfact> 0.54176303E+04</totfact>
</mgrwt>
</event>
<event>
 7    0  0.4779893E-002  0.4509252E+03  0.7546771E-02  0.1027447E+00
         21   -1    0    0  502  501  0.00000000000E+00  0.00000000000E+00  0.15691209197E+04  0.15691209197E+04  0.00000000000E+00 0. -1.
         21   -1    0    0  501  502 -0.00000000000E+00 -0.00000000000E+00 -0.32396084673E+02  0.32396084673E+02  0.00000000000E+00 0. -1.
      99926    2    1    2    0    0  0.00000000000E+00 -0.14210854715E-13  0.15367248350E+04  0.16015170044E+04  0.45092515644E+03 0.  0.
      99925    2    3    3    0    0 -0.48370985543E+02 -0.95856183673E+02  0.10421194959E+04  0.10801628927E+04  0.26307921010E+03 0.  0.
         25    1    4    4    0    0 -0.57910820746E+01 -0.80669928304E+02  0.61673609357E+03  0.63446992929E+03  0.12509000000E+03 0.  0.
         25    1    3    3    0    0  0.48370985543E+02  0.95856183673E+02  0.49460533913E+03  0.52135411170E+03  0.12509000000E+03 0.  0.
         25    1    4    4    0    0 -0.42579903469E+02 -0.15186255369E+02  0.42538340234E+03  0.44569296340E+03  0.12509000000E+03 0.  0.
<mgrwt>
<rscale>  2 0.45092516E+03</rscale>
<asrwt>0</asrwt>
<pdfrwt beam="1">  1       21 0.23075303E+00 0.45092516E+03</pdfrwt>
<pdfrwt beam="2">  1       21 0.47641312E-02 0.45092516E+03</pdfrwt>
<totfact> 0.22086142E+04</totfact>
</mgrwt>
</event>
<event>
 7    0  0.4779893E-002  0.4560003E+03  0.7546771E-02  0.1025948E+00
         21   -1    0    0  502  501  0.00000000000E+00  0.00000000000E+00  0.34141019195E+02  0.34141019195E+02  0.00000000000E+00 0.  1.
         21   -1    0    0  501  502 -0.00000000000E+00 -0.00000000000E+00 -0.15226281364E+04  0.15226281364E+04  0.00000000000E+00 0.  1.
      99926    2    1    2    0    0  0.00000000000E+00  0.00000000000E+00 -0.14884871172E+04  0.15567691556E+04  0.45600033522E+03 0.  0.
      99925    2    3    3    0    0  0.88082688021E+02 -0.42831495960E+02 -0.11356054294E+04  0.11697729144E+04  0.26301308544E+03 0.  0.
         25    1    4    4    0    0  0.22479978506E+02 -0.28731740563E+02 -0.40298586461E+03  0.42352801268E+03  0.12509000000E+03 0.  0.
         25    1    3    3    0    0 -0.88082688021E+02  0.42831495960E+02 -0.35288168781E+03  0.38699624116E+03  0.12509000000E+03 0.  0.
         25    1    4    4    0    0  0.65602709515E+02 -0.14099755397E+02 -0.73261956476E+03  0.74624490173E+03  0.12509000000E+03 0.  0.
<mgrwt>
<rscale>  2 0.45600034E+03</rscale>
<asrwt>0</asrwt>
<pdfrwt beam="1">  1       21 0.50207376E-02 0.45600034E+03</pdfrwt>
<pdfrwt beam="2">  1       21 0.22391593E+00 0.45600034E+03</pdfrwt>
<totfact> 0.22248148E+04</totfact>
</mgrwt>
</event>
<event>
 7    0  0.4779893E-002  0.4581021E+03  0.7546771E-02  0.1025333E+00
         21   -1    0    0  502  501  0.00000000000E+00  0.00000000000E+00  0.11751583664E+03  0.11751583664E+03  0.00000000000E+00 0.  1.
         21   -1    0    0  501  502 -0.00000000000E+00 -0.00000000000E+00 -0.44644519545E+03  0.44644519545E+03  0.00000000000E+00 0.  1.
      99926    2    1    2    0    0  0.00000000000E+00  0.00000000000E+00 -0.32892935880E+03  0.56396103209E+03  0.45810208756E+03 0.  0.
      99925    2    3    3    0    0  0.76905319059E+02  0.84824312279E+02 -0.22997665318E+03  0.36762270648E+03  0.26295931483E+03 0.  0.
         25    1    4    4    0    0  0.13939151103E+02  0.61720446364E+02 -0.81207326997E+02  0.16200571438E+03  0.12509000000E+03 0.  0.
         25    1    4    4    0    0  0.62966167956E+02  0.23103865915E+02 -0.14876932619E+03  0.20561699210E+03  0.12509000000E+03 0.  0.
         25    1    3    3    0    0 -0.76905319059E+02 -0.84824312279E+02 -0.98952705621E+02  0.19633832561E+03  0.12509000000E+03 0.  0.
<mgrwt>
<rscale>  2 0.45810209E+03</rscale>
<asrwt>0</asrwt>
<pdfrwt beam="1">  1       21 0.17281741E-01 0.45810209E+03</pdfrwt>
<pdfrwt beam="2">  1       21 0.65653704E-01 0.45810209E+03</pdfrwt>
<totfact> 0.59480444E+04</totfact>
</mgrwt>
</event>
<event>
 7    0  0.4779893E-002  0.4523155E+03  0.7546771E-02  0.1027034E+00
         21   -1    0    0  502  501  0.00000000000E+00  0.00000000000E+00  0.23446203963E+04  0.23446203963E+04  0.00000000000E+00 0.  1.
         21   -1    0    0  501  502 -0.00000000000E+00 -0.00000000000E+00 -0.21814756162E+02  0.21814756162E+02  0.00000000000E+00 0.  1.
      99926    2    1    2    0    0  0.71054273576E-14  0.00000000000E+00  0.23228056401E+04  0.23664351525E+04  0.45231547503E+03 0.  0.
      99925    2    3    3    0    0 -0.42134830274E+02 -0.10015524861E+03  0.13570202960E+04  0.13865396188E+04  0.26302397824E+03 0.  0.
         25    1    3    3    0    0  0.42134830274E+02  0.10015524861E+03  0.96578534416E+03  0.97989553363E+03  0.12509000000E+03 0.  0.
         25    1    4    4    0    0 -0.26542689766E+02 -0.78287123860E+02  0.87889198734E+03  0.89158960383E+03  0.12509000000E+03 0.  0.
         25    1    4    4    0    0 -0.15592140507E+02 -0.21868124753E+02  0.47812830864E+03  0.49495001500E+03  0.12509000000E+03 0.  0.
<mgrwt>
<rscale>  2 0.45231548E+03</rscale>
<asrwt>0</asrwt>
<pdfrwt beam="1">  1       21 0.34479694E+00 0.45231548E+03</pdfrwt>
<pdfrwt beam="2">  1       21 0.32080540E-02 0.45231548E+03</pdfrwt>
<totfact> 0.87784307E+03</totfact>
</mgrwt>
</event>
<event>
 7    0  0.4779893E-002  0.4493571E+03  0.7546771E-02  0.1027914E+00
         21   -1    0    0  502  501  0.00000000000E+00  0.00000000000E+00  0.62313888070E+03  0.62313888070E+03  0.00000000000E+00 0.  1.
         21   -1    0    0  501  502 -0.00000000000E+00 -0.00000000000E+00 -0.81009957517E+02  0.81009957517E+02  0.00000000000E+00 0.  1.
      99926    2    1    2    0    0 -0.26645352591E-14  0.00000000000E+00  0.54212892318E+03  0.70414883821E+03  0.44935711523E+03 0.  0.
      99925    2    3    3    0    0 -0.41107106977E+01  0.78099871982E+01  0.17542732211E+03  0.31659824001E+03  0.26340426419E+03 0.  0.
         25    1    4    4    0    0 -0.37653752062E+02  0.15896201551E+02  0.10869677912E+03  0.17068389543E+03  0.12509000000E+03 0.  0.
         25    1    3    3    0    0  0.41107106977E+01 -0.78099871982E+01  0.36670160107E+03  0.38755059820E+03  0.12509000000E+03 0.  0.
         25    1    4    4    0    0  0.33543041364E+02 -0.80862143530E+01  0.66730542993E+02  0.14591434458E+03  0.12509000000E+03 0.  0.
<mgrwt>
<rscale>  2 0.44935712E+03</rscale>
<asrwt>0</asrwt>
<pdfrwt beam="1">  1       21 0.91638068E-01 0.44935712E+03</pdfrwt>
<pdfrwt beam="2">  1       21 0.11913229E-01 0.44935712E+03</pdfrwt>
<totfact> 0.55083702E+04</totfact>
</mgrwt>
</event>
<event>
 7    0  0.4779893E-002  0.4577973E+03  0.7546771E-02  0.1025422E+00
         21   -1    0    0  502  501  0.00000000000E+00  0.00000000000E+00  0.45325995089E+02  0.45325995089E+02  0.00000000000E+00 0. -1.
         21   -1    0    0  501  502 -0.00000000000E+00 -0.00000000000E+00 -0.11559504226E+04  0.11559504226E+04  0.00000000000E+00 0. -1.
      99926    2    1    2    0    0  0.00000000000E+00  0.00000000000E+00 -0.11106244275E+04  0.12012764176E+04  0.45779734895E+03 0.  0.
      99925    2    3    3    0    0  0.37147223155E+02  0.32482982516E+01 -0.40907194427E+03  0.48768419347E+03  0.26287934369E+03 0.  0.
         25    1    3    3    0    0 -0.37147223155E+02 -0.32482982516E+01 -0.70155248320E+03  0.71359222418E+03  0.12509000000E+03 0.  0.
         25    1    4    4    0    0 -0.21582921586E+02 -0.29776558469E+01 -0.20540008656E+03  0.24147751986E+03  0.12509000000E+03 0.  0.
         25    1    4    4    0    0  0.58730144741E+02  0.62259540985E+01 -0.20367185771E+03  0.24620667361E+03  0.12509000000E+03 0.  0.
<mgrwt>
<rscale>  2 0.45779735E+03</rscale>
<asrwt>0</asrwt>
<pdfrwt beam="1">  1       21 0.66655878E-02 0.45779735E+03</pdfrwt>
<pdfrwt beam="2">  1       21 0.16999270E+00 0.45779735E+03</pdfrwt>
<totfact> 0.31425129E+04</totfact>
</mgrwt>
</event>
<event>
 7    0  0.4779893E-002  0.4417135E+03  0.7546771E-02  0.1030222E+00
         21   -1    0    0  502  501  0.00000000000E+00  0.00000000000E+00  0.26862845930E+03  0.26862845930E+03  0.00000000000E+00 0. -1.
         21   -1    0    0  501  502 -0.00000000000E+00 -0.00000000000E+00 -0.18158054619E+03  0.18158054619E+03  0.00000000000E+00 0. -1.
      99926    2    1    2    0    0  0.17763568394E-14  0.00000000000E+00  0.87047913111E+02  0.45020900548E+03  0.44171349248E+03 0.  0.
      99925    2    3    3    0    0 -0.14207814019E+02  0.98958454671E+02  0.62004638609E+02  0.28813090262E+03  0.26302129972E+03 0.  0.
         25    1    4    4    0    0 -0.16355854581E+01  0.92061547227E+02  0.29609070073E+02  0.15812086753E+03  0.12509000000E+03 0.  0.
         25    1    4    4    0    0 -0.12572228561E+02  0.68969074439E+01  0.32395568536E+02  0.13001003509E+03  0.12509000000E+03 0.  0.
         25    1    3    3    0    0  0.14207814019E+02 -0.98958454671E+02  0.25043274502E+02  0.16207810286E+03  0.12509000000E+03 0.  0.
<mgrwt>
<rscale>  2 0.44171349E+03</rscale>
<asrwt>0</asrwt>
<pdfrwt beam="1">  1       21 0.39504185E-01 0.44171349E+03</pdfrwt>
<pdfrwt beam="2">  1       21 0.26703021E-01 0.44171349E+03</pdfrwt>
<totfact> 0.76707639E+04</totfact>
</mgrwt>
</event>
<event>
 7    0  0.4779893E-002  0.4621409E+03  0.7546771E-02  0.1024162E+00
         21   -1    0    0  502  501  0.00000000000E+00  0.00000000000E+00  0.31658651690E+02  0.31658651690E+02  0.00000000000E+00 0.  1.
         21   -1    0    0  501  502 -0.00000000000E+00 -0.00000000000E+00 -0.16865390258E+04  0.16865390258E+04  0.00000000000E+00 0.  1.
      99926    2    1    2    0    0  0.00000000000E+00  0.00000000000E+00 -0.16548803742E+04  0.17181976775E+04  0.46214089445E+03 0.  0.
      99925    2    3    3    0    0 -0.56264327952E+02 -0.96109515529E+02 -0.87185881620E+03  0.91746489945E+03  0.26306146195E+03 0.  0.
         25    1    3    3    0    0  0.56264327952E+02  0.96109515529E+02 -0.78302155796E+03  0.80073277809E+03  0.12509000000E+03 0.  0.
         25    1    4    4    0    0 -0.31788333694E+02 -0.10156332998E+02 -0.45911649602E+03  0.47702108368E+03  0.12509000000E+03 0.  0.
         25    1    4    4    0    0 -0.24475994258E+02 -0.85953182531E+02 -0.41274232018E+03  0.44044381577E+03  0.12509000000E+03 0.  0.
<mgrwt>
<rscale>  2 0.46214089E+03</rscale>
<asrwt>0</asrwt>
<pdfrwt beam="1">  1       21 0.46556850E-02 0.46214089E+03</pdfrwt>
<pdfrwt beam="2">  1       21 0.24802039E+00 0.46214089E+03</pdfrwt>
<totfact> 0.17873901E+04</totfact>
</mgrwt>
</event>
<event>
 7    0  0.4779893E-002  0.4544331E+03  0.7546771E-02  0.1026408E+00
         21   -1    0    0  502  501  0.00000000000E+00  0.00000000000E+00  0.20007834320E+03  0.20007834320E+03  0.00000000000E+00 0.  1.
         21   -1    0    0  501  502 -0.00000000000E+00 -0.00000000000E+00 -0.25803577588E+03  0.25803577588E+03  0.00000000000E+00 0.  1.
      99926    2    1    2    0    0 -0.17763568394E-14  0.00000000000E+00 -0.57957432679E+02  0.45811411908E+03  0.45443314370E+03 0.  0.
      99925    2    3    3    0    0 -0.40865118083E+01 -0.10777265990E+03 -0.69254563484E+02  0.29256418986E+03  0.26299422964E+03 0.  0.
         25    1    3    3    0    0  0.40865118083E+01  0.10777265990E+03  0.11297130805E+02  0.16554992922E+03  0.12509000000E+03 0.  0.
         25    1    4    4    0    0  0.17140373825E+02 -0.52724945465E+02 -0.71206419440E+02  0.15424517678E+03  0.12509000000E+03 0.  0.
         25    1    4    4    0    0 -0.21226885633E+02 -0.55047714433E+02  0.19518559560E+01  0.13831901308E+03  0.12509000000E+03 0.  0.
<mgrwt>
<rscale>  2 0.45443314E+03</rscale>
<asrwt>0</asrwt>
<pdfrwt beam="1">  1       21 0.29423286E-01 0.45443314E+03</pdfrwt>
<pdfrwt beam="2">  1       21 0.37946437E-01 0.45443314E+03</pdfrwt>
<totfact> 0.68627918E+04</totfact>
</mgrwt>
</event>
<event>
 7    0  0.4779893E-002  0.4509525E+03  0.7546771E-02  0.1027438E+00
         21   -1    0    0  502  501  0.00000000000E+00  0.00000000000E+00  0.70724869387E+03  0.70724869387E+03  0.00000000000E+00 0. -1.
         21   -1    0    0  501  502 -0.00000000000E+00 -0.00000000000E+00 -0.71883535774E+02  0.71883535774E+02  0.00000000000E+00 0. -1.
      99926    2    1    2    0    0 -0.35527136788E-14 -0.14210854715E-13  0.63536515810E+03  0.77913222964E+03  0.45095248879E+03 0.  0.
      99925    2    3    3    0    0 -0.24279024646E+02 -0.75984071111E+02  0.27324601769E+03  0.38780010721E+03  0.26336758887E+03 0.  0.
         25    1    3    3    0    0  0.24279024646E+02  0.75984071111E+02  0.36211914041E+03  0.39133212243E+03  0.12509000000E+03 0.  0.
         25    1    4    4    0    0 -0.35449881929E+02 -0.63793937394E+02  0.17933444491E+03  0.23050967834E+03  0.12509000000E+03 0.  0.
         25    1    4    4    0    0  0.11170857283E+02 -0.12190133717E+02  0.93911572785E+02  0.15729042887E+03  0.12509000000E+03 0.  0.
<mgrwt>
<rscale>  2 0.45095249E+03</rscale>
<asrwt>0</asrwt>
<pdfrwt beam="1">  1       21 0.10400716E+00 0.45095249E+03</pdfrwt>
<pdfrwt beam="2">  1       21 0.10571109E-01 0.45095249E+03</pdfrwt>
<totfact> 0.50372128E+04</totfact>
</mgrwt>
</event>
<event>
 7    0  0.4779893E-002  0.4565402E+03  0.7546771E-02  0.1025789E+00
         21   -1    0    0  502  501  0.00000000000E+00  0.00000000000E+00  0.17133084670E+03  0.17133084670E+03  0.00000000000E+00 0.  1.
         21   -1    0    0  501  502 -0.00000000000E+00 -0.00000000000E+00 -0.30413231809E+03  0.30413231809E+03  0.00000000000E+00 0.  1.
      99926    2    1    2    0    0  0.00000000000E+00  0.00000000000E+00 -0.13280147139E+03  0.47546316479E+03  0.45654023949E+03 0.  0.
      99925    2    3    3    0    0  0.47233357812E+02  0.14440303614E+02 -0.19116043861E+03  0.32885897108E+03  0.26299505150E+03 0.  0.
         25    1    4    4    0    0  0.41737934508E+02  0.40752344534E+02 -0.81079961065E+02  0.16007584749E+03  0.12509000000E+03 0.  0.
         25    1    4    4    0    0  0.54954233033E+01 -0.26312040920E+02 -0.11008047754E+03  0.16878312360E+03  0.12509000000E+03 0.  0.
         25    1    3    3    0    0 -0.47233357812E+02 -0.14440303614E+02  0.58358967218E+02  0.14660419371E+03  0.12509000000E+03 0.  0.
<mgrwt>
<rscale>  2 0.45654024E+03</rscale>
<asrwt>0</asrwt>
<pdfrwt beam="1">  1       21 0.25195713E-01 0.45654024E+03</pdfrwt>
<pdfrwt beam="2">  1       21 0.44725340E-01 0.45654024E+03</pdfrwt>
<totfact> 0.66218785E+04</totfact>
</mgrwt>
</event>
<event>
 7    0  0.4779893E-002  0.4611315E+03  0.7546771E-02  0.1024454E+00
         21   -1    0    0  502  501  0.00000000000E+00  0.00000000000E+00  0.58204801938E+03  0.58204801938E+03  0.00000000000E+00 0.  1.
         21   -1    0    0  501  502 -0.00000000000E+00 -0.00000000000E+00 -0.91333657234E+02  0.91333657234E+02  0.00000000000E+00 0.  1.
      99926    2    1    2    0    0  0.00000000000E+00  0.00000000000E+00  0.49071436215E+03  0.67338167661E+03  0.46113154000E+03 0.  0.
      99925    2    3    3    0    0  0.11618012403E+03 -0.23765037607E+02  0.31704156716E+03  0.42869341361E+03  0.26305909856E+03 0.  0.
         25    1    4    4    0    0  0.19378608979E+02  0.56165502544E+01  0.15724316109E+03  0.20194057525E+03  0.12509000000E+03 0.  0.
         25    1    3    3    0    0 -0.11618012403E+03  0.23765037607E+02  0.17367279499E+03  0.24468826300E+03  0.12509000000E+03 0.  0.
         25    1    4    4    0    0  0.96801515055E+02 -0.29381587861E+02  0.15979840607E+03  0.22675283836E+03  0.12509000000E+03 0.  0.
<mgrwt>
<rscale>  2 0.46113154E+03</rscale>
<asrwt>0</asrwt>
<pdfrwt beam="1">  1       21 0.85595295E-01 0.46113154E+03</pdfrwt>
<pdfrwt beam="2">  1       21 0.13431420E-01 0.46113154E+03</pdfrwt>
<totfact> 0.51821944E+04</totfact>
</mgrwt>
</event>
<event>
 7    0  0.4779893E-002  0.4535763E+03  0.7546771E-02  0.1026661E+00
         21   -1    0    0  502  501  0.00000000000E+00  0.00000000000E+00  0.15494613954E+03  0.15494613954E+03  0.00000000000E+00 0. -1.
         21   -1    0    0  501  502 -0.00000000000E+00 -0.00000000000E+00 -0.33194027285E+03  0.33194027285E+03  0.00000000000E+00 0. -1.
      99926    2    1    2    0    0 -0.35527136788E-14 -0.14210854715E-13 -0.17699413330E+03  0.48688641239E+03  0.45357629496E+03 0.  0.
      99925    2    3    3    0    0  0.24180892615E+02  0.96246799239E+02 -0.16694509680E+03  0.32689687159E+03  0.26295006632E+03 0.  0.
         25    1    4    4    0    0  0.27717367167E+02  0.52331955627E+02 -0.12839796546E+03  0.18878673591E+03  0.12509000000E+03 0.  0.
         25    1    4    4    0    0 -0.35364745515E+01  0.43914843613E+02 -0.38547131340E+02  0.13811013568E+03  0.12509000000E+03 0.  0.
         25    1    3    3    0    0 -0.24180892615E+02 -0.96246799239E+02 -0.10049036502E+02  0.15998954080E+03  0.12509000000E+03 0.  0.
<mgrwt>
<rscale>  2 0.45357629E+03</rscale>
<asrwt>0</asrwt>
<pdfrwt beam="1">  1       21 0.22786197E-01 0.45357629E+03</pdfrwt>
<pdfrwt beam="2">  1       21 0.48814745E-01 0.45357629E+03</pdfrwt>
<totfact> 0.66955690E+04</totfact>
</mgrwt>
</event>
<event>
 7    0  0.4779893E-002  0.4561278E+03  0.7546771E-02  0.1025910E+00
         21   -1    0    0  502  501  0.00000000000E+00  0.00000000000E+00  0.50024315291E+03  0.50024315291E+03  0.00000000000E+00 0. -1.
         21   -1    0    0  501  502 -0.00000000000E+00 -0.00000000000E+00 -0.10397571858E+03  0.10397571858E+03  0.00000000000E+00 0. -1.
      99926    2    1    2    0    0  0.00000000000E+00 -0.14210854715E-13  0.39626743432E+03  0.60421887149E+03  0.45612779476E+03 0.  0.
      99925    2    3    3    0    0  0.35052469601E+02 -0.70921305422E+02  0.35824021822E+03  0.45140498320E+03  0.26300550892E+03 0.  0.
         25    1    4    4    0    0  0.17574437636E+02 -0.11487758919E+02  0.22578792632E+03  0.25897591632E+03  0.12509000000E+03 0.  0.
         25    1    3    3    0    0 -0.35052469601E+02  0.70921305422E+02  0.38027216107E+02  0.15281388829E+03  0.12509000000E+03 0.  0.
         25    1    4    4    0    0  0.17478031965E+02 -0.59433546503E+02  0.13245229190E+03  0.19242906688E+03  0.12509000000E+03 0.  0.
<mgrwt>
<rscale>  2 0.45612779E+03</rscale>
<asrwt>0</asrwt>
<pdfrwt beam="1">  1       21 0.73565169E-01 0.45612779E+03</pdfrwt>
<pdfrwt beam="2">  1       21 0.15290547E-01 0.45612779E+03</pdfrwt>
<totfact> 0.57901706E+04</totfact>
</mgrwt>
</event>
<event>
 7    0  0.4779893E-002  0.4537988E+03  0.7546771E-02  0.1026595E+00
         21   -1    0    0  502  501  0.00000000000E+00  0.00000000000E+00  0.32503884870E+02  0.32503884870E+02  0.00000000000E+00 0.  1.
         21   -1    0    0  501  502 -0.00000000000E+00 -0.00000000000E+00 -0.15839131249E+04  0.15839131249E+04  0.00000000000E+00 0.  1.
      99926    2    1    2    0    0  0.24424906542E-14  0.00000000000E+00 -0.15514092400E+04  0.16164170098E+04  0.45379876534E+03 0.  0.
      99925    2    3    3    0    0 -0.10064696874E+01  0.67902027616E+02 -0.65949888097E+03  0.71322085442E+03  0.26293252908E+03 0.  0.
         25    1    4    4    0    0 -0.36133871941E+02  0.50671833610E+02 -0.36718021297E+03  0.39286398196E+03  0.12509000000E+03 0.  0.
         25    1    3    3    0    0  0.10064696874E+01 -0.67902027616E+02 -0.89191035907E+03  0.90319615536E+03  0.12509000000E+03 0.  0.
         25    1    4    4    0    0  0.35127402254E+02  0.17230194006E+02 -0.29231866800E+03  0.32035687246E+03  0.12509000000E+03 0.  0.
<mgrwt>
<rscale>  2 0.45379877E+03</rscale>
<asrwt>0</asrwt>
<pdfrwt beam="1">  1       21 0.47799845E-02 0.45379877E+03</pdfrwt>
<pdfrwt beam="2">  1       21 0.23292833E+00 0.45379877E+03</pdfrwt>
<totfact> 0.21258936E+04</totfact>
</mgrwt>
</event>
<event>
 7    0  0.4779893E-002  0.4524095E+03  0.7546771E-02  0.1027006E+00
         21   -1    0    0  502  501  0.00000000000E+00  0.00000000000E+00  0.24091384026E+03  0.24091384026E+03  0.00000000000E+00 0.  1.
         21   -1    0    0  501  502 -0.00000000000E+00 -0.00000000000E+00 -0.21239371809E+03  0.21239371809E+03  0.00000000000E+00 0.  1.
      99926    2    1    2    0    0  0.00000000000E+00  0.00000000000E+00  0.28520122171E+02  0.45330755835E+03  0.45240948828E+03 0.  0.
      99925    2    3    3    0    0 -0.51225816095E+02  0.92938690354E+02  0.49784346485E+02  0.28789486315E+03  0.26295111080E+03 0.  0.
         25    1    4    4    0    0  0.11202061374E+02  0.30104474290E+02  0.35605726659E+02  0.13396656830E+03  0.12509000000E+03 0.  0.
         25    1    3    3    0    0  0.51225816095E+02 -0.92938690354E+02 -0.21264224314E+02  0.16541269520E+03  0.12509000000E+03 0.  0.
         25    1    4    4    0    0 -0.62427877469E+02  0.62834216063E+02  0.14178619827E+02  0.15392829484E+03  0.12509000000E+03 0.  0.
<mgrwt>
<rscale>  2 0.45240949E+03</rscale>
<asrwt>0</asrwt>
<pdfrwt beam="1">  1       21 0.35428506E-01 0.45240949E+03</pdfrwt>
<pdfrwt beam="2">  1       21 0.31234370E-01 0.45240949E+03</pdfrwt>
<totfact> 0.70107898E+04</totfact>
</mgrwt>
</event>
<event>
 7    0  0.4779893E-002  0.4463914E+03  0.7546771E-02  0.1028804E+00
         21   -1    0    0  502  501  0.00000000000E+00  0.00000000000E+00  0.40653395963E+03  0.40653395963E+03  0.00000000000E+00 0. -1.
         21   -1    0    0  501  502 -0.00000000000E+00 -0.00000000000E+00 -0.12253916245E+03  0.12253916245E+03  0.00000000000E+00 0. -1.
      99926    2    1    2    0    0  0.14210854715E-13  0.00000000000E+00  0.28399479718E+03  0.52907312209E+03  0.44639144670E+03 0.  0.
      99925    2    3    3    0    0 -0.71137969001E+02 -0.73208605411E+02  0.14757817108E+03  0.31770350620E+03  0.26217568678E+03 0.  0.
         25    1    4    4    0    0 -0.67014003487E+02 -0.27700959928E+02  0.51489193629E+02  0.15348245830E+03  0.12509000000E+03 0.  0.
         25    1    4    4    0    0 -0.41239655136E+01 -0.45507645482E+02  0.96088977446E+02  0.16422104791E+03  0.12509000000E+03 0.  0.
         25    1    3    3    0    0  0.71137969001E+02  0.73208605411E+02  0.13641662611E+03  0.21136961588E+03  0.12509000000E+03 0.  0.
<mgrwt>
<rscale>  2 0.44639145E+03</rscale>
<asrwt>0</asrwt>
<pdfrwt beam="1">  1       21 0.59784406E-01 0.44639145E+03</pdfrwt>
<pdfrwt beam="2">  1       21 0.18020465E-01 0.44639145E+03</pdfrwt>
<totfact> 0.67772576E+04</totfact>
</mgrwt>
</event>
<event>
 7    0  0.4779893E-002  0.4558786E+03  0.7546771E-02  0.1025983E+00
         21   -1    0    0  502  501  0.00000000000E+00  0.00000000000E+00  0.76344729333E+02  0.76344729333E+02  0.00000000000E+00 0. -1.
         21   -1    0    0  501  502 -0.00000000000E+00 -0.00000000000E+00 -0.68054898946E+03  0.68054898946E+03  0.00000000000E+00 0. -1.
      99926    2    1    2    0    0  0.00000000000E+00  0.00000000000E+00 -0.60420426013E+03  0.75689371880E+03  0.45587861717E+03 0.  0.
      99925    2    3    3    0    0  0.65101819310E+02 -0.92475811465E+02 -0.35697475791E+03  0.45762802171E+03  0.26306350162E+03 0.  0.
         25    1    4    4    0    0  0.37962921745E+02 -0.81872599074E+02 -0.23068094166E+03  0.27749866820E+03  0.12509000000E+03 0.  0.
         25    1    3    3    0    0 -0.65101819310E+02  0.92475811465E+02 -0.24722950222E+03  0.29926569708E+03  0.12509000000E+03 0.  0.
         25    1    4    4    0    0  0.27138897565E+02 -0.10603212390E+02 -0.12629381625E+03  0.18012935351E+03  0.12509000000E+03 0.  0.
<mgrwt>
<rscale>  2 0.45587862E+03</rscale>
<asrwt>0</asrwt>
<pdfrwt beam="1">  1       21 0.11227166E-01 0.45587862E+03</pdfrwt>
<pdfrwt beam="2">  1       21 0.10008073E+00 0.45587862E+03</pdfrwt>
<totfact> 0.49576892E+04</totfact>
</mgrwt>
</event>
<event>
 7    0  0.4779893E-002  0.4480825E+03  0.7546771E-02  0.1028295E+00
         21   -1    0    0  502  501  0.00000000000E+00  0.00000000000E+00  0.13974704126E+03  0.13974704126E+03  0.00000000000E+00 0.  1.
         21   -1    0    0  501  502 -0.00000000000E+00 -0.00000000000E+00 -0.35918101804E+03  0.35918101804E+03  0.00000000000E+00 0.  1.
      99926    2    1    2    0    0  0.00000000000E+00  0.00000000000E+00 -0.21943397678E+03  0.49892805930E+03  0.44808251271E+03 0.  0.
      99925    2    3    3    0    0  0.43931212132E+02 -0.15861844015E+02 -0.24569722481E+03  0.36284420357E+03  0.26288255988E+03 0.  0.
         25    1    4    4    0    0  0.21328463475E+02  0.25295783604E+02 -0.15219800113E+03  0.19976616247E+03  0.12509000000E+03 0.  0.
         25    1    4    4    0    0  0.22602748657E+02 -0.41157627619E+02 -0.93499223679E+02  0.16307804109E+03  0.12509000000E+03 0.  0.
         25    1    3    3    0    0 -0.43931212132E+02  0.15861844015E+02  0.26263248026E+02  0.13608385574E+03  0.12509000000E+03 0.  0.
<mgrwt>
<rscale>  2 0.44808251E+03</rscale>
<asrwt>0</asrwt>
<pdfrwt beam="1">  1       21 0.20551036E-01 0.44808251E+03</pdfrwt>
<pdfrwt beam="2">  1       21 0.52820737E-01 0.44808251E+03</pdfrwt>
<totfact> 0.69060865E+04</totfact>
</mgrwt>
</event>
<event>
 7    0  0.4779893E-002  0.4591827E+03  0.7546771E-02  0.1025019E+00
         21   -1    0    0  502  501  0.00000000000E+00  0.00000000000E+00  0.59789880985E+03  0.59789880985E+03  0.00000000000E+00 0. -1.
         21   -1    0    0  501  502 -0.00000000000E+00 -0.00000000000E+00 -0.88162405881E+02  0.88162405881E+02  0.00000000000E+00 0. -1.
      99926    2    1    2    0    0  0.00000000000E+00 -0.35527136788E-14  0.50973640397E+03  0.68606121573E+03  0.45918274162E+03 0.  0.
      99925    2    3    3    0    0  0.12222467160E+02  0.17598170545E+02  0.14759891080E+03  0.30232933490E+03  0.26298004479E+03 0.  0.
         25    1    4    4    0    0  0.47214548930E+01  0.33153310095E+02  0.11179231073E+03  0.17107443686E+03  0.12509000000E+03 0.  0.
         25    1    4    4    0    0  0.75010122666E+01 -0.15555139550E+02  0.35806600068E+02  0.13125489804E+03  0.12509000000E+03 0.  0.
         25    1    3    3    0    0 -0.12222467160E+02 -0.17598170545E+02  0.36213749317E+03  0.38373188084E+03  0.12509000000E+03 0.  0.
<mgrwt>
<rscale>  2 0.45918274E+03</rscale>
<asrwt>0</asrwt>
<pdfrwt beam="1">  1       21 0.87926293E-01 0.45918274E+03</pdfrwt>
<pdfrwt beam="2">  1       21 0.12965060E-01 0.45918274E+03</pdfrwt>
<totfact> 0.51934750E+04</totfact>
</mgrwt>
</event>
<event>
 7    0  0.4779893E-002  0.4498984E+03  0.7546771E-02  0.1027752E+00
         21   -1    0    0  502  501  0.00000000000E+00  0.00000000000E+00  0.15039596573E+04  0.15039596573E+04  0.00000000000E+00 0. -1.
         21   -1    0    0  501  502 -0.00000000000E+00 -0.00000000000E+00 -0.33645937749E+02  0.33645937749E+02  0.00000000000E+00 0. -1.
      99926    2    1    2    0    0  0.00000000000E+00  0.71054273576E-14  0.14703137196E+04  0.15376055951E+04  0.44989835744E+03 0.  0.
      99925    2    3    3    0    0 -0.46361145574E+02 -0.32382868007E+02  0.61367565971E+03  0.67003756912E+03  0.26297247526E+03 0.  0.
         25    1    4    4    0    0 -0.45340692294E+01  0.11933912584E+02  0.23357696725E+03  0.26527096294E+03  0.12509000000E+03 0.  0.
         25    1    3    3    0    0  0.46361145574E+02  0.32382868007E+02  0.85663805986E+03  0.86756802595E+03  0.12509000000E+03 0.  0.
         25    1    4    4    0    0 -0.41827076345E+02 -0.44316780591E+02  0.38009869247E+03  0.40476660617E+03  0.12509000000E+03 0.  0.
<mgrwt>
<rscale>  2 0.44989836E+03</rscale>
<asrwt>0</asrwt>
<pdfrwt beam="1">  1       21 0.22117049E+00 0.44989836E+03</pdfrwt>
<pdfrwt beam="2">  1       21 0.49479330E-02 0.44989836E+03</pdfrwt>
<totfact> 0.23801561E+04</totfact>
</mgrwt>
</event>
<event>
 7    0  0.4779893E-002  0.4540811E+03  0.7546771E-02  0.1026512E+00
         21   -1    0    0  502  501  0.00000000000E+00  0.00000000000E+00  0.69105724745E+02  0.69105724745E+02  0.00000000000E+00 0.  1.
         21   -1    0    0  501  502 -0.00000000000E+00 -0.00000000000E+00 -0.74592088044E+03  0.74592088044E+03  0.00000000000E+00 0.  1.
      99926    2    1    2    0    0  0.00000000000E+00  0.00000000000E+00 -0.67681515570E+03  0.81502660519E+03  0.45408106345E+03 0.  0.
      99925    2    3    3    0    0  0.92585542642E+02  0.21799441689E+02 -0.31896558382E+03  0.42419272416E+03  0.26296981805E+03 0.  0.
         25    1    4    4    0    0  0.46255923197E+02  0.48014392517E+02 -0.18776679686E+03  0.23526340647E+03  0.12509000000E+03 0.  0.
         25    1    3    3    0    0 -0.92585542642E+02 -0.21799441689E+02 -0.35784957188E+03  0.39083388103E+03  0.12509000000E+03 0.  0.
         25    1    4    4    0    0  0.46329619445E+02 -0.26214950828E+02 -0.13119878696E+03  0.18892931770E+03  0.12509000000E+03 0.  0.
<mgrwt>
<rscale>  2 0.45408106E+03</rscale>
<asrwt>0</asrwt>
<pdfrwt beam="1">  1       21 0.10162606E-01 0.45408106E+03</pdfrwt>
<pdfrwt beam="2">  1       21 0.10969425E+00 0.45408106E+03</pdfrwt>
<totfact> 0.47387347E+04</totfact>
</mgrwt>
</event>
<event>
 7    0  0.4779893E-002  0.4569333E+03  0.7546771E-02  0.1025674E+00
         21   -1    0    0  502  501  0.00000000000E+00  0.00000000000E+00  0.18579922770E+03  0.18579922770E+03  0.00000000000E+00 0.  1.
         21   -1    0    0  501  502 -0.00000000000E+00 -0.00000000000E+00 -0.28093227358E+03  0.28093227358E+03  0.00000000000E+00 0.  1.
      99926    2    1    2    0    0  0.00000000000E+00  0.00000000000E+00 -0.95133045881E+02  0.46673150129E+03  0.45693325319E+03 0.  0.
      99925    2    3    3    0    0  0.37682937298E+02  0.20716207522E+02 -0.16858218463E+03  0.31543229739E+03  0.26311293439E+03 0.  0.
         25    1    4    4    0    0  0.11713626837E+02  0.36551224863E+01 -0.13014806977E+03  0.18093257623E+03  0.12509000000E+03 0.  0.
         25    1    4    4    0    0  0.25969310460E+02  0.17061085036E+02 -0.38434114852E+02  0.13449972116E+03  0.12509000000E+03 0.  0.
         25    1    3    3    0    0 -0.37682937298E+02 -0.20716207522E+02  0.73449138744E+02  0.15129920390E+03  0.12509000000E+03 0.  0.
<mgrwt>
<rscale>  2 0.45693325E+03</rscale>
<asrwt>0</asrwt>
<pdfrwt beam="1">  1       21 0.27323416E-01 0.45693325E+03</pdfrwt>
<pdfrwt beam="2">  1       21 0.41313570E-01 0.45693325E+03</pdfrwt>
<totfact> 0.66651768E+04</totfact>
</mgrwt>
</event>
<event>
 7    0  0.4779893E-002  0.4483439E+03  0.7546771E-02  0.1028217E+00
         21   -1    0    0  502  501  0.00000000000E+00  0.00000000000E+00  0.16625829261E+04  0.16625829261E+04  0.00000000000E+00 0.  1.
         21   -1    0    0  501  502 -0.00000000000E+00 -0.00000000000E+00 -0.30225903741E+02  0.30225903741E+02  0.00000000000E+00 0.  1.
      99926    2    1    2    0    0  0.00000000000E+00  0.00000000000E+00  0.16323570223E+04  0.16928088298E+04  0.44834393711E+03 0.  0.
      99925    2    3    3    0    0 -0.98153271498E+02 -0.10370883170E+02  0.11865457222E+04  0.12193779021E+04  0.26315413213E+03 0.  0.
         25    1    3    3    0    0  0.98153271498E+02  0.10370883170E+02  0.44581130015E+03  0.47343092777E+03  0.12509000000E+03 0.  0.
         25    1    4    4    0    0 -0.71677763882E+02 -0.18246137989E+02  0.48779223568E+03  0.50897877822E+03  0.12509000000E+03 0.  0.
         25    1    4    4    0    0 -0.26475507616E+02  0.78752548189E+01  0.69875348651E+03  0.71039912384E+03  0.12509000000E+03 0.  0.
<mgrwt>
<rscale>  2 0.44834394E+03</rscale>
<asrwt>0</asrwt>
<pdfrwt beam="1">  1       21 0.24449743E+00 0.44834394E+03</pdfrwt>
<pdfrwt beam="2">  1       21 0.44449870E-02 0.44834394E+03</pdfrwt>
<totfact> 0.20448134E+04</totfact>
</mgrwt>
</event>
<event>
 7    0  0.4779893E-002  0.4572398E+03  0.7546771E-02  0.1025585E+00
         21   -1    0    0  502  501  0.00000000000E+00  0.00000000000E+00  0.40473195848E+02  0.40473195848E+02  0.00000000000E+00 0.  1.
         21   -1    0    0  501  502 -0.00000000000E+00 -0.00000000000E+00 -0.12913994492E+04  0.12913994492E+04  0.00000000000E+00 0.  1.
      99926    2    1    2    0    0 -0.26645352591E-14  0.00000000000E+00 -0.12509262534E+04  0.13318726451E+04  0.45723981816E+03 0.  0.
      99925    2    3    3    0    0 -0.60261464189E+01 -0.10310159936E+03 -0.63560380359E+03  0.69552723608E+03  0.26286819276E+03 0.  0.
         25    1    4    4    0    0  0.20202456503E+02 -0.39441963346E+02 -0.38327980188E+03  0.40560414489E+03  0.12509000000E+03 0.  0.
         25    1    3    3    0    0  0.60261464189E+01  0.10310159936E+03 -0.61532244980E+03  0.63634540901E+03  0.12509000000E+03 0.  0.
         25    1    4    4    0    0 -0.26228602922E+02 -0.63659636016E+02 -0.25232400171E+03  0.28992309120E+03  0.12509000000E+03 0.  0.
<mgrwt>
<rscale>  2 0.45723982E+03</rscale>
<asrwt>0</asrwt>
<pdfrwt beam="1">  1       21 0.59519415E-02 0.45723982E+03</pdfrwt>
<pdfrwt beam="2">  1       21 0.18991166E+00 0.45723982E+03</pdfrwt>
<totfact> 0.27717109E+04</totfact>
</mgrwt>
</event>
<event>
 7    0  0.4779893E-002  0.4320798E+03  0.7546771E-02  0.1033205E+00
         21   -1    0    0  502  501  0.00000000000E+00  0.00000000000E+00  0.15226186004E+03  0.15226186004E+03  0.00000000000E+00 0.  1.
         21   -1    0    0  501  502 -0.00000000000E+00 -0.00000000000E+00 -0.30653273549E+03  0.30653273549E+03  0.00000000000E+00 0.  1.
      99926    2    1    2    0    0  0.00000000000E+00  0.00000000000E+00 -0.15427087545E+03  0.45879459553E+03  0.43207982813E+03 0.  0.
      99925    2    3    3    0    0 -0.47257047737E+02 -0.29075073237E+02 -0.17453680435E+03  0.32045875629E+03  0.26296792574E+03 0.  0.
         25    1    3    3    0    0  0.47257047737E+02  0.29075073237E+02  0.20265928904E+02  0.13833583924E+03  0.12509000000E+03 0.  0.
         25    1    4    4    0    0  0.12779704691E+02 -0.10196232038E+01 -0.98772320737E+02  0.15989946819E+03  0.12509000000E+03 0.  0.
         25    1    4    4    0    0 -0.60036752428E+02 -0.28055450034E+02 -0.75764483615E+02  0.16055928810E+03  0.12509000000E+03 0.  0.
<mgrwt>
<rscale>  2 0.43207983E+03</rscale>
<asrwt>0</asrwt>
<pdfrwt beam="1">  1       21 0.22391450E-01 0.43207983E+03</pdfrwt>
<pdfrwt beam="2">  1       21 0.45078343E-01 0.43207983E+03</pdfrwt>
<totfact> 0.82249613E+04</totfact>
</mgrwt>
</event>
<event>
 7    0  0.4779893E-002  0.4562601E+03  0.7546771E-02  0.1025871E+00
         21   -1    0    0  502  501  0.00000000000E+00  0.00000000000E+00  0.10037780585E+03  0.10037780585E+03  0.00000000000E+00 0.  1.
         21   -1    0    0  501  502 -0.00000000000E+00 -0.00000000000E+00 -0.51847438740E+03  0.51847438740E+03  0.00000000000E+00 0.  1.
      99926    2    1    2    0    0 -0.35527136788E-14  0.00000000000E+00 -0.41809658155E+03  0.61885219324E+03  0.45626010737E+03 0.  0.
      99925    2    3    3    0    0 -0.30465696243E+02  0.61725664000E+02 -0.13881776484E+03  0.30519253404E+03  0.26293325153E+03 0.  0.
         25    1    4    4    0    0 -0.61796554715E+01  0.46406236383E+02 -0.11147022457E+03  0.17396794527E+03  0.12509000000E+03 0.  0.
         25    1    4    4    0    0 -0.24286040771E+02  0.15319427617E+02 -0.27347540263E+02  0.13122458877E+03  0.12509000000E+03 0.  0.
         25    1    3    3    0    0  0.30465696243E+02 -0.61725664000E+02 -0.27927881672E+03  0.31365965920E+03  0.12509000000E+03 0.  0.
<mgrwt>
<rscale>  2 0.45626011E+03</rscale>
<asrwt>0</asrwt>
<pdfrwt beam="1">  1       21 0.14761443E-01 0.45626011E+03</pdfrwt>
<pdfrwt beam="2">  1       21 0.76246231E-01 0.45626011E+03</pdfrwt>
<totfact> 0.56963659E+04</totfact>
</mgrwt>
</event>
<event>
 7    0  0.4779893E-002  0.4577237E+03  0.7546771E-02  0.1025443E+00
         21   -1    0    0  502  501  0.00000000000E+00  0.00000000000E+00  0.58810635279E+02  0.58810635279E+02  0.00000000000E+00 0.  1.
         21   -1    0    0  501  502 -0.00000000000E+00 -0.00000000000E+00 -0.89061694760E+03  0.89061694760E+03  0.00000000000E+00 0.  1.
      99926    2    1    2    0    0 -0.19984014443E-14  0.00000000000E+00 -0.83180631232E+03  0.94942758288E+03  0.45772370915E+03 0.  0.
      99925    2    3    3    0    0  0.13484393760E+01  0.10221198233E+03 -0.40916571995E+03  0.49696577672E+03  0.26288645689E+03 0.  0.
         25    1    4    4    0    0  0.33326355568E+02  0.54316771318E+02 -0.24800810210E+03  0.28498506001E+03  0.12509000000E+03 0.  0.
         25    1    4    4    0    0 -0.31977916192E+02  0.47895211015E+02 -0.16115761786E+03  0.21198071671E+03  0.12509000000E+03 0.  0.
         25    1    3    3    0    0 -0.13484393760E+01 -0.10221198233E+03 -0.42264059237E+03  0.45246180616E+03  0.12509000000E+03 0.  0.
<mgrwt>
<rscale>  2 0.45772371E+03</rscale>
<asrwt>0</asrwt>
<pdfrwt beam="1">  1       21 0.86486229E-02 0.45772371E+03</pdfrwt>
<pdfrwt beam="2">  1       21 0.13097308E+00 0.45772371E+03</pdfrwt>
<totfact> 0.40298795E+04</totfact>
</mgrwt>
</event>
<event>
 7    0  0.4779893E-002  0.4499986E+03  0.7546771E-02  0.1027722E+00
         21   -1    0    0  502  501  0.00000000000E+00  0.00000000000E+00  0.32548333483E+03  0.32548333483E+03  0.00000000000E+00 0.  1.
         21   -1    0    0  501  502 -0.00000000000E+00 -0.00000000000E+00 -0.15553693025E+03  0.15553693025E+03  0.00000000000E+00 0.  1.
      99926    2    1    2    0    0  0.14210854715E-13  0.00000000000E+00  0.16994640458E+03  0.48102026508E+03  0.44999857221E+03 0.  0.
      99925    2    3    3    0    0 -0.78922025178E+02  0.44601743029E+02  0.43847389440E+02  0.28160494155E+03  0.26298431133E+03 0.  0.
         25    1    3    3    0    0  0.78922025178E+02 -0.44601743029E+02  0.12609901514E+03  0.19941532353E+03  0.12509000000E+03 0.  0.
         25    1    4    4    0    0 -0.20076574870E+02  0.22913997008E+02 -0.15368299735E+02  0.12966037503E+03  0.12509000000E+03 0.  0.
         25    1    4    4    0    0 -0.58845450309E+02  0.21687746021E+02  0.59215689175E+02  0.15194456652E+03  0.12509000000E+03 0.  0.
<mgrwt>
<rscale>  2 0.44999857E+03</rscale>
<asrwt>0</asrwt>
<pdfrwt beam="1">  1       21 0.47865196E-01 0.44999857E+03</pdfrwt>
<pdfrwt beam="2">  1       21 0.22873078E-01 0.44999857E+03</pdfrwt>
<totfact> 0.69338174E+04</totfact>
</mgrwt>
</event>
<event>
 7    0  0.4779893E-002  0.4627021E+03  0.7546771E-02  0.1024000E+00
         21   -1    0    0  502  501  0.00000000000E+00  0.00000000000E+00  0.35750948847E+03  0.35750948847E+03  0.00000000000E+00 0. -1.
         21   -1    0    0  501  502 -0.00000000000E+00 -0.00000000000E+00 -0.14971155198E+03  0.14971155198E+03  0.00000000000E+00 0. -1.
      99926    2    1    2    0    0  0.00000000000E+00  0.00000000000E+00  0.20779793649E+03  0.50722104044E+03  0.46270206554E+03 0.  0.
      99925    2    3    3    0    0  0.35125643129E+02  0.52088473203E+02  0.24227990465E+03  0.36305608605E+03  0.26298887729E+03 0.  0.
         25    1    4    4    0    0  0.56540137814E+02  0.39529075727E+02  0.12672987922E+03  0.19096414690E+03  0.12509000000E+03 0.  0.
         25    1    4    4    0    0 -0.21414494685E+02  0.12559397476E+02  0.11555002542E+03  0.17209193916E+03  0.12509000000E+03 0.  0.
         25    1    3    3    0    0 -0.35125643129E+02 -0.52088473203E+02 -0.34481968159E+02  0.14416495439E+03  0.12509000000E+03 0.  0.
<mgrwt>
<rscale>  2 0.46270207E+03</rscale>
<asrwt>0</asrwt>
<pdfrwt beam="1">  1       21 0.52574925E-01 0.46270207E+03</pdfrwt>
<pdfrwt beam="2">  1       21 0.22016405E-01 0.46270207E+03</pdfrwt>
<totfact> 0.60953697E+04</totfact>
</mgrwt>
</event>
<event>
 7    0  0.4779893E-002  0.4819422E+03  0.7546771E-02  0.1018603E+00
         21   -1    0    0  502  501  0.00000000000E+00  0.00000000000E+00  0.10270790630E+03  0.10270790630E+03  0.00000000000E+00 0.  1.
         21   -1    0    0  501  502 -0.00000000000E+00 -0.00000000000E+00 -0.56536129736E+03  0.56536129736E+03  0.00000000000E+00 0.  1.
      99926    2    1    2    0    0  0.00000000000E+00  0.00000000000E+00 -0.46265339106E+03  0.66806920366E+03  0.48194221710E+03 0.  0.
      99925    2    3    3    0    0 -0.11072225968E+03  0.78392334549E+02 -0.30973516546E+03  0.42841055323E+03  0.26304933472E+03 0.  0.
         25    1    4    4    0    0 -0.48035426523E+02  0.76699324130E+02 -0.13983967691E+03  0.20830946177E+03  0.12509000000E+03 0.  0.
         25    1    3    3    0    0  0.11072225968E+03 -0.78392334549E+02 -0.15291822560E+03  0.23965865043E+03  0.12509000000E+03 0.  0.
         25    1    4    4    0    0 -0.62686833152E+02  0.16930104190E+01 -0.16989548855E+03  0.22010109147E+03  0.12509000000E+03 0.  0.
<mgrwt>
<rscale>  2 0.48194222E+03</rscale>
<asrwt>0</asrwt>
<pdfrwt beam="1">  1       21 0.15104104E-01 0.48194222E+03</pdfrwt>
<pdfrwt beam="2">  1       21 0.83141366E-01 0.48194222E+03</pdfrwt>
<totfact> 0.44448224E+04</totfact>
</mgrwt>
</event>
<event>
 7    0  0.4779893E-002  0.4554540E+03  0.7546771E-02  0.1026108E+00
         21   -1    0    0  502  501  0.00000000000E+00  0.00000000000E+00  0.30993554260E+04  0.30993554260E+04  0.00000000000E+00 0.  1.
         21   -1    0    0  501  502 -0.00000000000E+00 -0.00000000000E+00 -0.16732375290E+02  0.16732375290E+02  0.00000000000E+00 0.  1.
      99926    2    1    2    0    0  0.26645352591E-14  0.00000000000E+00  0.30826230507E+04  0.31160878013E+04  0.45545396318E+03 0.  0.
      99925    2    3    3    0    0  0.75895840545E+01  0.72683327917E+02  0.13447359552E+04  0.13721727997E+04  0.26306450744E+03 0.  0.
         25    1    4    4    0    0  0.39812379471E+02  0.24134263509E+02  0.58811752921E+03  0.60307315020E+03  0.12509000000E+03 0.  0.
         25    1    3    3    0    0 -0.75895840545E+01 -0.72683327917E+02  0.17378870955E+04  0.17439150016E+04  0.12509000000E+03 0.  0.
         25    1    4    4    0    0 -0.32222795416E+02  0.48549064407E+02  0.75661842600E+03  0.76909964950E+03  0.12509000000E+03 0.  0.
<mgrwt>
<rscale>  2 0.45545396E+03</rscale>
<asrwt>0</asrwt>
<pdfrwt beam="1">  1       21 0.45578716E+00 0.45545396E+03</pdfrwt>
<pdfrwt beam="2">  1       21 0.24606456E-02 0.45545396E+03</pdfrwt>
<totfact> 0.26421737E+03</totfact>
</mgrwt>
</event>
<event>
 7    0  0.4779893E-002  0.4601819E+03  0.7546771E-02  0.1024728E+00
         21   -1    0    0  502  501  0.00000000000E+00  0.00000000000E+00  0.17383884434E+03  0.17383884434E+03  0.00000000000E+00 0.  1.
         21   -1    0    0  501  502 -0.00000000000E+00 -0.00000000000E+00 -0.30454554020E+03  0.30454554020E+03  0.00000000000E+00 0.  1.
      99926    2    1    2    0    0  0.35527136788E-14  0.00000000000E+00 -0.13070669586E+03  0.47838438454E+03  0.46018189776E+03 0.  0.
      99925    2    3    3    0    0  0.22695986206E+02 -0.11514696396E+03 -0.67955414062E+02  0.29573947614E+03  0.26281165946E+03 0.  0.
         25    1    4    4    0    0  0.15572686572E+02 -0.14769106611E+02 -0.22613864298E+02  0.12891675623E+03  0.12509000000E+03 0.  0.
         25    1    3    3    0    0 -0.22695986206E+02  0.11514696396E+03 -0.62751281797E+02  0.18264490840E+03  0.12509000000E+03 0.  0.
         25    1    4    4    0    0  0.71232996333E+01 -0.10037785735E+03 -0.45341549764E+02  0.16682271991E+03  0.12509000000E+03 0.  0.
<mgrwt>
<rscale>  2 0.46018190E+03</rscale>
<asrwt>0</asrwt>
<pdfrwt beam="1">  1       21 0.25564536E-01 0.46018190E+03</pdfrwt>
<pdfrwt beam="2">  1       21 0.44786109E-01 0.46018190E+03</pdfrwt>
<totfact> 0.64139421E+04</totfact>
</mgrwt>
</event>
<event>
 7    0  0.4779893E-002  0.4537645E+03  0.7546771E-02  0.1026605E+00
         21   -1    0    0  502  501  0.00000000000E+00  0.00000000000E+00  0.19699774715E+03  0.19699774715E+03  0.00000000000E+00 0. -1.
         21   -1    0    0  501  502 -0.00000000000E+00 -0.00000000000E+00 -0.26130028013E+03  0.26130028013E+03  0.00000000000E+00 0. -1.
      99926    2    1    2    0    0  0.00000000000E+00  0.00000000000E+00 -0.64302532982E+02  0.45829802728E+03  0.45376454915E+03 0.  0.
      99925    2    3    3    0    0  0.96823343012E+02  0.17020812570E+02  0.13594494397E+02  0.28115423601E+03  0.26305593766E+03 0.  0.
         25    1    4    4    0    0  0.36141805024E+02 -0.39461700394E+01  0.43629487807E+02  0.13737846496E+03  0.12509000000E+03 0.  0.
         25    1    3    3    0    0 -0.96823343012E+02 -0.17020812570E+02 -0.77897027379E+02  0.17714379127E+03  0.12509000000E+03 0.  0.
         25    1    4    4    0    0  0.60681537988E+02  0.20966982609E+02 -0.30034993410E+02  0.14377577105E+03  0.12509000000E+03 0.  0.
<mgrwt>
<rscale>  2 0.45376455E+03</rscale>
<asrwt>0</asrwt>
<pdfrwt beam="1">  1       21 0.28970257E-01 0.45376455E+03</pdfrwt>
<pdfrwt beam="2">  1       21 0.38426511E-01 0.45376455E+03</pdfrwt>
<totfact> 0.68981925E+04</totfact>
</mgrwt>
</event>
<event>
 7    0  0.4779893E-002  0.3972846E+03  0.7546771E-02  0.1044724E+00
         21   -1    0    0  502  501  0.00000000000E+00  0.00000000000E+00  0.52356347855E+03  0.52356347855E+03  0.00000000000E+00 0. -1.
         21   -1    0    0  501  502 -0.00000000000E+00 -0.00000000000E+00 -0.75365762798E+02  0.75365762798E+02  0.00000000000E+00 0. -1.
      99926    2    1    2    0    0  0.35527136788E-14 -0.35527136788E-14  0.44819771575E+03  0.59892924135E+03  0.39728458784E+03 0.  0.
      99925    2    3    3    0    0 -0.29237461011E+02 -0.19809181611E+02  0.32768939377E+03  0.42168083778E+03  0.26303451742E+03 0.  0.
         25    1    4    4    0    0 -0.73345013483E+01 -0.24354067876E+02  0.10500081752E+03  0.16528640390E+03  0.12509000000E+03 0.  0.
         25    1    4    4    0    0 -0.21902959663E+02  0.45448862656E+01  0.22268857625E+03  0.25639443388E+03  0.12509000000E+03 0.  0.
         25    1    3    3    0    0  0.29237461011E+02  0.19809181611E+02  0.12050832198E+03  0.17724840357E+03  0.12509000000E+03 0.  0.
<mgrwt>
<rscale>  2 0.39728459E+03</rscale>
<asrwt>0</asrwt>
<pdfrwt beam="1">  1       21 0.76994627E-01 0.39728459E+03</pdfrwt>
<pdfrwt beam="2">  1       21 0.11083201E-01 0.39728459E+03</pdfrwt>
<totfact> 0.95308342E+04</totfact>
</mgrwt>
</event>
<event>
 7    0  0.4779893E-002  0.4546459E+03  0.7546771E-02  0.1026346E+00
         21   -1    0    0  502  501  0.00000000000E+00  0.00000000000E+00  0.39069204020E+02  0.39069204020E+02  0.00000000000E+00 0. -1.
         21   -1    0    0  501  502 -0.00000000000E+00 -0.00000000000E+00 -0.13226712541E+04  0.13226712541E+04  0.00000000000E+00 0. -1.
      99926    2    1    2    0    0  0.71054273576E-14 -0.71054273576E-14 -0.12836020501E+04  0.13617404581E+04  0.45464585373E+03 0.  0.
      99925    2    3    3    0    0  0.58869171478E+02 -0.40681480794E+02 -0.54263008062E+03  0.60688449182E+03  0.26218470548E+03 0.  0.
         25    1    4    4    0    0  0.49678063829E+02 -0.57020186341E+01 -0.34336837141E+03  0.36884925054E+03  0.12509000000E+03 0.  0.
         25    1    3    3    0    0 -0.58869171478E+02  0.40681480794E+02 -0.74097196946E+03  0.75485596630E+03  0.12509000000E+03 0.  0.
         25    1    4    4    0    0  0.91911076493E+01 -0.34979462160E+02 -0.19926170921E+03  0.23803524128E+03  0.12509000000E+03 0.  0.
<mgrwt>
<rscale>  2 0.45464585E+03</rscale>
<asrwt>0</asrwt>
<pdfrwt beam="1">  1       21 0.57454716E-02 0.45464585E+03</pdfrwt>
<pdfrwt beam="2">  1       21 0.19451047E+00 0.45464585E+03</pdfrwt>
<totfact> 0.27445111E+04</totfact>
</mgrwt>
</event>
<event>
 7    0  0.4779893E-002  0.4527122E+03  0.7546771E-02  0.1026916E+00
         21   -1    0    0  502  501  0.00000000000E+00  0.00000000000E+00  0.78589220887E+03  0.78589220887E+03  0.00000000000E+00 0.  1.
         21   -1    0    0  501  502 -0.00000000000E+00 -0.00000000000E+00 -0.65196082944E+02  0.65196082944E+02  0.00000000000E+00 0.  1.
      99926    2    1    2    0    0  0.00000000000E+00  0.00000000000E+00  0.72069612592E+03  0.85108829181E+03  0.45271224253E+03 0.  0.
      99925    2    3    3    0    0  0.84992796668E+02 -0.69126971832E+02  0.41973985042E+03  0.50725039165E+03  0.26290512373E+03 0.  0.
         25    1    3    3    0    0 -0.84992796668E+02  0.69126971832E+02  0.30095627550E+03  0.34383790016E+03  0.12509000000E+03 0.  0.
         25    1    4    4    0    0  0.60529733238E+02 -0.77834279931E+01  0.16492042643E+03  0.21580242239E+03  0.12509000000E+03 0.  0.
         25    1    4    4    0    0  0.24463063430E+02 -0.61343543838E+02  0.25481942399E+03  0.29144796926E+03  0.12509000000E+03 0.  0.
<mgrwt>
<rscale>  2 0.45271224E+03</rscale>
<asrwt>0</asrwt>
<pdfrwt beam="1">  1       21 0.11557238E+00 0.45271224E+03</pdfrwt>
<pdfrwt beam="2">  1       21 0.95876597E-02 0.45271224E+03</pdfrwt>
<totfact> 0.46214537E+04</totfact>
</mgrwt>
</event>
<event>
 7    0  0.4779893E-002  0.4594655E+03  0.7546771E-02  0.1024936E+00
         21   -1    0    0  502  501  0.00000000000E+00  0.00000000000E+00  0.69850662693E+03  0.69850662693E+03  0.00000000000E+00 0.  1.
         21   -1    0    0  501  502 -0.00000000000E+00 -0.00000000000E+00 -0.75557109202E+02  0.75557109202E+02  0.00000000000E+00 0.  1.
      99926    2    1    2    0    0  0.14210854715E-13  0.71054273576E-14  0.62294951773E+03  0.77406373613E+03  0.45946552206E+03 0.  0.
      99925    2    3    3    0    0  0.88370038020E+02  0.60326395539E+02  0.47118459981E+03  0.55016948424E+03  0.26310263525E+03 0.  0.
         25    1    3    3    0    0 -0.88370038020E+02 -0.60326395539E+02  0.15176491792E+03  0.22389425189E+03  0.12509000000E+03 0.  0.
         25    1    4    4    0    0  0.72766833773E+02  0.38417179287E+01  0.26552642763E+03  0.30242612778E+03  0.12509000000E+03 0.  0.
         25    1    4    4    0    0  0.15603204247E+02  0.56484677610E+02  0.20565817218E+03  0.24774335646E+03  0.12509000000E+03 0.  0.
<mgrwt>
<rscale>  2 0.45946552E+03</rscale>
<asrwt>0</asrwt>
<pdfrwt beam="1">  1       21 0.10272156E+00 0.45946552E+03</pdfrwt>
<pdfrwt beam="2">  1       21 0.11111340E-01 0.45946552E+03</pdfrwt>
<totfact> 0.47362755E+04</totfact>
</mgrwt>
</event>
<event>
 7    0  0.4779893E-002  0.4636296E+03  0.7546771E-02  0.1023734E+00
         21   -1    0    0  502  501  0.00000000000E+00  0.00000000000E+00  0.64493348011E+03  0.64493348011E+03  0.00000000000E+00 0. -1.
         21   -1    0    0  501  502 -0.00000000000E+00 -0.00000000000E+00 -0.83323486275E+02  0.83323486275E+02  0.00000000000E+00 0. -1.
      99926    2    1    2    0    0  0.00000000000E+00  0.00000000000E+00  0.56160999384E+03  0.72825696639E+03  0.46362961932E+03 0.  0.
      99925    2    3    3    0    0 -0.10883422520E+03 -0.24844798463E+02  0.42458053717E+03  0.51172352167E+03  0.26292618261E+03 0.  0.
         25    1    3    3    0    0  0.10883422520E+03  0.24844798463E+02  0.13702945667E+03  0.21653344472E+03  0.12509000000E+03 0.  0.
         25    1    4    4    0    0 -0.34717445454E+02 -0.25981622173E+02  0.14338557343E+03  0.19515961795E+03  0.12509000000E+03 0.  0.
         25    1    4    4    0    0 -0.74116779749E+02  0.11368237106E+01  0.28119496373E+03  0.31656390372E+03  0.12509000000E+03 0.  0.
<mgrwt>
<rscale>  2 0.46362962E+03</rscale>
<asrwt>0</asrwt>
<pdfrwt beam="1">  1       21 0.94843156E-01 0.46362962E+03</pdfrwt>
<pdfrwt beam="2">  1       21 0.12253454E-01 0.46362962E+03</pdfrwt>
<totfact> 0.48050661E+04</totfact>
</mgrwt>
</event>
<event>
 7    0  0.4779893E-002  0.4627962E+03  0.7546771E-02  0.1023973E+00
         21   -1    0    0  502  501  0.00000000000E+00  0.00000000000E+00  0.20565801576E+03  0.20565801576E+03  0.00000000000E+00 0. -1.
         21   -1    0    0  501  502 -0.00000000000E+00 -0.00000000000E+00 -0.26035982156E+03  0.26035982156E+03  0.00000000000E+00 0. -1.
      99926    2    1    2    0    0  0.00000000000E+00  0.00000000000E+00 -0.54701805794E+02  0.46601783732E+03  0.46279621557E+03 0.  0.
      99925    2    3    3    0    0  0.34347945106E+02 -0.22581198642E+01  0.81904027052E+02  0.27762053876E+03  0.26302093729E+03 0.  0.
         25    1    4    4    0    0  0.19543140826E+01  0.33137221410E+02  0.56695060967E+02  0.14129307423E+03  0.12509000000E+03 0.  0.
         25    1    3    3    0    0 -0.34347945106E+02  0.22581198642E+01 -0.13660583285E+03  0.18839729856E+03  0.12509000000E+03 0.  0.
         25    1    4    4    0    0  0.32393631023E+02 -0.35395341274E+02  0.25208966084E+02  0.13632746453E+03  0.12509000000E+03 0.  0.
<mgrwt>
<rscale>  2 0.46279622E+03</rscale>
<asrwt>0</asrwt>
<pdfrwt beam="1">  1       21 0.30243826E-01 0.46279622E+03</pdfrwt>
<pdfrwt beam="2">  1       21 0.38288209E-01 0.46279622E+03</pdfrwt>
<totfact> 0.63691108E+04</totfact>
</mgrwt>
</event>
<event>
 7    0  0.4779893E-002  0.4505812E+03  0.7546771E-02  0.1027549E+00
         21   -1    0    0  502  501  0.00000000000E+00  0.00000000000E+00  0.11622916008E+03  0.11622916008E+03  0.00000000000E+00 0.  1.
         21   -1    0    0  501  502 -0.00000000000E+00 -0.00000000000E+00 -0.43668774502E+03  0.43668774502E+03  0.00000000000E+00 0.  1.
      99926    2    1    2    0    0  0.00000000000E+00  0.00000000000E+00 -0.32045858493E+03  0.55291690510E+03  0.45058117947E+03 0.  0.
      99925    2    3    3    0    0 -0.52100340516E+02  0.90125969989E+02 -0.16418891698E+03  0.32729586626E+03  0.26330105898E+03 0.  0.
         25    1    4    4    0    0 -0.29612535266E+02  0.43547895994E+02 -0.12942614509E+03  0.18754187965E+03  0.12509000000E+03 0.  0.
         25    1    4    4    0    0 -0.22487805250E+02  0.46578073995E+02 -0.34762771890E+02  0.13975398660E+03  0.12509000000E+03 0.  0.
         25    1    3    3    0    0  0.52100340516E+02 -0.90125969989E+02 -0.15626966795E+03  0.22562103884E+03  0.12509000000E+03 0.  0.
<mgrwt>
<rscale>  2 0.45058118E+03</rscale>
<asrwt>0</asrwt>
<pdfrwt beam="1">  1       21 0.17092524E-01 0.45058118E+03</pdfrwt>
<pdfrwt beam="2">  1       21 0.64218785E-01 0.45058118E+03</pdfrwt>
<totfact> 0.63878132E+04</totfact>
</mgrwt>
</event>
<event>
 7    0  0.4779893E-002  0.4413270E+03  0.7546771E-02  0.1030340E+00
         21   -1    0    0  502  501  0.00000000000E+00  0.00000000000E+00  0.56349380372E+02  0.56349380372E+02  0.00000000000E+00 0. -1.
         21   -1    0    0  501  502 -0.00000000000E+00 -0.00000000000E+00 -0.86411576222E+03  0.86411576222E+03  0.00000000000E+00 0. -1.
      99926    2    1    2    0    0  0.00000000000E+00  0.00000000000E+00 -0.80776638184E+03  0.92046514259E+03  0.44132703416E+03 0.  0.
      99925    2    3    3    0    0  0.76881495662E+02  0.51817645299E+02 -0.59241484207E+03  0.65472160734E+03  0.26288629725E+03 0.  0.
         25    1    3    3    0    0 -0.76881495662E+02 -0.51817645299E+02 -0.21535153978E+03  0.26574353524E+03  0.12509000000E+03 0.  0.
         25    1    4    4    0    0  0.95105440084E+01  0.58273420530E+00 -0.22773313991E+03  0.26000130988E+03  0.12509000000E+03 0.  0.
         25    1    4    4    0    0  0.67370951654E+02  0.51234911093E+02 -0.36468170216E+03  0.39472029747E+03  0.12509000000E+03 0.  0.
<mgrwt>
<rscale>  2 0.44132703E+03</rscale>
<asrwt>0</asrwt>
<pdfrwt beam="1">  1       21 0.82866732E-02 0.44132703E+03</pdfrwt>
<pdfrwt beam="2">  1       21 0.12707585E+00 0.44132703E+03</pdfrwt>
<totfact> 0.47211264E+04</totfact>
</mgrwt>
</event>
<event>
 7    0  0.4779893E-002  0.4481391E+03  0.7546771E-02  0.1028278E+00
         21   -1    0    0  502  501  0.00000000000E+00  0.00000000000E+00  0.46302432371E+02  0.46302432371E+02  0.00000000000E+00 0. -1.
         21   -1    0    0  501  502 -0.00000000000E+00 -0.00000000000E+00 -0.10843310645E+04  0.10843310645E+04  0.00000000000E+00 0. -1.
      99926    2    1    2    0    0  0.00000000000E+00  0.00000000000E+00 -0.10380286322E+04  0.11306334969E+04  0.44813911136E+03 0.  0.
      99925    2    3    3    0    0  0.52051861735E+02 -0.63872544293E+02 -0.48552081792E+03  0.55818132325E+03  0.26276762884E+03 0.  0.
         25    1    4    4    0    0  0.23517485516E+02 -0.62924431785E+02 -0.20124903533E+03  0.24629502342E+03  0.12509000000E+03 0.  0.
         25    1    4    4    0    0  0.28534376219E+02 -0.94811250788E+00 -0.28427178259E+03  0.31188629983E+03  0.12509000000E+03 0.  0.
         25    1    3    3    0    0 -0.52051861735E+02  0.63872544293E+02 -0.55250781423E+03  0.57245217365E+03  0.12509000000E+03 0.  0.
<mgrwt>
<rscale>  2 0.44813911E+03</rscale>
<asrwt>0</asrwt>
<pdfrwt beam="1">  1       21 0.68091811E-02 0.44813911E+03</pdfrwt>
<pdfrwt beam="2">  1       21 0.15946045E+00 0.44813911E+03</pdfrwt>
<totfact> 0.36340615E+04</totfact>
</mgrwt>
</event>
<event>
 7    0  0.4779893E-002  0.4543975E+03  0.7546771E-02  0.1026419E+00
         21   -1    0    0  502  501  0.00000000000E+00  0.00000000000E+00  0.21235643656E+03  0.21235643656E+03  0.00000000000E+00 0. -1.
         21   -1    0    0  501  502 -0.00000000000E+00 -0.00000000000E+00 -0.24307844496E+03  0.24307844496E+03  0.00000000000E+00 0. -1.
      99926    2    1    2    0    0 -0.71054273576E-14  0.00000000000E+00 -0.30722008402E+02  0.45543488151E+03  0.45439750164E+03 0.  0.
      99925    2    3    3    0    0 -0.37458673857E+02 -0.10522832928E+03 -0.52569293871E+01  0.28581138114E+03  0.26302919373E+03 0.  0.
         25    1    3    3    0    0  0.37458673857E+02  0.10522832928E+03 -0.25465079015E+02  0.16962350037E+03  0.12509000000E+03 0.  0.
         25    1    4    4    0    0  0.11542556293E+01 -0.85838191819E+02  0.12756106421E+02  0.15224898631E+03  0.12509000000E+03 0.  0.
         25    1    4    4    0    0 -0.38612929487E+02 -0.19390137460E+02 -0.18013035809E+02  0.13356239483E+03  0.12509000000E+03 0.  0.
<mgrwt>
<rscale>  2 0.45439750E+03</rscale>
<asrwt>0</asrwt>
<pdfrwt beam="1">  1       21 0.31228888E-01 0.45439750E+03</pdfrwt>
<pdfrwt beam="2">  1       21 0.35746830E-01 0.45439750E+03</pdfrwt>
<totfact> 0.68844335E+04</totfact>
</mgrwt>
</event>
<event>
 7    0  0.4779893E-002  0.4270151E+03  0.7546771E-02  0.1034807E+00
         21   -1    0    0  502  501  0.00000000000E+00  0.00000000000E+00  0.23119561735E+03  0.23119561735E+03  0.00000000000E+00 0. -1.
         21   -1    0    0  501  502 -0.00000000000E+00 -0.00000000000E+00 -0.19717271308E+03  0.19717271308E+03  0.00000000000E+00 0. -1.
      99926    2    1    2    0    0  0.71054273576E-14  0.00000000000E+00  0.34022904279E+02  0.42836833043E+03  0.42701506824E+03 0.  0.
      99925    2    3    3    0    0  0.46351918907E+02 -0.33664425677E+02 -0.39859596620E+02  0.27220198969E+03  0.26310329113E+03 0.  0.
         25    1    3    3    0    0 -0.46351918907E+02  0.33664425677E+02  0.73882500898E+02  0.15616634074E+03  0.12509000000E+03 0.  0.
         25    1    4    4    0    0  0.34154623019E+02 -0.38855566378E+02  0.12516976345E+02  0.13594291489E+03  0.12509000000E+03 0.  0.
         25    1    4    4    0    0  0.12197295888E+02  0.51911407006E+01 -0.52376572965E+02  0.13625907480E+03  0.12509000000E+03 0.  0.
<mgrwt>
<rscale>  2 0.42701507E+03</rscale>
<asrwt>0</asrwt>
<pdfrwt beam="1">  1       21 0.33999356E-01 0.42701507E+03</pdfrwt>
<pdfrwt beam="2">  1       21 0.28995987E-01 0.42701507E+03</pdfrwt>
<totfact> 0.88768035E+04</totfact>
</mgrwt>
</event>
<event>
 7    0  0.4779893E-002  0.4512966E+03  0.7546771E-02  0.1027336E+00
         21   -1    0    0  502  501  0.00000000000E+00  0.00000000000E+00  0.61581388907E+03  0.61581388907E+03  0.00000000000E+00 0.  1.
         21   -1    0    0  501  502 -0.00000000000E+00 -0.00000000000E+00 -0.82682704744E+02  0.82682704744E+02  0.00000000000E+00 0.  1.
      99926    2    1    2    0    0 -0.71054273576E-14  0.00000000000E+00  0.53313118432E+03  0.69849659381E+03  0.45129661185E+03 0.  0.
      99925    2    3    3    0    0 -0.61027887816E+02 -0.83641569010E+02  0.39260148672E+03  0.48374925584E+03  0.26297737544E+03 0.  0.
         25    1    4    4    0    0 -0.65622889794E+02 -0.63008722542E+02  0.23664919742E+03  0.28271330623E+03  0.12509000000E+03 0.  0.
         25    1    4    4    0    0  0.45950019785E+01 -0.20632846468E+02  0.15595228930E+03  0.20103594961E+03  0.12509000000E+03 0.  0.
         25    1    3    3    0    0  0.61027887816E+02  0.83641569010E+02  0.14052969760E+03  0.21474733797E+03  0.12509000000E+03 0.  0.
<mgrwt>
<rscale>  2 0.45129661E+03</rscale>
<asrwt>0</asrwt>
<pdfrwt beam="1">  1       21 0.90560864E-01 0.45129661E+03</pdfrwt>
<pdfrwt beam="2">  1       21 0.12159222E-01 0.45129661E+03</pdfrwt>
<totfact> 0.54557482E+04</totfact>
</mgrwt>
</event>
<event>
 7    0  0.4779893E-002  0.4384383E+03  0.7546771E-02  0.1031227E+00
         21   -1    0    0  502  501  0.00000000000E+00  0.00000000000E+00  0.30248483268E+03  0.30248483268E+03  0.00000000000E+00 0. -1.
         21   -1    0    0  501  502 -0.00000000000E+00 -0.00000000000E+00 -0.15887422218E+03  0.15887422218E+03  0.00000000000E+00 0. -1.
      99926    2    1    2    0    0  0.00000000000E+00 -0.88817841970E-15  0.14361061050E+03  0.46135905486E+03  0.43843833096E+03 0.  0.
      99925    2    3    3    0    0 -0.48131854399E+02 -0.59935998142E+01  0.55744299485E+01  0.26886465523E+03  0.26439464805E+03 0.  0.
         25    1    3    3    0    0  0.48131854399E+02  0.59935998142E+01  0.13803618055E+03  0.19249439963E+03  0.12509000000E+03 0.  0.
         25    1    4    4    0    0 -0.52121078550E+02 -0.22820750352E+02  0.28952567556E+02  0.14043914249E+03  0.12509000000E+03 0.  0.
         25    1    4    4    0    0  0.39892241507E+01  0.16827150538E+02 -0.23378137607E+02  0.12842551274E+03  0.12509000000E+03 0.  0.
<mgrwt>
<rscale>  2 0.43843833E+03</rscale>
<asrwt>0</asrwt>
<pdfrwt beam="1">  1       21 0.44483064E-01 0.43843833E+03</pdfrwt>
<pdfrwt beam="2">  1       21 0.23363856E-01 0.43843833E+03</pdfrwt>
<totfact> 0.77817647E+04</totfact>
</mgrwt>
</event>
<event>
 7    0  0.4779893E-002  0.4415771E+03  0.7546771E-02  0.1030264E+00
         21   -1    0    0  502  501  0.00000000000E+00  0.00000000000E+00  0.16084874969E+04  0.16084874969E+04  0.00000000000E+00 0. -1.
         21   -1    0    0  501  502 -0.00000000000E+00 -0.00000000000E+00 -0.30306471296E+02  0.30306471296E+02  0.00000000000E+00 0. -1.
      99926    2    1    2    0    0  0.00000000000E+00  0.00000000000E+00  0.15781810256E+04  0.16387939682E+04  0.44157708344E+03 0.  0.
      99925    2    3    3    0    0 -0.10827316090E+02  0.89394830241E+02  0.11674149494E+04  0.12000629072E+04  0.26302975238E+03 0.  0.
         25    1    4    4    0    0  0.74158206266E+01  0.66451130432E+02  0.47090900977E+03  0.49180641590E+03  0.12509000000E+03 0.  0.
         25    1    3    3    0    0  0.10827316090E+02 -0.89394830241E+02  0.41076607619E+03  0.43873106102E+03  0.12509000000E+03 0.  0.
         25    1    4    4    0    0 -0.18243136716E+02  0.22943699809E+02  0.69650593964E+03  0.70825649129E+03  0.12509000000E+03 0.  0.
<mgrwt>
<rscale>  2 0.44157708E+03</rscale>
<asrwt>0</asrwt>
<pdfrwt beam="1">  1       21 0.23654222E+00 0.44157708E+03</pdfrwt>
<pdfrwt beam="2">  1       21 0.44568351E-02 0.44157708E+03</pdfrwt>
<totfact> 0.22858369E+04</totfact>
</mgrwt>
</event>
<event>
 7    0  0.4779893E-002  0.4558620E+03  0.7546771E-02  0.1025988E+00
         21   -1    0    0  502  501  0.00000000000E+00  0.00000000000E+00  0.53452514081E+02  0.53452514081E+02  0.00000000000E+00 0.  1.
         21   -1    0    0  501  502 -0.00000000000E+00 -0.00000000000E+00 -0.97193829876E+03  0.97193829876E+03  0.00000000000E+00 0.  1.
      99926    2    1    2    0    0  0.00000000000E+00  0.00000000000E+00 -0.91848578468E+03  0.10253908128E+04  0.45586202123E+03 0.  0.
      99925    2    3    3    0    0  0.65047554469E+02 -0.85425735230E+02 -0.66095590198E+03  0.71961656742E+03  0.26354612339E+03 0.  0.
         25    1    4    4    0    0  0.37182379030E+02 -0.85873141153E+02 -0.34949474736E+03  0.38281955569E+03  0.12509000000E+03 0.  0.
         25    1    3    3    0    0 -0.65047554469E+02  0.85425735230E+02 -0.25752988270E+03  0.30577424542E+03  0.12509000000E+03 0.  0.
         25    1    4    4    0    0  0.27865175439E+02  0.44740592309E+00 -0.31146115462E+03  0.33679701173E+03  0.12509000000E+03 0.  0.
<mgrwt>
<rscale>  2 0.45586202E+03</rscale>
<asrwt>0</asrwt>
<pdfrwt beam="1">  1       21 0.78606638E-02 0.45586202E+03</pdfrwt>
<pdfrwt beam="2">  1       21 0.14293210E+00 0.45586202E+03</pdfrwt>
<totfact> 0.37937566E+04</totfact>
</mgrwt>
</event>
<event>
 7    0  0.4779893E-002  0.4555553E+03  0.7546771E-02  0.1026078E+00
         21   -1    0    0  502  501  0.00000000000E+00  0.00000000000E+00  0.91173662043E+03  0.91173662043E+03  0.00000000000E+00 0.  1.
         21   -1    0    0  501  502 -0.00000000000E+00 -0.00000000000E+00 -0.56905306867E+02  0.56905306867E+02  0.00000000000E+00 0.  1.
      99926    2    1    2    0    0  0.00000000000E+00  0.17763568394E-14  0.85483131356E+03  0.96864192730E+03  0.45555527510E+03 0.  0.
      99925    2    3    3    0    0  0.87654735991E+02  0.13580718246E+02  0.68942070409E+03  0.74308491349E+03  0.26269086925E+03 0.  0.
         25    1    3    3    0    0 -0.87654735991E+02 -0.13580718246E+02  0.16541060948E+03  0.22555701381E+03  0.12509000000E+03 0.  0.
         25    1    4    4    0    0  0.45805306108E+02 -0.20593884540E+02  0.42110471192E+03  0.44215259882E+03  0.12509000000E+03 0.  0.
         25    1    4    4    0    0  0.41849429884E+02  0.34174602786E+02  0.26831599217E+03  0.30093231467E+03  0.12509000000E+03 0.  0.
<mgrwt>
<rscale>  2 0.45555528E+03</rscale>
<asrwt>0</asrwt>
<pdfrwt beam="1">  1       21 0.13407891E+00 0.45555528E+03</pdfrwt>
<pdfrwt beam="2">  1       21 0.83684280E-02 0.45555528E+03</pdfrwt>
<totfact> 0.40220153E+04</totfact>
</mgrwt>
</event>
<event>
 7    0  0.4779893E-002  0.4484300E+03  0.7546771E-02  0.1028191E+00
         21   -1    0    0  502  501  0.00000000000E+00  0.00000000000E+00  0.85118446209E+03  0.85118446209E+03  0.00000000000E+00 0. -1.
         21   -1    0    0  501  502 -0.00000000000E+00 -0.00000000000E+00 -0.59061664632E+02  0.59061664632E+02  0.00000000000E+00 0. -1.
      99926    2    1    2    0    0  0.00000000000E+00  0.00000000000E+00  0.79212279746E+03  0.91024612672E+03  0.44843002237E+03 0.  0.
      99925    2    3    3    0    0  0.92733037358E+02 -0.13396435844E+02  0.60652019232E+03  0.66760500109E+03  0.26277521399E+03 0.  0.
         25    1    4    4    0    0  0.77965215597E+02 -0.18436537120E+02  0.26863498982E+03  0.30697026990E+03  0.12509000000E+03 0.  0.
         25    1    4    4    0    0  0.14767821762E+02  0.50401012759E+01  0.33788520250E+03  0.36063473120E+03  0.12509000000E+03 0.  0.
         25    1    3    3    0    0 -0.92733037358E+02  0.13396435844E+02  0.18560260514E+03  0.24264112563E+03  0.12509000000E+03 0.  0.
<mgrwt>
<rscale>  2 0.44843002E+03</rscale>
<asrwt>0</asrwt>
<pdfrwt beam="1">  1       21 0.12517418E+00 0.44843002E+03</pdfrwt>
<pdfrwt beam="2">  1       21 0.86855394E-02 0.44843002E+03</pdfrwt>
<totfact> 0.45066113E+04</totfact>
</mgrwt>
</event>
<event>
 7    0  0.4779893E-002  0.4529825E+03  0.7546771E-02  0.1026836E+00
         21   -1    0    0  502  501  0.00000000000E+00  0.00000000000E+00  0.34026405660E+03  0.34026405660E+03  0.00000000000E+00 0. -1.
         21   -1    0    0  501  502 -0.00000000000E+00 -0.00000000000E+00 -0.15076024112E+03  0.15076024112E+03  0.00000000000E+00 0. -1.
      99926    2    1    2    0    0  0.00000000000E+00  0.00000000000E+00  0.18950381548E+03  0.49102429772E+03  0.45298252159E+03 0.  0.
      99925    2    3    3    0    0  0.83915636596E+02 -0.37071174418E+02  0.51294505896E+02  0.28326138622E+03  0.26303950378E+03 0.  0.
         25    1    4    4    0    0  0.50382910140E+02 -0.47342376234E+01  0.63671771994E+02  0.14920607658E+03  0.12509000000E+03 0.  0.
         25    1    4    4    0    0  0.33532726456E+02 -0.32336936794E+02 -0.12377266098E+02  0.13405530963E+03  0.12509000000E+03 0.  0.
         25    1    3    3    0    0 -0.83915636596E+02  0.37071174418E+02  0.13820930959E+03  0.20776291150E+03  0.12509000000E+03 0.  0.
<mgrwt>
<rscale>  2 0.45298252E+03</rscale>
<asrwt>0</asrwt>
<pdfrwt beam="1">  1       21 0.50038832E-01 0.45298252E+03</pdfrwt>
<pdfrwt beam="2">  1       21 0.22170624E-01 0.45298252E+03</pdfrwt>
<totfact> 0.66972165E+04</totfact>
</mgrwt>
</event>
<event>
 7    0  0.4779893E-002  0.4593339E+03  0.7546771E-02  0.1024975E+00
         21   -1    0    0  502  501  0.00000000000E+00  0.00000000000E+00  0.54402439442E+03  0.54402439442E+03  0.00000000000E+00 0. -1.
         21   -1    0    0  501  502 -0.00000000000E+00 -0.00000000000E+00 -0.96956862849E+02  0.96956862849E+02  0.00000000000E+00 0. -1.
      99926    2    1    2    0    0  0.00000000000E+00  0.00000000000E+00  0.44706753157E+03  0.64098125726E+03  0.45933385939E+03 0.  0.
      99925    2    3    3    0    0 -0.92311180074E+02 -0.69451383046E+02  0.25431052593E+03  0.38378946133E+03  0.26320269462E+03 0.  0.
         25    1    4    4    0    0 -0.52849953943E+02 -0.76335434424E+02  0.12908039143E+03  0.20231033521E+03  0.12509000000E+03 0.  0.
         25    1    3    3    0    0  0.92311180074E+02  0.69451383046E+02  0.19275700564E+03  0.25719179593E+03  0.12509000000E+03 0.  0.
         25    1    4    4    0    0 -0.39461226131E+02  0.68840513780E+01  0.12523013450E+03  0.18147912612E+03  0.12509000000E+03 0.  0.
<mgrwt>
<rscale>  2 0.45933386E+03</rscale>
<asrwt>0</asrwt>
<pdfrwt beam="1">  1       21 0.80003586E-01 0.45933386E+03</pdfrwt>
<pdfrwt beam="2">  1       21 0.14258362E-01 0.45933386E+03</pdfrwt>
<totfact> 0.54341555E+04</totfact>
</mgrwt>
</event>
<event>
 7    0  0.4779893E-002  0.4550936E+03  0.7546771E-02  0.1026214E+00
         21   -1    0    0  502  501  0.00000000000E+00  0.00000000000E+00  0.73979612716E+02  0.73979612716E+02  0.00000000000E+00 0. -1.
         21   -1    0    0  501  502 -0.00000000000E+00 -0.00000000000E+00 -0.69988946790E+03  0.69988946790E+03  0.00000000000E+00 0. -1.
      99926    2    1    2    0    0 -0.26645352591E-14  0.00000000000E+00 -0.62590985518E+03  0.77386908061E+03  0.45509362456E+03 0.  0.
      99925    2    3    3    0    0  0.71674730169E+01 -0.90588625230E+02 -0.50857388091E+03  0.57977397338E+03  0.26312125757E+03 0.  0.
         25    1    4    4    0    0  0.34065091744E+02 -0.72141608734E+02 -0.29266151845E+03  0.32812057946E+03  0.12509000000E+03 0.  0.
         25    1    3    3    0    0 -0.71674730169E+01  0.90588625230E+02 -0.11733597427E+03  0.19409510723E+03  0.12509000000E+03 0.  0.
         25    1    4    4    0    0 -0.26897618727E+02 -0.18447016497E+02 -0.21591236246E+03  0.25165339392E+03  0.12509000000E+03 0.  0.
<mgrwt>
<rscale>  2 0.45509362E+03</rscale>
<asrwt>0</asrwt>
<pdfrwt beam="1">  1       21 0.10879355E-01 0.45509362E+03</pdfrwt>
<pdfrwt beam="2">  1       21 0.10292492E+00 0.45509362E+03</pdfrwt>
<totfact> 0.49018674E+04</totfact>
</mgrwt>
</event>
<event>
 7    0  0.4779893E-002  0.4523418E+03  0.7546771E-02  0.1027026E+00
         21   -1    0    0  502  501  0.00000000000E+00  0.00000000000E+00  0.63904109461E+02  0.63904109461E+02  0.00000000000E+00 0.  1.
         21   -1    0    0  501  502 -0.00000000000E+00 -0.00000000000E+00 -0.80046928182E+03  0.80046928182E+03  0.00000000000E+00 0.  1.
      99926    2    1    2    0    0  0.00000000000E+00  0.00000000000E+00 -0.73656517236E+03  0.86437339128E+03  0.45234180265E+03 0.  0.
      99925    2    3    3    0    0  0.53492376168E+02 -0.33697329939E+02 -0.29068726867E+03  0.39698537533E+03  0.26287136723E+03 0.  0.
         25    1    3    3    0    0 -0.53492376168E+02  0.33697329939E+02 -0.44587790369E+03  0.46738801595E+03  0.12509000000E+03 0.  0.
         25    1    4    4    0    0  0.41484655775E+02  0.11328746474E+02 -0.10823072732E+03  0.17091142618E+03  0.12509000000E+03 0.  0.
         25    1    4    4    0    0  0.12007720393E+02 -0.45026076413E+02 -0.18245654134E+03  0.22607394915E+03  0.12509000000E+03 0.  0.
<mgrwt>
<rscale>  2 0.45234180E+03</rscale>
<asrwt>0</asrwt>
<pdfrwt beam="1">  1       21 0.93976641E-02 0.45234180E+03</pdfrwt>
<pdfrwt beam="2">  1       21 0.11771606E+00 0.45234180E+03</pdfrwt>
<totfact> 0.45749378E+04</totfact>
</mgrwt>
</event>
<event>
 7    0  0.4779893E-002  0.4501266E+03  0.7546771E-02  0.1027684E+00
         21   -1    0    0  502  501  0.00000000000E+00  0.00000000000E+00  0.14195141045E+02  0.14195141045E+02  0.00000000000E+00 0. -1.
         21   -1    0    0  501  502 -0.00000000000E+00 -0.00000000000E+00 -0.35683682572E+04  0.35683682572E+04  0.00000000000E+00 0. -1.
      99926    2    1    2    0    0  0.00000000000E+00  0.14210854715E-13 -0.35541731161E+04  0.35825633982E+04  0.45012660757E+03 0.  0.
      99925    2    3    3    0    0 -0.29648961906E+02 -0.98975427876E+02 -0.19771006908E+04  0.19971675047E+04  0.26282257155E+03 0.  0.
         25    1    3    3    0    0  0.29648961906E+02  0.98975427876E+02 -0.15770724253E+04  0.15853958935E+04  0.12509000000E+03 0.  0.
         25    1    4    4    0    0  0.16948174374E+02 -0.53830959091E+02 -0.11485543633E+04  0.11567236689E+04  0.12509000000E+03 0.  0.
         25    1    4    4    0    0 -0.46597136280E+02 -0.45144468786E+02 -0.82854632753E+03  0.84044383580E+03  0.12509000000E+03 0.  0.
<mgrwt>
<rscale>  2 0.45012661E+03</rscale>
<asrwt>0</asrwt>
<pdfrwt beam="1">  1       21 0.20875194E-02 0.45012661E+03</pdfrwt>
<pdfrwt beam="2">  1       21 0.52476037E+00 0.45012661E+03</pdfrwt>
<totfact> 0.11345237E+03</totfact>
</mgrwt>
</event>
<event>
 6    0  0.4779893E-002  0.4560608E+03  0.7546771E-02  0.1025930E+00
         21   -1    0    0  502  501  0.00000000000E+00  0.00000000000E+00  0.22663374909E+03  0.22663374909E+03  0.00000000000E+00 0.  1.
         21   -1    0    0  501  502 -0.00000000000E+00 -0.00000000000E+00 -0.22943564741E+03  0.22943564741E+03  0.00000000000E+00 0.  1.
      99926    2    1    2    0    0  0.00000000000E+00  0.71054273576E-14 -0.28018983231E+01  0.45606939650E+03  0.45606078958E+03 0.  0.
         25    1    3    3    0    0  0.25198695910E+02  0.27032941273E+02  0.39413375906E+02  0.13625959229E+03  0.12509000000E+03 0.  0.
         25    1    3    3    0    0  0.39036324179E+02 -0.60349958062E+02  0.44871580172E+02  0.15108579963E+03  0.12509000000E+03 0.  0.
         25    1    3    3    0    0 -0.64235020089E+02  0.33317016789E+02 -0.87086854401E+02  0.16872400458E+03  0.12509000000E+03 0.  0.
<mgrwt>
<rscale>  2 0.45606079E+03</rscale>
<asrwt>0</asrwt>
<pdfrwt beam="1">  1       21 0.33328493E-01 0.45606079E+03</pdfrwt>
<pdfrwt beam="2">  1       21 0.33740536E-01 0.45606079E+03</pdfrwt>
<totfact> 0.67891066E+04</totfact>
</mgrwt>
</event>
<event>
 7    0  0.4779893E-002  0.4510898E+03  0.7546771E-02  0.1027398E+00
         21   -1    0    0  502  501  0.00000000000E+00  0.00000000000E+00  0.30661239416E+03  0.30661239416E+03  0.00000000000E+00 0. -1.
         21   -1    0    0  501  502 -0.00000000000E+00 -0.00000000000E+00 -0.16591141246E+03  0.16591141246E+03  0.00000000000E+00 0. -1.
      99926    2    1    2    0    0  0.26645352591E-14 -0.14210854715E-13  0.14070098170E+03  0.47252380662E+03  0.45108977107E+03 0.  0.
      99925    2    3    3    0    0  0.57348953850E+01  0.10865027301E+03  0.76746044855E+02  0.29482880698E+03  0.26305189445E+03 0.  0.
         25    1    3    3    0    0 -0.57348953850E+01 -0.10865027301E+03  0.63954936848E+02  0.17769499964E+03  0.12509000000E+03 0.  0.
         25    1    4    4    0    0  0.39840790534E+02  0.72370432778E+02  0.44720939796E+02  0.15643605303E+03  0.12509000000E+03 0.  0.
         25    1    4    4    0    0 -0.34105895149E+02  0.36279840232E+02  0.32025105059E+02  0.13839275395E+03  0.12509000000E+03 0.  0.
<mgrwt>
<rscale>  2 0.45108977E+03</rscale>
<asrwt>0</asrwt>
<pdfrwt beam="1">  1       21 0.45090058E-01 0.45108977E+03</pdfrwt>
<pdfrwt beam="2">  1       21 0.24398737E-01 0.45108977E+03</pdfrwt>
<totfact> 0.69376406E+04</totfact>
</mgrwt>
</event>
<event>
 7    0  0.4779893E-002  0.4608492E+03  0.7546771E-02  0.1024535E+00
         21   -1    0    0  502  501  0.00000000000E+00  0.00000000000E+00  0.24150984115E+03  0.24150984115E+03  0.00000000000E+00 0. -1.
         21   -1    0    0  501  502 -0.00000000000E+00 -0.00000000000E+00 -0.21984818434E+03  0.21984818434E+03  0.00000000000E+00 0. -1.
      99926    2    1    2    0    0  0.00000000000E+00  0.17763568394E-14  0.21661656811E+02  0.46135802549E+03  0.46084921646E+03 0.  0.
      99925    2    3    3    0    0 -0.44746940100E+02  0.12448198313E+02 -0.95711183618E+02  0.28364719841E+03  0.26294078461E+03 0.  0.
         25    1    4    4    0    0  0.65439767092E+01 -0.22738896372E+02 -0.46193823408E+02  0.13542990239E+03  0.12509000000E+03 0.  0.
         25    1    4    4    0    0 -0.51290916809E+02  0.35187094685E+02 -0.49517360210E+02  0.14821729603E+03  0.12509000000E+03 0.  0.
         25    1    3    3    0    0  0.44746940100E+02 -0.12448198313E+02  0.11737284043E+03  0.17771082708E+03  0.12509000000E+03 0.  0.
<mgrwt>
<rscale>  2 0.46084922E+03</rscale>
<asrwt>0</asrwt>
<pdfrwt beam="1">  1       21 0.35516153E-01 0.46084922E+03</pdfrwt>
<pdfrwt beam="2">  1       21 0.32330615E-01 0.46084922E+03</pdfrwt>
<totfact> 0.64995780E+04</totfact>
</mgrwt>
</event>
<event>
 7    0  0.4779893E-002  0.4524781E+03  0.7546771E-02  0.1026986E+00
         21   -1    0    0  502  501  0.00000000000E+00  0.00000000000E+00  0.54973069371E+02  0.54973069371E+02  0.00000000000E+00 0. -1.
         21   -1    0    0  501  502 -0.00000000000E+00 -0.00000000000E+00 -0.93107612958E+03  0.93107612958E+03  0.00000000000E+00 0. -1.
      99926    2    1    2    0    0  0.00000000000E+00  0.71054273576E-14 -0.87610306021E+03  0.98604919895E+03  0.45247812173E+03 0.  0.
      99925    2    3    3    0    0  0.91157343476E+02  0.46564055605E+02 -0.46073361523E+03  0.54033947675E+03  0.26308442254E+03 0.  0.
         25    1    4    4    0    0  0.63069111169E+02 -0.28491410160E+01 -0.18304646588E+03  0.23051973269E+03  0.12509000000E+03 0.  0.
         25    1    4    4    0    0  0.28088232307E+02  0.49413196621E+02 -0.27768714935E+03  0.30981974405E+03  0.12509000000E+03 0.  0.
         25    1    3    3    0    0 -0.91157343476E+02 -0.46564055605E+02 -0.41536944498E+03  0.44570972221E+03  0.12509000000E+03 0.  0.
<mgrwt>
<rscale>  2 0.45247812E+03</rscale>
<asrwt>0</asrwt>
<pdfrwt beam="1">  1       21 0.80842754E-02 0.45247812E+03</pdfrwt>
<pdfrwt beam="2">  1       21 0.13692295E+00 0.45247812E+03</pdfrwt>
<totfact> 0.40505777E+04</totfact>
</mgrwt>
</event>
<event>
 7    0  0.4779893E-002  0.4518654E+03  0.7546771E-02  0.1027167E+00
         21   -1    0    0  502  501  0.00000000000E+00  0.00000000000E+00  0.62267496767E+02  0.62267496767E+02  0.00000000000E+00 0.  1.
         21   -1    0    0  501  502 -0.00000000000E+00 -0.00000000000E+00 -0.81977887488E+03  0.81977887488E+03  0.00000000000E+00 0.  1.
      99926    2    1    2    0    0  0.00000000000E+00  0.00000000000E+00 -0.75751137811E+03  0.88204637165E+03  0.45186537128E+03 0.  0.
      99925    2    3    3    0    0 -0.72701976884E+02  0.69840434685E+02 -0.56497786358E+03  0.63128767074E+03  0.26298454924E+03 0.  0.
         25    1    4    4    0    0 -0.50633941586E+02  0.34690855153E+02 -0.20436582542E+03  0.24734621519E+03  0.12509000000E+03 0.  0.
         25    1    4    4    0    0 -0.22068035298E+02  0.35149579532E+02 -0.36061203816E+03  0.38394145555E+03  0.12509000000E+03 0.  0.
         25    1    3    3    0    0  0.72701976884E+02 -0.69840434685E+02 -0.19253351453E+03  0.25075870090E+03  0.12509000000E+03 0.  0.
<mgrwt>
<rscale>  2 0.45186537E+03</rscale>
<asrwt>0</asrwt>
<pdfrwt beam="1">  1       21 0.91569852E-02 0.45186537E+03</pdfrwt>
<pdfrwt beam="2">  1       21 0.12055571E+00 0.45186537E+03</pdfrwt>
<totfact> 0.45116488E+04</totfact>
</mgrwt>
</event>
<event>
 7    0  0.4779893E-002  0.4544432E+03  0.7546771E-02  0.1026405E+00
         21   -1    0    0  502  501  0.00000000000E+00  0.00000000000E+00  0.22744470557E+03  0.22744470557E+03  0.00000000000E+00 0. -1.
         21   -1    0    0  501  502 -0.00000000000E+00 -0.00000000000E+00 -0.22699872722E+03  0.22699872722E+03  0.00000000000E+00 0. -1.
      99926    2    1    2    0    0 -0.71054273576E-14  0.00000000000E+00  0.44597834126E+00  0.45444343279E+03  0.45444321395E+03 0.  0.
      99925    2    3    3    0    0 -0.41360691138E+02  0.90864618152E+02 -0.52402734713E+02  0.28589794879E+03  0.26272515090E+03 0.  0.
         25    1    4    4    0    0  0.13234105378E+02  0.57152827037E+02 -0.44245124169E+02  0.14507489892E+03  0.12509000000E+03 0.  0.
         25    1    4    4    0    0 -0.54594796515E+02  0.33711791115E+02 -0.81576105437E+01  0.14082304988E+03  0.12509000000E+03 0.  0.
         25    1    3    3    0    0  0.41360691138E+02 -0.90864618152E+02  0.52848713054E+02  0.16854548399E+03  0.12509000000E+03 0.  0.
<mgrwt>
<rscale>  2 0.45444321E+03</rscale>
<asrwt>0</asrwt>
<pdfrwt beam="1">  1       21 0.33447751E-01 0.45444321E+03</pdfrwt>
<pdfrwt beam="2">  1       21 0.33382166E-01 0.45444321E+03</pdfrwt>
<totfact> 0.68892132E+04</totfact>
</mgrwt>
</event>
<event>
 7    0  0.4779893E-002  0.4513904E+03  0.7546771E-02  0.1027308E+00
         21   -1    0    0  502  501  0.00000000000E+00  0.00000000000E+00  0.12941723960E+03  0.12941723960E+03  0.00000000000E+00 0.  1.
         21   -1    0    0  501  502 -0.00000000000E+00 -0.00000000000E+00 -0.39359762015E+03  0.39359762015E+03  0.00000000000E+00 0.  1.
      99926    2    1    2    0    0  0.17763568394E-14 -0.71054273576E-14 -0.26418038055E+03  0.52301485975E+03  0.45139037435E+03 0.  0.
      99925    2    3    3    0    0  0.12810307492E+02 -0.50655592024E+02 -0.55078031226E+02  0.27381334777E+03  0.26307806239E+03 0.  0.
         25    1    3    3    0    0 -0.12810307492E+02  0.50655592024E+02 -0.20910234933E+03  0.24920151198E+03  0.12509000000E+03 0.  0.
         25    1    4    4    0    0  0.18443250457E+02 -0.56967585876E+02 -0.52867451728E+02  0.14841810833E+03  0.12509000000E+03 0.  0.
         25    1    4    4    0    0 -0.56329429650E+01  0.63119938522E+01 -0.22105794985E+01  0.12539523944E+03  0.12509000000E+03 0.  0.
<mgrwt>
<rscale>  2 0.45139037E+03</rscale>
<asrwt>0</asrwt>
<pdfrwt beam="1">  1       21 0.19031947E-01 0.45139037E+03</pdfrwt>
<pdfrwt beam="2">  1       21 0.57882003E-01 0.45139037E+03</pdfrwt>
<totfact> 0.65537161E+04</totfact>
</mgrwt>
</event>
<event>
 7    0  0.4779893E-002  0.4591945E+03  0.7546771E-02  0.1025015E+00
         21   -1    0    0  502  501  0.00000000000E+00  0.00000000000E+00  0.18861165741E+03  0.18861165741E+03  0.00000000000E+00 0. -1.
         21   -1    0    0  501  502 -0.00000000000E+00 -0.00000000000E+00 -0.27948911305E+03  0.27948911305E+03  0.00000000000E+00 0. -1.
      99926    2    1    2    0    0  0.71054273576E-14  0.00000000000E+00 -0.90877455636E+02  0.46810077046E+03  0.45919453325E+03 0.  0.
      99925    2    3    3    0    0 -0.36544770569E+02 -0.71630453346E+02 -0.14377164888E+03  0.31026621822E+03  0.26292279674E+03 0.  0.
         25    1    4    4    0    0 -0.14475439803E+02 -0.70135481708E+02 -0.10186837297E+03  0.17650268458E+03  0.12509000000E+03 0.  0.
         25    1    3    3    0    0  0.36544770569E+02  0.71630453346E+02  0.52894193242E+02  0.15783455224E+03  0.12509000000E+03 0.  0.
         25    1    4    4    0    0 -0.22069330766E+02 -0.14949716376E+01 -0.41903275903E+02  0.13376353364E+03  0.12509000000E+03 0.  0.
<mgrwt>
<rscale>  2 0.45919453E+03</rscale>
<asrwt>0</asrwt>
<pdfrwt beam="1">  1       21 0.27737009E-01 0.45919453E+03</pdfrwt>
<pdfrwt beam="2">  1       21 0.41101340E-01 0.45919453E+03</pdfrwt>
<totfact> 0.65373562E+04</totfact>
</mgrwt>
</event>
<event>
 7    0  0.4779893E-002  0.4357509E+03  0.7546771E-02  0.1032059E+00
         21   -1    0    0  502  501  0.00000000000E+00  0.00000000000E+00  0.68751635027E+03  0.68751635027E+03  0.00000000000E+00 0.  1.
         21   -1    0    0  501  502 -0.00000000000E+00 -0.00000000000E+00 -0.69045225974E+02  0.69045225974E+02  0.00000000000E+00 0.  1.
      99926    2    1    2    0    0  0.00000000000E+00  0.00000000000E+00  0.61847112430E+03  0.75656157624E+03  0.43575094614E+03 0.  0.
      99925    2    3    3    0    0  0.11407451096E+02  0.88882513802E+02  0.34677362783E+03  0.44431604964E+03  0.26293453902E+03 0.  0.
         25    1    4    4    0    0 -0.10744081764E+02  0.62822249008E+02  0.12793665000E+03  0.18994042428E+03  0.12509000000E+03 0.  0.
         25    1    4    4    0    0  0.22151532860E+02  0.26060264794E+02  0.21883697783E+03  0.25437562536E+03  0.12509000000E+03 0.  0.
         25    1    3    3    0    0 -0.11407451096E+02 -0.88882513802E+02  0.27169749646E+03  0.31224552661E+03  0.12509000000E+03 0.  0.
<mgrwt>
<rscale>  2 0.43575095E+03</rscale>
<asrwt>0</asrwt>
<pdfrwt beam="1">  1       21 0.10110534E+00 0.43575095E+03</pdfrwt>
<pdfrwt beam="2">  1       21 0.10153710E-01 0.43575095E+03</pdfrwt>
<totfact> 0.58255427E+04</totfact>
</mgrwt>
</event>
<event>
 7    0  0.4779893E-002  0.4582881E+03  0.7546771E-02  0.1025279E+00
         21   -1    0    0  502  501  0.00000000000E+00  0.00000000000E+00  0.21232759029E+03  0.21232759029E+03  0.00000000000E+00 0.  1.
         21   -1    0    0  501  502 -0.00000000000E+00 -0.00000000000E+00 -0.24729241055E+03  0.24729241055E+03  0.00000000000E+00 0.  1.
      99926    2    1    2    0    0  0.35527136788E-14 -0.14210854715E-13 -0.34964820262E+02  0.45962000084E+03  0.45828812609E+03 0.  0.
      99925    2    3    3    0    0  0.18280105832E+02 -0.11051135054E+03 -0.52915895661E+02  0.29075120539E+03  0.26303849634E+03 0.  0.
         25    1    3    3    0    0 -0.18280105832E+02  0.11051135054E+03  0.17951075399E+02  0.16886879544E+03  0.12509000000E+03 0.  0.
         25    1    4    4    0    0  0.16232584300E+02 -0.96632362950E+02 -0.42285004255E+02  0.16442882973E+03  0.12509000000E+03 0.  0.
         25    1    4    4    0    0  0.20475215323E+01 -0.13878987588E+02 -0.10630891406E+02  0.12632237566E+03  0.12509000000E+03 0.  0.
<mgrwt>
<rscale>  2 0.45828813E+03</rscale>
<asrwt>0</asrwt>
<pdfrwt beam="1">  1       21 0.31224646E-01 0.45828813E+03</pdfrwt>
<pdfrwt beam="2">  1       21 0.36366531E-01 0.45828813E+03</pdfrwt>
<totfact> 0.66448227E+04</totfact>
</mgrwt>
</event>
<event>
 7    0  0.4779893E-002  0.4553810E+03  0.7546771E-02  0.1026129E+00
         21   -1    0    0  502  501  0.00000000000E+00  0.00000000000E+00  0.95950674903E+02  0.95950674903E+02  0.00000000000E+00 0.  1.
         21   -1    0    0  501  502 -0.00000000000E+00 -0.00000000000E+00 -0.54030859597E+03  0.54030859597E+03  0.00000000000E+00 0.  1.
      99926    2    1    2    0    0  0.00000000000E+00 -0.71054273576E-14 -0.44435792107E+03  0.63625927087E+03  0.45538104677E+03 0.  0.
      99925    2    3    3    0    0  0.47281627680E+02 -0.62702991942E+02 -0.39479966082E+03  0.48046855622E+03  0.26232812242E+03 0.  0.
         25    1    3    3    0    0 -0.47281627680E+02  0.62702991942E+02 -0.49558260245E+02  0.15579071466E+03  0.12509000000E+03 0.  0.
         25    1    4    4    0    0  0.56477406818E+02 -0.48883542463E+02 -0.23990805938E+03  0.28068253109E+03  0.12509000000E+03 0.  0.
         25    1    4    4    0    0 -0.91957791385E+01 -0.13819449479E+02 -0.15489160145E+03  0.19978602513E+03  0.12509000000E+03 0.  0.
<mgrwt>
<rscale>  2 0.45538105E+03</rscale>
<asrwt>0</asrwt>
<pdfrwt beam="1">  1       21 0.14110394E-01 0.45538105E+03</pdfrwt>
<pdfrwt beam="2">  1       21 0.79457144E-01 0.45538105E+03</pdfrwt>
<totfact> 0.56330517E+04</totfact>
</mgrwt>
</event>
<event>
 7    0  0.4779893E-002  0.4099306E+03  0.7546771E-02  0.1040394E+00
         21   -1    0    0  502  501  0.00000000000E+00  0.00000000000E+00  0.56295160980E+03  0.56295160980E+03  0.00000000000E+00 0. -1.
         21   -1    0    0  501  502 -0.00000000000E+00 -0.00000000000E+00 -0.74625900562E+02  0.74625900562E+02  0.00000000000E+00 0. -1.
      99926    2    1    2    0    0  0.00000000000E+00  0.35527136788E-14  0.48832570924E+03  0.63757751037E+03  0.40993058366E+03 0.  0.
      99925    2    3    3    0    0  0.57642906814E+02  0.15947293418E+02  0.34686844636E+03  0.43950003513E+03  0.26318347389E+03 0.  0.
         25    1    3    3    0    0 -0.57642906814E+02 -0.15947293418E+02  0.14145726288E+03  0.19807747523E+03  0.12509000000E+03 0.  0.
         25    1    4    4    0    0  0.56147042674E+02 -0.17745961805E+02  0.15176599994E+03  0.20529938236E+03  0.12509000000E+03 0.  0.
         25    1    4    4    0    0  0.14958641403E+01  0.33693255223E+02  0.19510244643E+03  0.23420065277E+03  0.12509000000E+03 0.  0.
<mgrwt>
<rscale>  2 0.40993058E+03</rscale>
<asrwt>0</asrwt>
<pdfrwt beam="1">  1       21 0.82786999E-01 0.40993058E+03</pdfrwt>
<pdfrwt beam="2">  1       21 0.10974397E-01 0.40993058E+03</pdfrwt>
<totfact> 0.81866783E+04</totfact>
</mgrwt>
</event>
<event>
 7    0  0.4779893E-002  0.4390642E+03  0.7546771E-02  0.1031034E+00
         21   -1    0    0  502  501  0.00000000000E+00  0.00000000000E+00  0.32619395066E+02  0.32619395066E+02  0.00000000000E+00 0. -1.
         21   -1    0    0  501  502 -0.00000000000E+00 -0.00000000000E+00 -0.14774747758E+04  0.14774747758E+04  0.00000000000E+00 0. -1.
      99926    2    1    2    0    0  0.00000000000E+00 -0.17763568394E-14 -0.14448553807E+04  0.15100941708E+04  0.43906415664E+03 0.  0.
      99925    2    3    3    0    0 -0.69324396575E+02  0.13616363278E+02 -0.69170938750E+03  0.74336887943E+03  0.26295272738E+03 0.  0.
         25    1    4    4    0    0 -0.12839508371E+02  0.23838559721E+02 -0.25225292647E+03  0.28286423761E+03  0.12509000000E+03 0.  0.
         25    1    3    3    0    0  0.69324396575E+02 -0.13616363278E+02 -0.75314599321E+03  0.76672529141E+03  0.12509000000E+03 0.  0.
         25    1    4    4    0    0 -0.56484888205E+02 -0.10222196443E+02 -0.43945646103E+03  0.46050464182E+03  0.12509000000E+03 0.  0.
<mgrwt>
<rscale>  2 0.43906416E+03</rscale>
<asrwt>0</asrwt>
<pdfrwt beam="1">  1       21 0.47969710E-02 0.43906416E+03</pdfrwt>
<pdfrwt beam="2">  1       21 0.21727565E+00 0.43906416E+03</pdfrwt>
<totfact> 0.26686354E+04</totfact>
</mgrwt>
</event>
<event>
 7    0  0.4779893E-002  0.4402469E+03  0.7546771E-02  0.1030671E+00
         21   -1    0    0  502  501  0.00000000000E+00  0.00000000000E+00  0.43462212005E+03  0.43462212005E+03  0.00000000000E+00 0.  1.
         21   -1    0    0  501  502 -0.00000000000E+00 -0.00000000000E+00 -0.11148610388E+03  0.11148610388E+03  0.00000000000E+00 0.  1.
      99926    2    1    2    0    0 -0.71054273576E-14 -0.14210854715E-13  0.32313601618E+03  0.54610822393E+03  0.44024687085E+03 0.  0.
      99925    2    3    3    0    0 -0.42051226586E+02 -0.83414520183E+02  0.16670664122E+03  0.32510156049E+03  0.26300880702E+03 0.  0.
         25    1    4    4    0    0 -0.49297997033E+02 -0.55638692694E+02  0.11971377254E+03  0.18842731244E+03  0.12509000000E+03 0.  0.
         25    1    4    4    0    0  0.72467704470E+01 -0.27775827489E+02  0.46992868680E+02  0.13667424806E+03  0.12509000000E+03 0.  0.
         25    1    3    3    0    0  0.42051226586E+02  0.83414520183E+02  0.15642937495E+03  0.22100666344E+03  0.12509000000E+03 0.  0.
<mgrwt>
<rscale>  2 0.44024687E+03</rscale>
<asrwt>0</asrwt>
<pdfrwt beam="1">  1       21 0.63915017E-01 0.44024687E+03</pdfrwt>
<pdfrwt beam="2">  1       21 0.16395015E-01 0.44024687E+03</pdfrwt>
<totfact> 0.69938009E+04</totfact>
</mgrwt>
</event>
<event>
 7    0  0.4779893E-002  0.4478968E+03  0.7546771E-02  0.1028351E+00
         21   -1    0    0  502  501  0.00000000000E+00  0.00000000000E+00  0.13117944673E+03  0.13117944673E+03  0.00000000000E+00 0.  1.
         21   -1    0    0  501  502 -0.00000000000E+00 -0.00000000000E+00 -0.38232274731E+03  0.38232274731E+03  0.00000000000E+00 0.  1.
      99926    2    1    2    0    0  0.35527136788E-14  0.00000000000E+00 -0.25114330057E+03  0.51350219404E+03  0.44789680269E+03 0.  0.
      99925    2    3    3    0    0  0.13754992351E+02 -0.69086552443E+02 -0.25035733255E+03  0.36993939458E+03  0.26308593683E+03 0.  0.
         25    1    4    4    0    0 -0.33824126169E+02 -0.32490727529E+02 -0.12096469374E+03  0.18022120885E+03  0.12509000000E+03 0.  0.
         25    1    4    4    0    0  0.47579118520E+02 -0.36595824914E+02 -0.12939263881E+03  0.18971818573E+03  0.12509000000E+03 0.  0.
         25    1    3    3    0    0 -0.13754992351E+02  0.69086552443E+02 -0.78596802474E+00  0.14356279946E+03  0.12509000000E+03 0.  0.
<mgrwt>
<rscale>  2 0.44789680E+03</rscale>
<asrwt>0</asrwt>
<pdfrwt beam="1">  1       21 0.19291095E-01 0.44789680E+03</pdfrwt>
<pdfrwt beam="2">  1       21 0.56223934E-01 0.44789680E+03</pdfrwt>
<totfact> 0.68089443E+04</totfact>
</mgrwt>
</event>
<event>
 7    0  0.4779893E-002  0.4546395E+03  0.7546771E-02  0.1026347E+00
         21   -1    0    0  502  501  0.00000000000E+00  0.00000000000E+00  0.11393828177E+03  0.11393828177E+03  0.00000000000E+00 0. -1.
         21   -1    0    0  501  502 -0.00000000000E+00 -0.00000000000E+00 -0.45352862066E+03  0.45352862066E+03  0.00000000000E+00 0. -1.
      99926    2    1    2    0    0 -0.71054273576E-14  0.00000000000E+00 -0.33959033889E+03  0.56746690242E+03  0.45463951333E+03 0.  0.
      99925    2    3    3    0    0  0.63880284293E+02  0.35413759773E+02 -0.10660293207E+03  0.29312138134E+03  0.26309909534E+03 0.  0.
         25    1    4    4    0    0 -0.77692169198E+01  0.26280106600E+02 -0.59363462678E+02  0.14114720520E+03  0.12509000000E+03 0.  0.
         25    1    3    3    0    0 -0.63880284293E+02 -0.35413759773E+02 -0.23298740682E+03  0.27434552109E+03  0.12509000000E+03 0.  0.
         25    1    4    4    0    0  0.71649501213E+02  0.91336531724E+01 -0.47239469388E+02  0.15197417614E+03  0.12509000000E+03 0.  0.
<mgrwt>
<rscale>  2 0.45463951E+03</rscale>
<asrwt>0</asrwt>
<pdfrwt beam="1">  1       21 0.16755630E-01 0.45463951E+03</pdfrwt>
<pdfrwt beam="2">  1       21 0.66695384E-01 0.45463951E+03</pdfrwt>
<totfact> 0.60900260E+04</totfact>
</mgrwt>
</event>
<event>
 7    0  0.4779893E-002  0.4559426E+03  0.7546771E-02  0.1025965E+00
         21   -1    0    0  502  501  0.00000000000E+00  0.00000000000E+00  0.84777970596E+02  0.84777970596E+02  0.00000000000E+00 0.  1.
         21   -1    0    0  501  502 -0.00000000000E+00 -0.00000000000E+00 -0.61302385789E+03  0.61302385789E+03  0.00000000000E+00 0.  1.
      99926    2    1    2    0    0  0.00000000000E+00 -0.14210854715E-13 -0.52824588730E+03  0.69780182849E+03  0.45594262182E+03 0.  0.
      99925    2    3    3    0    0 -0.71929630076E+02  0.79477825878E+02 -0.39182683854E+03  0.48391339624E+03  0.26297016402E+03 0.  0.
         25    1    3    3    0    0  0.71929630076E+02 -0.79477825878E+02 -0.13641904875E+03  0.21388843225E+03  0.12509000000E+03 0.  0.
         25    1    4    4    0    0 -0.29254529359E+02  0.55364146442E+02 -0.13678789384E+03  0.19565135369E+03  0.12509000000E+03 0.  0.
         25    1    4    4    0    0 -0.42675100717E+02  0.24113679436E+02 -0.25503894470E+03  0.28826204255E+03  0.12509000000E+03 0.  0.
<mgrwt>
<rscale>  2 0.45594262E+03</rscale>
<asrwt>0</asrwt>
<pdfrwt beam="1">  1       21 0.12467349E-01 0.45594262E+03</pdfrwt>
<pdfrwt beam="2">  1       21 0.90150567E-01 0.45594262E+03</pdfrwt>
<totfact> 0.52630933E+04</totfact>
</mgrwt>
</event>
<event>
 7    0  0.4779893E-002  0.4484695E+03  0.7546771E-02  0.1028179E+00
         21   -1    0    0  502  501  0.00000000000E+00  0.00000000000E+00  0.12980097695E+04  0.12980097695E+04  0.00000000000E+00 0. -1.
         21   -1    0    0  501  502 -0.00000000000E+00 -0.00000000000E+00 -0.38737168420E+02  0.38737168420E+02  0.00000000000E+00 0. -1.
      99926    2    1    2    0    0  0.88817841970E-15  0.00000000000E+00  0.12592726011E+04  0.13367469379E+04  0.44846949975E+03 0.  0.
      99925    2    3    3    0    0 -0.71893596202E+01 -0.87547681909E+02  0.61544398220E+03  0.67502261307E+03  0.26299800273E+03 0.  0.
         25    1    4    4    0    0 -0.41316557870E+02 -0.31621908322E+02  0.27932625888E+03  0.31044753186E+03  0.12509000000E+03 0.  0.
         25    1    4    4    0    0  0.34127198250E+02 -0.55925773587E+02  0.33611772332E+03  0.36457508121E+03  0.12509000000E+03 0.  0.
         25    1    3    3    0    0  0.71893596202E+01  0.87547681909E+02  0.64382861888E+03  0.66172432484E+03  0.12509000000E+03 0.  0.
<mgrwt>
<rscale>  2 0.44846950E+03</rscale>
<asrwt>0</asrwt>
<pdfrwt beam="1">  1       21 0.19088376E+00 0.44846950E+03</pdfrwt>
<pdfrwt beam="2">  1       21 0.56966433E-02 0.44846950E+03</pdfrwt>
<totfact> 0.29537500E+04</totfact>
</mgrwt>
</event>
<event>
 7    0  0.4779893E-002  0.4532509E+03  0.7546771E-02  0.1026757E+00
         21   -1    0    0  502  501  0.00000000000E+00  0.00000000000E+00  0.28733835593E+03  0.28733835593E+03  0.00000000000E+00 0. -1.
         21   -1    0    0  501  502 -0.00000000000E+00 -0.00000000000E+00 -0.17874086327E+03  0.17874086327E+03  0.00000000000E+00 0. -1.
      99926    2    1    2    0    0  0.00000000000E+00  0.00000000000E+00  0.10859749266E+03  0.46607921919E+03  0.45325094942E+03 0.  0.
      99925    2    3    3    0    0 -0.29935916941E+02 -0.84595655948E+02  0.47029504520E+00  0.27795271098E+03  0.26306825015E+03 0.  0.
         25    1    4    4    0    0 -0.13310288280E+02 -0.15200836136E+02  0.31648848460E+02  0.13060393142E+03  0.12509000000E+03 0.  0.
         25    1    3    3    0    0  0.29935916941E+02  0.84595655948E+02  0.10812719761E+03  0.18812650821E+03  0.12509000000E+03 0.  0.
         25    1    4    4    0    0 -0.16625628660E+02 -0.69394819812E+02 -0.31178553415E+02  0.14734877956E+03  0.12509000000E+03 0.  0.
<mgrwt>
<rscale>  2 0.45325095E+03</rscale>
<asrwt>0</asrwt>
<pdfrwt beam="1">  1       21 0.42255641E-01 0.45325095E+03</pdfrwt>
<pdfrwt beam="2">  1       21 0.26285421E-01 0.45325095E+03</pdfrwt>
<totfact> 0.68676484E+04</totfact>
</mgrwt>
</event>
<event>
 7    0  0.4779893E-002  0.4488262E+03  0.7546771E-02  0.1028073E+00
         21   -1    0    0  502  501  0.00000000000E+00  0.00000000000E+00  0.63863575283E+03  0.63863575283E+03  0.00000000000E+00 0. -1.
         21   -1    0    0  501  502 -0.00000000000E+00 -0.00000000000E+00 -0.78857528167E+02  0.78857528167E+02  0.00000000000E+00 0. -1.
      99926    2    1    2    0    0 -0.71054273576E-14  0.14210854715E-13  0.55977822466E+03  0.71749328099E+03  0.44882618848E+03 0.  0.
      99925    2    3    3    0    0 -0.39268246734E+02  0.77585113924E+02  0.45444390690E+03  0.53227915707E+03  0.26313569014E+03 0.  0.
         25    1    3    3    0    0  0.39268246734E+02 -0.77585113924E+02  0.10533431776E+03  0.18521412393E+03  0.12509000000E+03 0.  0.
         25    1    4    4    0    0 -0.40254139460E+02  0.73187934177E+02  0.27576150677E+03  0.31411588016E+03  0.12509000000E+03 0.  0.
         25    1    4    4    0    0  0.98589272517E+00  0.43971797469E+01  0.17868240013E+03  0.21816327690E+03  0.12509000000E+03 0.  0.
<mgrwt>
<rscale>  2 0.44882619E+03</rscale>
<asrwt>0</asrwt>
<pdfrwt beam="1">  1       21 0.93917020E-01 0.44882619E+03</pdfrwt>
<pdfrwt beam="2">  1       21 0.11596696E-01 0.44882619E+03</pdfrwt>
<totfact> 0.54565481E+04</totfact>
</mgrwt>
</event>
<event>
 7    0  0.4779893E-002  0.4536903E+03  0.7546771E-02  0.1026627E+00
         21   -1    0    0  502  501  0.00000000000E+00  0.00000000000E+00  0.27338456519E+03  0.27338456519E+03  0.00000000000E+00 0.  1.
         21   -1    0    0  501  502 -0.00000000000E+00 -0.00000000000E+00 -0.18822830986E+03  0.18822830986E+03  0.00000000000E+00 0.  1.
      99926    2    1    2    0    0  0.00000000000E+00  0.14210854715E-13  0.85156255330E+02  0.46161287505E+03  0.45369026724E+03 0.  0.
      99925    2    3    3    0    0 -0.13579431352E+02 -0.78964436075E+02 -0.25792250955E+02  0.27620289078E+03  0.26306465659E+03 0.  0.
         25    1    4    4    0    0 -0.10695421138E+02 -0.11254836973E+02  0.18041450741E+02  0.12733446287E+03  0.12509000000E+03 0.  0.
         25    1    4    4    0    0 -0.28840102138E+01 -0.67709599102E+02 -0.43833701696E+02  0.14886842791E+03  0.12509000000E+03 0.  0.
         25    1    3    3    0    0  0.13579431352E+02  0.78964436075E+02  0.11094850628E+03  0.18540998427E+03  0.12509000000E+03 0.  0.
<mgrwt>
<rscale>  2 0.45369027E+03</rscale>
<asrwt>0</asrwt>
<pdfrwt beam="1">  1       21 0.40203612E-01 0.45369027E+03</pdfrwt>
<pdfrwt beam="2">  1       21 0.27680634E-01 0.45369027E+03</pdfrwt>
<totfact> 0.68775602E+04</totfact>
</mgrwt>
</event>
<event>
 7    0  0.4779893E-002  0.4509702E+03  0.7546771E-02  0.1027433E+00
         21   -1    0    0  502  501  0.00000000000E+00  0.00000000000E+00  0.30224285727E+03  0.30224285727E+03  0.00000000000E+00 0.  1.
         21   -1    0    0  501  502 -0.00000000000E+00 -0.00000000000E+00 -0.16822079800E+03  0.16822079800E+03  0.00000000000E+00 0.  1.
      99926    2    1    2    0    0  0.00000000000E+00 -0.71054273576E-14  0.13402205927E+03  0.47046365526E+03  0.45097021914E+03 0.  0.
      99925    2    3    3    0    0  0.30796824265E+02  0.37428630273E+02  0.18685389605E+03  0.32628301222E+03  0.26305299627E+03 0.  0.
         25    1    4    4    0    0  0.24408924446E+02  0.54686921281E+01  0.47284321532E+02  0.13604784948E+03  0.12509000000E+03 0.  0.
         25    1    4    4    0    0  0.63878998195E+01  0.31959938145E+02  0.13956957452E+03  0.19023516274E+03  0.12509000000E+03 0.  0.
         25    1    3    3    0    0 -0.30796824265E+02 -0.37428630273E+02 -0.52831836784E+02  0.14418064304E+03  0.12509000000E+03 0.  0.
<mgrwt>
<rscale>  2 0.45097022E+03</rscale>
<asrwt>0</asrwt>
<pdfrwt beam="1">  1       21 0.44447479E-01 0.45097022E+03</pdfrwt>
<pdfrwt beam="2">  1       21 0.24738353E-01 0.45097022E+03</pdfrwt>
<totfact> 0.69600188E+04</totfact>
</mgrwt>
</event>
<event>
 7    0  0.4779893E-002  0.4589110E+03  0.7546771E-02  0.1025098E+00
         21   -1    0    0  502  501  0.00000000000E+00  0.00000000000E+00  0.10795910579E+03  0.10795910579E+03  0.00000000000E+00 0.  1.
         21   -1    0    0  501  502 -0.00000000000E+00 -0.00000000000E+00 -0.48768295868E+03  0.48768295868E+03  0.00000000000E+00 0.  1.
      99926    2    1    2    0    0  0.00000000000E+00  0.35527136788E-14 -0.37972385290E+03  0.59564206447E+03  0.45891095488E+03 0.  0.
      99925    2    3    3    0    0 -0.77760408362E+02 -0.31115234753E+02 -0.13226765818E+03  0.30599242206E+03  0.26291023186E+03 0.  0.
         25    1    3    3    0    0  0.77760408362E+02  0.31115234753E+02 -0.24745619472E+03  0.28964964241E+03  0.12509000000E+03 0.  0.
         25    1    4    4    0    0 -0.70950737089E+02  0.23999144686E+01 -0.49315926071E+02  0.15205043685E+03  0.12509000000E+03 0.  0.
         25    1    4    4    0    0 -0.68096712724E+01 -0.33515149222E+02 -0.82951732107E+02  0.15394198521E+03  0.12509000000E+03 0.  0.
<mgrwt>
<rscale>  2 0.45891095E+03</rscale>
<asrwt>0</asrwt>
<pdfrwt beam="1">  1       21 0.15876340E-01 0.45891095E+03</pdfrwt>
<pdfrwt beam="2">  1       21 0.71718080E-01 0.45891095E+03</pdfrwt>
<totfact> 0.57160138E+04</totfact>
</mgrwt>
</event>
<event>
 7    0  0.4779893E-002  0.4610904E+03  0.7546771E-02  0.1024465E+00
         21   -1    0    0  502  501  0.00000000000E+00  0.00000000000E+00  0.44294623204E+03  0.44294623204E+03  0.00000000000E+00 0. -1.
         21   -1    0    0  501  502 -0.00000000000E+00 -0.00000000000E+00 -0.11999447014E+03  0.11999447014E+03  0.00000000000E+00 0. -1.
      99926    2    1    2    0    0  0.00000000000E+00  0.00000000000E+00  0.32295176190E+03  0.56294070218E+03  0.46109043978E+03 0.  0.
      99925    2    3    3    0    0  0.27740121253E+02 -0.58643604257E+01  0.34303315026E+03  0.43311514495E+03  0.26289366969E+03 0.  0.
         25    1    3    3    0    0 -0.27740121253E+02  0.58643604257E+01 -0.20081388359E+02  0.12982555722E+03  0.12509000000E+03 0.  0.
         25    1    4    4    0    0  0.53888446358E+02 -0.28679399158E+01  0.16574359623E+03  0.21454751810E+03  0.12509000000E+03 0.  0.
         25    1    4    4    0    0 -0.26148325105E+02 -0.29964205099E+01  0.17728955402E+03  0.21856762685E+03  0.12509000000E+03 0.  0.
<mgrwt>
<rscale>  2 0.46109044E+03</rscale>
<asrwt>0</asrwt>
<pdfrwt beam="1">  1       21 0.65139151E-01 0.46109044E+03</pdfrwt>
<pdfrwt beam="2">  1       21 0.17646246E-01 0.46109044E+03</pdfrwt>
<totfact> 0.58166366E+04</totfact>
</mgrwt>
</event>
<event>
 7    0  0.4779893E-002  0.4547560E+03  0.7546771E-02  0.1026313E+00
         21   -1    0    0  502  501  0.00000000000E+00  0.00000000000E+00  0.13056142693E+03  0.13056142693E+03  0.00000000000E+00 0.  1.
         21   -1    0    0  501  502 -0.00000000000E+00 -0.00000000000E+00 -0.39598792939E+03  0.39598792939E+03  0.00000000000E+00 0.  1.
      99926    2    1    2    0    0  0.00000000000E+00 -0.35527136788E-14 -0.26542650247E+03  0.52654935632E+03  0.45475597459E+03 0.  0.
      99925    2    3    3    0    0  0.11204011645E+03 -0.12614074512E+02 -0.17357754248E+03  0.33472693292E+03  0.26306055158E+03 0.  0.
         25    1    3    3    0    0 -0.11204011645E+03  0.12614074512E+02 -0.91848959981E+02  0.19182242340E+03  0.12509000000E+03 0.  0.
         25    1    4    4    0    0  0.42961894128E+02  0.28777205258E+02 -0.62642265733E+02  0.14914896394E+03  0.12509000000E+03 0.  0.
         25    1    4    4    0    0  0.69078222320E+02 -0.41391279770E+02 -0.11093527675E+03  0.18557796897E+03  0.12509000000E+03 0.  0.
<mgrwt>
<rscale>  2 0.45475597E+03</rscale>
<asrwt>0</asrwt>
<pdfrwt beam="1">  1       21 0.19200210E-01 0.45475597E+03</pdfrwt>
<pdfrwt beam="2">  1       21 0.58233520E-01 0.45475597E+03</pdfrwt>
<totfact> 0.63563592E+04</totfact>
</mgrwt>
</event>
<event>
 7    0  0.4779893E-002  0.4458011E+03  0.7546771E-02  0.1028982E+00
         21   -1    0    0  502  501  0.00000000000E+00  0.00000000000E+00  0.60521682571E+02  0.60521682571E+02  0.00000000000E+00 0.  1.
         21   -1    0    0  501  502 -0.00000000000E+00 -0.00000000000E+00 -0.82093976221E+03  0.82093976221E+03  0.00000000000E+00 0.  1.
      99926    2    1    2    0    0  0.14210854715E-13  0.71054273576E-14 -0.76041807964E+03  0.88146144478E+03  0.44580110228E+03 0.  0.
      99925    2    3    3    0    0  0.65955954983E+02  0.54037975866E+02 -0.36152832088E+03  0.45481072279E+03  0.26244956836E+03 0.  0.
         25    1    4    4    0    0  0.25007751246E+02  0.55233718422E+02 -0.14110030180E+03  0.19807310404E+03  0.12509000000E+03 0.  0.
         25    1    4    4    0    0  0.40948203737E+02 -0.11957425565E+01 -0.22042801907E+03  0.25673761875E+03  0.12509000000E+03 0.  0.
         25    1    3    3    0    0 -0.65955954983E+02 -0.54037975866E+02 -0.39888975876E+03  0.42665072199E+03  0.12509000000E+03 0.  0.
<mgrwt>
<rscale>  2 0.44580110E+03</rscale>
<asrwt>0</asrwt>
<pdfrwt beam="1">  1       21 0.89002474E-02 0.44580110E+03</pdfrwt>
<pdfrwt beam="2">  1       21 0.12072644E+00 0.44580110E+03</pdfrwt>
<totfact> 0.47366247E+04</totfact>
</mgrwt>
</event>
<event>
 7    0  0.4779893E-002  0.4526748E+03  0.7546771E-02  0.1026927E+00
         21   -1    0    0  502  501  0.00000000000E+00  0.00000000000E+00  0.12204385368E+03  0.12204385368E+03  0.00000000000E+00 0.  1.
         21   -1    0    0  501  502 -0.00000000000E+00 -0.00000000000E+00 -0.41975579856E+03  0.41975579856E+03  0.00000000000E+00 0.  1.
      99926    2    1    2    0    0 -0.71054273576E-14  0.14210854715E-13 -0.29771194488E+03  0.54179965224E+03  0.45267478508E+03 0.  0.
      99925    2    3    3    0    0  0.41512167673E+02 -0.82032567342E+02 -0.26262431068E+03  0.38264170446E+03  0.26266050951E+03 0.  0.
         25    1    4    4    0    0  0.28556980860E+02 -0.46518849086E+02 -0.80391184168E+02  0.15839745916E+03  0.12509000000E+03 0.  0.
         25    1    4    4    0    0  0.12955186813E+02 -0.35513718257E+02 -0.18223312652E+03  0.22424424530E+03  0.12509000000E+03 0.  0.
         25    1    3    3    0    0 -0.41512167673E+02  0.82032567342E+02 -0.35087634193E+02  0.15915794778E+03  0.12509000000E+03 0.  0.
<mgrwt>
<rscale>  2 0.45267479E+03</rscale>
<asrwt>0</asrwt>
<pdfrwt beam="1">  1       21 0.17947625E-01 0.45267479E+03</pdfrwt>
<pdfrwt beam="2">  1       21 0.61728794E-01 0.45267479E+03</pdfrwt>
<totfact> 0.63573412E+04</totfact>
</mgrwt>
</event>
<event>
 7    0  0.4779893E-002  0.4558333E+03  0.7546771E-02  0.1025997E+00
         21   -1    0    0  502  501  0.00000000000E+00  0.00000000000E+00  0.33826681338E+03  0.33826681338E+03  0.00000000000E+00 0.  1.
         21   -1    0    0  501  502 -0.00000000000E+00 -0.00000000000E+00 -0.15356519230E+03  0.15356519230E+03  0.00000000000E+00 0.  1.
      99926    2    1    2    0    0  0.71054273576E-14 -0.14210854715E-13  0.18470162109E+03  0.49183200568E+03  0.45583333904E+03 0.  0.
      99925    2    3    3    0    0  0.46779207458E+02 -0.71498921681E+02  0.34902716097E+02  0.27878832451E+03  0.26306717819E+03 0.  0.
         25    1    4    4    0    0  0.54291847937E+02 -0.55082365416E+02 -0.21446788915E+01  0.14708425980E+03  0.12509000000E+03 0.  0.
         25    1    4    4    0    0 -0.75126404797E+01 -0.16416556265E+02  0.37047394989E+02  0.13170406471E+03  0.12509000000E+03 0.  0.
         25    1    3    3    0    0 -0.46779207458E+02  0.71498921681E+02  0.14979890499E+03  0.21304368117E+03  0.12509000000E+03 0.  0.
<mgrwt>
<rscale>  2 0.45583334E+03</rscale>
<asrwt>0</asrwt>
<pdfrwt beam="1">  1       21 0.49745120E-01 0.45583334E+03</pdfrwt>
<pdfrwt beam="2">  1       21 0.22583116E-01 0.45583334E+03</pdfrwt>
<totfact> 0.65414549E+04</totfact>
</mgrwt>
</event>
<event>
 7    0  0.4779893E-002  0.4469394E+03  0.7546771E-02  0.1028639E+00
         21   -1    0    0  502  501  0.00000000000E+00  0.00000000000E+00  0.17454761915E+03  0.17454761915E+03  0.00000000000E+00 0. -1.
         21   -1    0    0  501  502 -0.00000000000E+00 -0.00000000000E+00 -0.28610359007E+03  0.28610359007E+03  0.00000000000E+00 0. -1.
      99926    2    1    2    0    0  0.00000000000E+00  0.88817841970E-15 -0.11155597091E+03  0.46065120922E+03  0.44693937162E+03 0.  0.
      99925    2    3    3    0    0 -0.73956409614E+02 -0.53600798369E+01  0.69213681601E+01  0.27308077191E+03  0.26272975026E+03 0.  0.
         25    1    4    4    0    0 -0.15190258223E+02  0.44095080583E+01 -0.30180842568E+02  0.12964790420E+03  0.12509000000E+03 0.  0.
         25    1    4    4    0    0 -0.58766151391E+02 -0.97695878951E+01  0.37102210728E+02  0.14343286770E+03  0.12509000000E+03 0.  0.
         25    1    3    3    0    0  0.73956409614E+02  0.53600798369E+01 -0.11847733907E+03  0.18757043731E+03  0.12509000000E+03 0.  0.
<mgrwt>
<rscale>  2 0.44693937E+03</rscale>
<asrwt>0</asrwt>
<pdfrwt beam="1">  1       21 0.25668768E-01 0.44693937E+03</pdfrwt>
<pdfrwt beam="2">  1       21 0.42074057E-01 0.44693937E+03</pdfrwt>
<totfact> 0.72674229E+04</totfact>
</mgrwt>
</event>
<event>
 7    0  0.4779893E-002  0.4590398E+03  0.7546771E-02  0.1025060E+00
         21   -1    0    0  502  501  0.00000000000E+00  0.00000000000E+00  0.30234827422E+02  0.30234827422E+02  0.00000000000E+00 0. -1.
         21   -1    0    0  501  502 -0.00000000000E+00 -0.00000000000E+00 -0.17423415401E+04  0.17423415401E+04  0.00000000000E+00 0. -1.
      99926    2    1    2    0    0  0.71054273576E-14  0.00000000000E+00 -0.17121067127E+04  0.17725763675E+04  0.45903984914E+03 0.  0.
      99925    2    3    3    0    0 -0.60934495152E+02  0.96744361611E+02 -0.97405595855E+03  0.10153188763E+04  0.26270692042E+03 0.  0.
         25    1    4    4    0    0 -0.48484667629E+02  0.66849518135E+02 -0.40689581566E+03  0.43362579948E+03  0.12509000000E+03 0.  0.
         25    1    4    4    0    0 -0.12449827523E+02  0.29894843476E+02 -0.56716014288E+03  0.58169307684E+03  0.12509000000E+03 0.  0.
         25    1    3    3    0    0  0.60934495152E+02 -0.96744361611E+02 -0.73805075413E+03  0.75725749119E+03  0.12509000000E+03 0.  0.
<mgrwt>
<rscale>  2 0.45903985E+03</rscale>
<asrwt>0</asrwt>
<pdfrwt beam="1">  1       21 0.44462963E-02 0.45903985E+03</pdfrwt>
<pdfrwt beam="2">  1       21 0.25622680E+00 0.45903985E+03</pdfrwt>
<totfact> 0.17245133E+04</totfact>
</mgrwt>
</event>
<event>
 7    0  0.4779893E-002  0.4574112E+03  0.7546771E-02  0.1025535E+00
         21   -1    0    0  502  501  0.00000000000E+00  0.00000000000E+00  0.16272420361E+03  0.16272420361E+03  0.00000000000E+00 0. -1.
         21   -1    0    0  501  502 -0.00000000000E+00 -0.00000000000E+00 -0.32144118538E+03  0.32144118538E+03  0.00000000000E+00 0. -1.
      99926    2    1    2    0    0  0.00000000000E+00  0.00000000000E+00 -0.15871698177E+03  0.48416538899E+03  0.45741124122E+03 0.  0.
      99925    2    3    3    0    0  0.71505909181E+02  0.44465930588E+02 -0.16024873849E+02  0.27656274017E+03  0.26294455431E+03 0.  0.
         25    1    4    4    0    0  0.55385231591E+02  0.33121161797E+02  0.26002993679E+02  0.14313699388E+03  0.12509000000E+03 0.  0.
         25    1    3    3    0    0 -0.71505909181E+02 -0.44465930588E+02 -0.14269210793E+03  0.20760264882E+03  0.12509000000E+03 0.  0.
         25    1    4    4    0    0  0.16120677590E+02  0.11344768791E+02 -0.42027867528E+02  0.13342574629E+03  0.12509000000E+03 0.  0.
<mgrwt>
<rscale>  2 0.45741124E+03</rscale>
<asrwt>0</asrwt>
<pdfrwt beam="1">  1       21 0.23930030E-01 0.45741124E+03</pdfrwt>
<pdfrwt beam="2">  1       21 0.47270762E-01 0.45741124E+03</pdfrwt>
<totfact> 0.65142307E+04</totfact>
</mgrwt>
</event>
<event>
 7    0  0.4779893E-002  0.4545986E+03  0.7546771E-02  0.1026359E+00
         21   -1    0    0  502  501  0.00000000000E+00  0.00000000000E+00  0.40887209014E+04  0.40887209014E+04  0.00000000000E+00 0.  1.
         21   -1    0    0  501  502 -0.00000000000E+00 -0.00000000000E+00 -0.12635976111E+02  0.12635976111E+02  0.00000000000E+00 0.  1.
      99926    2    1    2    0    0  0.00000000000E+00  0.14210854715E-13  0.40760849253E+04  0.41013568775E+04  0.45459863456E+03 0.  0.
      99925    2    3    3    0    0  0.14676731842E+02  0.11075148200E+03  0.24260337375E+04  0.24428039758E+04  0.26300241761E+03 0.  0.
         25    1    4    4    0    0  0.13289478895E+02  0.98225202036E+02  0.12905981498E+04  0.13004291187E+04  0.12509000000E+03 0.  0.
         25    1    4    4    0    0  0.13872529467E+01  0.12526279962E+02  0.11354355877E+04  0.11423748570E+04  0.12509000000E+03 0.  0.
         25    1    3    3    0    0 -0.14676731842E+02 -0.11075148200E+03  0.16500511878E+04  0.16585529017E+04  0.12509000000E+03 0.  0.
<mgrwt>
<rscale>  2 0.45459863E+03</rscale>
<asrwt>0</asrwt>
<pdfrwt beam="1">  1       21 0.60128156E+00 0.45459863E+03</pdfrwt>
<pdfrwt beam="2">  1       21 0.18582346E-02 0.45459863E+03</pdfrwt>
<totfact> 0.36038669E+02</totfact>
</mgrwt>
</event>
<event>
 7    0  0.4779893E-002  0.4576707E+03  0.7546771E-02  0.1025459E+00
         21   -1    0    0  502  501  0.00000000000E+00  0.00000000000E+00  0.22335690227E+04  0.22335690227E+04  0.00000000000E+00 0. -1.
         21   -1    0    0  501  502 -0.00000000000E+00 -0.00000000000E+00 -0.23444814514E+02  0.23444814514E+02  0.00000000000E+00 0. -1.
      99926    2    1    2    0    0  0.71054273576E-14  0.35527136788E-14  0.22101242082E+04  0.22570138372E+04  0.45767067392E+03 0.  0.
      99925    2    3    3    0    0 -0.32662109621E+02  0.25263752602E+02  0.19207462794E+04  0.19390638972E+04  0.26267367002E+03 0.  0.
         25    1    4    4    0    0  0.16412604141E+02  0.34822500897E+02  0.99321385000E+03  0.10018000000E+04  0.12509000000E+03 0.  0.
         25    1    3    3    0    0  0.32662109621E+02 -0.25263752602E+02  0.28937792881E+03  0.31794994006E+03  0.12509000000E+03 0.  0.
         25    1    4    4    0    0 -0.49074713762E+02 -0.95587482957E+01  0.92753242940E+03  0.93726389714E+03  0.12509000000E+03 0.  0.
<mgrwt>
<rscale>  2 0.45767067E+03</rscale>
<asrwt>0</asrwt>
<pdfrwt beam="1">  1       21 0.32846589E+00 0.45767067E+03</pdfrwt>
<pdfrwt beam="2">  1       21 0.34477684E-02 0.45767067E+03</pdfrwt>
<totfact> 0.97453071E+03</totfact>
</mgrwt>
</event>
<event>
 7    0  0.4779893E-002  0.4533206E+03  0.7546771E-02  0.1026736E+00
         21   -1    0    0  502  501  0.00000000000E+00  0.00000000000E+00  0.51503213458E+02  0.51503213458E+02  0.00000000000E+00 0. -1.
         21   -1    0    0  501  502 -0.00000000000E+00 -0.00000000000E+00 -0.99750849977E+03  0.99750849977E+03  0.00000000000E+00 0. -1.
      99926    2    1    2    0    0  0.00000000000E+00 -0.71054273576E-14 -0.94600528632E+03  0.10490117132E+04  0.45332060703E+03 0.  0.
      99925    2    3    3    0    0 -0.51210159692E+01 -0.37848862801E+02 -0.83880832859E+03  0.87990388649E+03  0.26300698874E+03 0.  0.
         25    1    4    4    0    0  0.15607931109E+02 -0.50637158389E+02 -0.37266258140E+03  0.39665178306E+03  0.12509000000E+03 0.  0.
         25    1    4    4    0    0 -0.20728947079E+02  0.12788295588E+02 -0.46614574719E+03  0.48325210343E+03  0.12509000000E+03 0.  0.
         25    1    3    3    0    0  0.51210159692E+01  0.37848862801E+02 -0.10719695772E+03  0.16910782674E+03  0.12509000000E+03 0.  0.
<mgrwt>
<rscale>  2 0.45332061E+03</rscale>
<asrwt>0</asrwt>
<pdfrwt beam="1">  1       21 0.75740023E-02 0.45332061E+03</pdfrwt>
<pdfrwt beam="2">  1       21 0.14669242E+00 0.45332061E+03</pdfrwt>
<totfact> 0.37806823E+04</totfact>
</mgrwt>
</event>
<event>
 7    0  0.4779893E-002  0.4629965E+03  0.7546771E-02  0.1023916E+00
         21   -1    0    0  502  501  0.00000000000E+00  0.00000000000E+00  0.11929981672E+03  0.11929981672E+03  0.00000000000E+00 0. -1.
         21   -1    0    0  501  502 -0.00000000000E+00 -0.00000000000E+00 -0.44921642866E+03  0.44921642866E+03  0.00000000000E+00 0. -1.
      99926    2    1    2    0    0  0.35527136788E-14  0.00000000000E+00 -0.32991661195E+03  0.56851624538E+03  0.46299649072E+03 0.  0.
      99925    2    3    3    0    0  0.29476360847E+02 -0.67190955467E+02 -0.32338640309E+03  0.42334864544E+03  0.26317642285E+03 0.  0.
         25    1    4    4    0    0 -0.13105447574E+01 -0.49287021856E+02 -0.21718346516E+03  0.25543510661E+03  0.12509000000E+03 0.  0.
         25    1    3    3    0    0 -0.29476360847E+02  0.67190955467E+02 -0.65302088585E+01  0.14516759994E+03  0.12509000000E+03 0.  0.
         25    1    4    4    0    0  0.30786905605E+02 -0.17903933611E+02 -0.10620293793E+03  0.16791353882E+03  0.12509000000E+03 0.  0.
<mgrwt>
<rscale>  2 0.46299649E+03</rscale>
<asrwt>0</asrwt>
<pdfrwt beam="1">  1       21 0.17544091E-01 0.46299649E+03</pdfrwt>
<pdfrwt beam="2">  1       21 0.66061240E-01 0.46299649E+03</pdfrwt>
<totfact> 0.56970160E+04</totfact>
</mgrwt>
</event>
<event>
 7    0  0.4779893E-002  0.4495153E+03  0.7546771E-02  0.1027867E+00
         21   -1    0    0  502  501  0.00000000000E+00  0.00000000000E+00  0.10911015813E+03  0.10911015813E+03  0.00000000000E+00 0. -1.
         21   -1    0    0  501  502 -0.00000000000E+00 -0.00000000000E+00 -0.46298169657E+03  0.46298169657E+03  0.00000000000E+00 0. -1.
      99926    2    1    2    0    0  0.00000000000E+00  0.00000000000E+00 -0.35387153845E+03  0.57209185470E+03  0.44951532175E+03 0.  0.
      99925    2    3    3    0    0 -0.54250542730E+02  0.93161904478E+02 -0.23093591135E+03  0.36622068541E+03  0.26299036759E+03 0.  0.
         25    1    3    3    0    0  0.54250542730E+02 -0.93161904478E+02 -0.12293562710E+03  0.20587116929E+03  0.12509000000E+03 0.  0.
         25    1    4    4    0    0 -0.67764661672E+02  0.41280423683E+02 -0.12006118860E+03  0.19067857734E+03  0.12509000000E+03 0.  0.
         25    1    4    4    0    0  0.13514118942E+02  0.51881480795E+02 -0.11087472275E+03  0.17554210807E+03  0.12509000000E+03 0.  0.
<mgrwt>
<rscale>  2 0.44951532E+03</rscale>
<asrwt>0</asrwt>
<pdfrwt beam="1">  1       21 0.16045611E-01 0.44951532E+03</pdfrwt>
<pdfrwt beam="2">  1       21 0.68085544E-01 0.44951532E+03</pdfrwt>
<totfact> 0.63123194E+04</totfact>
</mgrwt>
</event>
<event>
 7    0  0.4779893E-002  0.4512838E+03  0.7546771E-02  0.1027340E+00
         21   -1    0    0  502  501  0.00000000000E+00  0.00000000000E+00  0.93713349056E+03  0.93713349056E+03  0.00000000000E+00 0. -1.
         21   -1    0    0  501  502 -0.00000000000E+00 -0.00000000000E+00 -0.54329796661E+02  0.54329796661E+02  0.00000000000E+00 0. -1.
      99926    2    1    2    0    0  0.00000000000E+00  0.00000000000E+00  0.88280369390E+03  0.99146328722E+03  0.45128382194E+03 0.  0.
      99925    2    3    3    0    0  0.59696135341E+02  0.11565273137E+02  0.35591036988E+03  0.44652157739E+03  0.26270124394E+03 0.  0.
         25    1    4    4    0    0  0.17279417672E+02  0.31350684695E+02  0.12899151101E+03  0.18321506957E+03  0.12509000000E+03 0.  0.
         25    1    4    4    0    0  0.42416717669E+02 -0.19785411558E+02  0.22691885887E+03  0.26330650781E+03  0.12509000000E+03 0.  0.
         25    1    3    3    0    0 -0.59696135341E+02 -0.11565273137E+02  0.52689332403E+03  0.54494170984E+03  0.12509000000E+03 0.  0.
<mgrwt>
<rscale>  2 0.45128382E+03</rscale>
<asrwt>0</asrwt>
<pdfrwt beam="1">  1       21 0.13781374E+00 0.45128382E+03</pdfrwt>
<pdfrwt beam="2">  1       21 0.79896765E-02 0.45128382E+03</pdfrwt>
<totfact> 0.40668109E+04</totfact>
</mgrwt>
</event>
<event>
 7    0  0.4779893E-002  0.4545505E+03  0.7546771E-02  0.1026374E+00
         21   -1    0    0  502  501  0.00000000000E+00  0.00000000000E+00  0.19564230832E+03  0.19564230832E+03  0.00000000000E+00 0. -1.
         21   -1    0    0  501  502 -0.00000000000E+00 -0.00000000000E+00 -0.26402281265E+03  0.26402281265E+03  0.00000000000E+00 0. -1.
      99926    2    1    2    0    0  0.00000000000E+00  0.00000000000E+00 -0.68380504329E+02  0.45966512098E+03  0.45455047032E+03 0.  0.
      99925    2    3    3    0    0  0.37547203470E+02 -0.90191430101E+02  0.13058257263E+02  0.28127210951E+03  0.26343726948E+03 0.  0.
         25    1    4    4    0    0 -0.19177885654E+02 -0.61221152942E+02  0.79342330819E+01  0.14080582737E+03  0.12509000000E+03 0.  0.
         25    1    3    3    0    0 -0.37547203470E+02  0.90191430101E+02 -0.81438761591E+02  0.17839301147E+03  0.12509000000E+03 0.  0.
         25    1    4    4    0    0  0.56725089124E+02 -0.28970277159E+02  0.51240241808E+01  0.14046628214E+03  0.12509000000E+03 0.  0.
<mgrwt>
<rscale>  2 0.45455047E+03</rscale>
<asrwt>0</asrwt>
<pdfrwt beam="1">  1       21 0.28770928E-01 0.45455047E+03</pdfrwt>
<pdfrwt beam="2">  1       21 0.38826884E-01 0.45455047E+03</pdfrwt>
<totfact> 0.68450033E+04</totfact>
</mgrwt>
</event>
<event>
 7    0  0.4779893E-002  0.4530883E+03  0.7546771E-02  0.1026805E+00
         21   -1    0    0  502  501  0.00000000000E+00  0.00000000000E+00  0.34092705495E+03  0.34092705495E+03  0.00000000000E+00 0. -1.
         21   -1    0    0  501  502 -0.00000000000E+00 -0.00000000000E+00 -0.15053732948E+03  0.15053732948E+03  0.00000000000E+00 0. -1.
      99926    2    1    2    0    0 -0.71054273576E-14  0.00000000000E+00  0.19038972547E+03  0.49146438442E+03  0.45308828454E+03 0.  0.
      99925    2    3    3    0    0 -0.61386814166E+02 -0.80917465854E+02  0.16987727920E+03  0.32903210381E+03  0.26284569259E+03 0.  0.
         25    1    4    4    0    0 -0.69368526225E+02 -0.44728815333E+02  0.74095525186E+02  0.16718347497E+03  0.12509000000E+03 0.  0.
         25    1    4    4    0    0  0.79817120595E+01 -0.36188650521E+02  0.95781754011E+02  0.16184862883E+03  0.12509000000E+03 0.  0.
         25    1    3    3    0    0  0.61386814166E+02  0.80917465854E+02  0.20512446273E+02  0.16243228061E+03  0.12509000000E+03 0.  0.
<mgrwt>
<rscale>  2 0.45308828E+03</rscale>
<asrwt>0</asrwt>
<pdfrwt beam="1">  1       21 0.50136332E-01 0.45308828E+03</pdfrwt>
<pdfrwt beam="2">  1       21 0.22137843E-01 0.45308828E+03</pdfrwt>
<totfact> 0.66883879E+04</totfact>
</mgrwt>
</event>
<event>
 7    0  0.4779893E-002  0.4567569E+03  0.7546771E-02  0.1025726E+00
         21   -1    0    0  502  501  0.00000000000E+00  0.00000000000E+00  0.20495859663E+03  0.20495859663E+03  0.00000000000E+00 0. -1.
         21   -1    0    0  501  502 -0.00000000000E+00 -0.00000000000E+00 -0.25447441103E+03  0.25447441103E+03  0.00000000000E+00 0. -1.
      99926    2    1    2    0    0  0.00000000000E+00  0.00000000000E+00 -0.49515814401E+02  0.45943300765E+03  0.45675690761E+03 0.  0.
      99925    2    3    3    0    0 -0.10614919862E+03 -0.19089690007E+02 -0.70775595562E+02  0.29290506697E+03  0.26296791572E+03 0.  0.
         25    1    4    4    0    0 -0.57314753465E+02  0.17461088818E+02 -0.66130884304E+02  0.15365764721E+03  0.12509000000E+03 0.  0.
         25    1    4    4    0    0 -0.48834445160E+02 -0.36550778826E+02 -0.46447112579E+01  0.13924741976E+03  0.12509000000E+03 0.  0.
         25    1    3    3    0    0  0.10614919862E+03  0.19089690007E+02  0.21259781161E+02  0.16652794068E+03  0.12509000000E+03 0.  0.
<mgrwt>
<rscale>  2 0.45675691E+03</rscale>
<asrwt>0</asrwt>
<pdfrwt beam="1">  1       21 0.30140970E-01 0.45675691E+03</pdfrwt>
<pdfrwt beam="2">  1       21 0.37422707E-01 0.45675691E+03</pdfrwt>
<totfact> 0.67274229E+04</totfact>
</mgrwt>
</event>
<event>
 7    0  0.4779893E-002  0.4318888E+03  0.7546771E-02  0.1033265E+00
         21   -1    0    0  502  501  0.00000000000E+00  0.00000000000E+00  0.50018305330E+02  0.50018305330E+02  0.00000000000E+00 0.  1.
         21   -1    0    0  501  502 -0.00000000000E+00 -0.00000000000E+00 -0.93229856734E+03  0.93229856734E+03  0.00000000000E+00 0.  1.
      99926    2    1    2    0    0  0.35527136788E-14  0.44408920985E-14 -0.88228026201E+03  0.98231687267E+03  0.43188884866E+03 0.  0.
      99925    2    3    3    0    0  0.22110906736E+02  0.58678030845E+01 -0.76517137631E+03  0.80944315425E+03  0.26303547581E+03 0.  0.
         25    1    3    3    0    0 -0.22110906736E+02 -0.58678030845E+01 -0.11710888570E+03  0.17287371842E+03  0.12509000000E+03 0.  0.
         25    1    4    4    0    0  0.32663158531E+02 -0.30057884697E+02 -0.35578997095E+03  0.37974250471E+03  0.12509000000E+03 0.  0.
         25    1    4    4    0    0 -0.10552251795E+02  0.35925687782E+02 -0.40938140536E+03  0.42970064954E+03  0.12509000000E+03 0.  0.
<mgrwt>
<rscale>  2 0.43188885E+03</rscale>
<asrwt>0</asrwt>
<pdfrwt beam="1">  1       21 0.73556340E-02 0.43188885E+03</pdfrwt>
<pdfrwt beam="2">  1       21 0.13710271E+00 0.43188885E+03</pdfrwt>
<totfact> 0.47950834E+04</totfact>
</mgrwt>
</event>
<event>
 7    0  0.4779893E-002  0.4590775E+03  0.7546771E-02  0.1025049E+00
         21   -1    0    0  502  501  0.00000000000E+00  0.00000000000E+00  0.11016722378E+04  0.11016722378E+04  0.00000000000E+00 0.  1.
         21   -1    0    0  501  502 -0.00000000000E+00 -0.00000000000E+00 -0.47825503513E+02  0.47825503513E+02  0.00000000000E+00 0.  1.
      99926    2    1    2    0    0  0.00000000000E+00  0.00000000000E+00  0.10538467343E+04  0.11494977413E+04  0.45907746395E+03 0.  0.
      99925    2    3    3    0    0  0.11429518630E+03  0.39585112914E+01  0.72258868167E+03  0.77739766748E+03  0.26293282621E+03 0.  0.
         25    1    4    4    0    0  0.90532007189E+02 -0.90434919618E+01  0.32954930992E+03  0.36404406992E+03  0.12509000000E+03 0.  0.
         25    1    3    3    0    0 -0.11429518630E+03 -0.39585112914E+01  0.33125805258E+03  0.37210007380E+03  0.12509000000E+03 0.  0.
         25    1    4    4    0    0  0.23763179107E+02  0.13002003253E+02  0.39303937175E+03  0.41335359756E+03  0.12509000000E+03 0.  0.
<mgrwt>
<rscale>  2 0.45907746E+03</rscale>
<asrwt>0</asrwt>
<pdfrwt beam="1">  1       21 0.16201061E+00 0.45907746E+03</pdfrwt>
<pdfrwt beam="2">  1       21 0.70331630E-02 0.45907746E+03</pdfrwt>
<totfact> 0.32746074E+04</totfact>
</mgrwt>
</event>
<event>
 7    0  0.4779893E-002  0.4440808E+03  0.7546771E-02  0.1029502E+00
         21   -1    0    0  502  501  0.00000000000E+00  0.00000000000E+00  0.15644864127E+04  0.15644864127E+04  0.00000000000E+00 0. -1.
         21   -1    0    0  501  502 -0.00000000000E+00 -0.00000000000E+00 -0.31513174707E+02  0.31513174707E+02  0.00000000000E+00 0. -1.
      99926    2    1    2    0    0  0.35527136788E-14  0.00000000000E+00  0.15329732380E+04  0.15959995874E+04  0.44408077486E+03 0.  0.
      99925    2    3    3    0    0  0.23319730316E+02 -0.82720047109E+02  0.77431891929E+03  0.82231341111E+03  0.26314091528E+03 0.  0.
         25    1    3    3    0    0 -0.23319730316E+02  0.82720047109E+02  0.75865431870E+03  0.77368617630E+03  0.12509000000E+03 0.  0.
         25    1    4    4    0    0  0.46159367861E+02 -0.65295488574E+02  0.41872541685E+03  0.44426644132E+03  0.12509000000E+03 0.  0.
         25    1    4    4    0    0 -0.22839637545E+02 -0.17424558534E+02  0.35559350245E+03  0.37804696979E+03  0.12509000000E+03 0.  0.
<mgrwt>
<rscale>  2 0.44408077E+03</rscale>
<asrwt>0</asrwt>
<pdfrwt beam="1">  1       21 0.23007148E+00 0.44408077E+03</pdfrwt>
<pdfrwt beam="2">  1       21 0.46342914E-02 0.44408077E+03</pdfrwt>
<totfact> 0.23446220E+04</totfact>
</mgrwt>
</event>
<event>
 7    0  0.4779893E-002  0.4537809E+03  0.7546771E-02  0.1026600E+00
         21   -1    0    0  502  501  0.00000000000E+00  0.00000000000E+00  0.11705395586E+03  0.11705395586E+03  0.00000000000E+00 0.  1.
         21   -1    0    0  501  502 -0.00000000000E+00 -0.00000000000E+00 -0.43979107807E+03  0.43979107807E+03  0.00000000000E+00 0.  1.
      99926    2    1    2    0    0 -0.71054273576E-14 -0.71054273576E-14 -0.32273712221E+03  0.55684503393E+03  0.45378094028E+03 0.  0.
      99925    2    3    3    0    0 -0.53212722140E+02 -0.40389033746E+02 -0.92881491590E+02  0.28676358905E+03  0.26295154816E+03 0.  0.
         25    1    4    4    0    0 -0.37474434902E+02  0.12109254611E+02 -0.22273213463E+02  0.13302094368E+03  0.12509000000E+03 0.  0.
         25    1    4    4    0    0 -0.15738287238E+02 -0.52498288357E+02 -0.70608278127E+02  0.15374264537E+03  0.12509000000E+03 0.  0.
         25    1    3    3    0    0  0.53212722140E+02  0.40389033746E+02 -0.22985563062E+03  0.27008144489E+03  0.12509000000E+03 0.  0.
<mgrwt>
<rscale>  2 0.45378094E+03</rscale>
<asrwt>0</asrwt>
<pdfrwt beam="1">  1       21 0.17213817E-01 0.45378094E+03</pdfrwt>
<pdfrwt beam="2">  1       21 0.64675158E-01 0.45378094E+03</pdfrwt>
<totfact> 0.62012288E+04</totfact>
</mgrwt>
</event>
<event>
 7    0  0.4779893E-002  0.4564772E+03  0.7546771E-02  0.1025808E+00
         21   -1    0    0  502  501  0.00000000000E+00  0.00000000000E+00  0.30007342917E+03  0.30007342917E+03  0.00000000000E+00 0. -1.
         21   -1    0    0  501  502 -0.00000000000E+00 -0.00000000000E+00 -0.17360037423E+03  0.17360037423E+03  0.00000000000E+00 0. -1.
      99926    2    1    2    0    0  0.00000000000E+00 -0.71054273576E-14  0.12647305494E+03  0.47367380340E+03  0.45647720469E+03 0.  0.
      99925    2    3    3    0    0 -0.67567072928E+02  0.46864489058E+02 -0.32781118744E+01  0.27557165029E+03  0.26299695577E+03 0.  0.
         25    1    4    4    0    0 -0.76860235316E+01  0.12604346697E+02  0.28692382248E+02  0.12918477237E+03  0.12509000000E+03 0.  0.
         25    1    4    4    0    0 -0.59881049396E+02  0.34260142360E+02 -0.31970494122E+02  0.14638687792E+03  0.12509000000E+03 0.  0.
         25    1    3    3    0    0  0.67567072928E+02 -0.46864489058E+02  0.12975116682E+03  0.19810215312E+03  0.12509000000E+03 0.  0.
<mgrwt>
<rscale>  2 0.45647720E+03</rscale>
<asrwt>0</asrwt>
<pdfrwt beam="1">  1       21 0.44128445E-01 0.45647720E+03</pdfrwt>
<pdfrwt beam="2">  1       21 0.25529467E-01 0.45647720E+03</pdfrwt>
<totfact> 0.66382098E+04</totfact>
</mgrwt>
</event>
<event>
 7    0  0.4779893E-002  0.4660202E+03  0.7546771E-02  0.1023050E+00
         21   -1    0    0  502  501  0.00000000000E+00  0.00000000000E+00  0.21326382776E+03  0.21326382776E+03  0.00000000000E+00 0.  1.
         21   -1    0    0  501  502 -0.00000000000E+00 -0.00000000000E+00 -0.25458473674E+03  0.25458473674E+03  0.00000000000E+00 0.  1.
      99926    2    1    2    0    0  0.00000000000E+00 -0.14210854715E-13 -0.41320908980E+02  0.46784856450E+03  0.46602023753E+03 0.  0.
      99925    2    3    3    0    0 -0.56369021706E+02 -0.69920253081E+02 -0.11047813429E+03  0.29903938729E+03  0.26296925409E+03 0.  0.
         25    1    4    4    0    0 -0.51895870457E+02 -0.70486802385E+02 -0.58213595124E+02  0.16339492476E+03  0.12509000000E+03 0.  0.
         25    1    4    4    0    0 -0.44731512493E+01  0.56654930478E+00 -0.52264539163E+02  0.13564446253E+03  0.12509000000E+03 0.  0.
         25    1    3    3    0    0  0.56369021706E+02  0.69920253081E+02  0.69157225307E+02  0.16880917721E+03  0.12509000000E+03 0.  0.
<mgrwt>
<rscale>  2 0.46602024E+03</rscale>
<asrwt>0</asrwt>
<pdfrwt beam="1">  1       21 0.31362328E-01 0.46602024E+03</pdfrwt>
<pdfrwt beam="2">  1       21 0.37438932E-01 0.46602024E+03</pdfrwt>
<totfact> 0.61982738E+04</totfact>
</mgrwt>
</event>
<event>
 7    0  0.4779893E-002  0.4514757E+03  0.7546771E-02  0.1027283E+00
         21   -1    0    0  502  501  0.00000000000E+00  0.00000000000E+00  0.45329006812E+02  0.45329006812E+02  0.00000000000E+00 0.  1.
         21   -1    0    0  501  502 -0.00000000000E+00 -0.00000000000E+00 -0.11241713919E+04  0.11241713919E+04  0.00000000000E+00 0.  1.
      99926    2    1    2    0    0 -0.35527136788E-14 -0.35527136788E-14 -0.10788423851E+04  0.11695003987E+04  0.45147568121E+03 0.  0.
      99925    2    3    3    0    0 -0.29512297485E+02 -0.28264137312E+02 -0.94478907117E+03  0.98165036216E+03  0.26332718690E+03 0.  0.
         25    1    3    3    0    0  0.29512297485E+02  0.28264137312E+02 -0.13405331392E+03  0.18785003655E+03  0.12509000000E+03 0.  0.
         25    1    4    4    0    0 -0.18802590622E+02 -0.27971251523E+02 -0.33729896882E+03  0.36132261318E+03  0.12509000000E+03 0.  0.
         25    1    4    4    0    0 -0.10709706863E+02 -0.29288578876E+00 -0.60749010235E+03  0.62032774898E+03  0.12509000000E+03 0.  0.
<mgrwt>
<rscale>  2 0.45147568E+03</rscale>
<asrwt>0</asrwt>
<pdfrwt beam="1">  1       21 0.66660307E-02 0.45147568E+03</pdfrwt>
<pdfrwt beam="2">  1       21 0.16531931E+00 0.45147568E+03</pdfrwt>
<totfact> 0.34063816E+04</totfact>
</mgrwt>
</event>
<event>
 6    0  0.4779893E-002  0.4597688E+03  0.7546771E-02  0.1024848E+00
         21   -1    0    0  502  501  0.00000000000E+00  0.00000000000E+00  0.98542007553E+02  0.98542007553E+02  0.00000000000E+00 0. -1.
         21   -1    0    0  501  502 -0.00000000000E+00 -0.00000000000E+00 -0.53628741949E+03  0.53628741949E+03  0.00000000000E+00 0. -1.
      99926    2    1    2    0    0  0.00000000000E+00  0.00000000000E+00 -0.43774541194E+03  0.63482942705E+03  0.45976880687E+03 0.  0.
         25    1    3    3    0    0 -0.60165755317E+02  0.20144631904E+02 -0.59523986842E+02  0.15236908288E+03  0.12509000000E+03 0.  0.
         25    1    3    3    0    0 -0.15039137790E+02 -0.52208137124E+02 -0.10916324195E+03  0.17468825587E+03  0.12509000000E+03 0.  0.
         25    1    3    3    0    0  0.75204893107E+02  0.32063505220E+02 -0.26905818315E+03  0.30777208829E+03  0.12509000000E+03 0.  0.
<mgrwt>
<rscale>  2 0.45976881E+03</rscale>
<asrwt>0</asrwt>
<pdfrwt beam="1">  1       21 0.14491472E-01 0.45976881E+03</pdfrwt>
<pdfrwt beam="2">  1       21 0.78865796E-01 0.45976881E+03</pdfrwt>
<totfact> 0.54503334E+04</totfact>
</mgrwt>
</event>
<event>
 7    0  0.4779893E-002  0.4174340E+03  0.7546771E-02  0.1037905E+00
         21   -1    0    0  502  501  0.00000000000E+00  0.00000000000E+00  0.14163340010E+03  0.14163340010E+03  0.00000000000E+00 0. -1.
         21   -1    0    0  501  502 -0.00000000000E+00 -0.00000000000E+00 -0.30757420984E+03  0.30757420984E+03  0.00000000000E+00 0. -1.
      99926    2    1    2    0    0 -0.17763568394E-14 -0.14210854715E-13 -0.16594080974E+03  0.44920760994E+03  0.41743397620E+03 0.  0.
      99925    2    3    3    0    0 -0.73397186016E+01 -0.57294133249E+02 -0.15591734810E+03  0.31106106797E+03  0.26289214403E+03 0.  0.
         25    1    3    3    0    0  0.73397186016E+01  0.57294133249E+02 -0.10023461641E+02  0.13814654197E+03  0.12509000000E+03 0.  0.
         25    1    4    4    0    0  0.16864770962E+02 -0.59468950217E+02 -0.10128089190E+03  0.17241317729E+03  0.12509000000E+03 0.  0.
         25    1    4    4    0    0 -0.24204489564E+02  0.21748169676E+01 -0.54636456199E+02  0.13864789068E+03  0.12509000000E+03 0.  0.
<mgrwt>
<rscale>  2 0.41743398E+03</rscale>
<asrwt>0</asrwt>
<pdfrwt beam="1">  1       21 0.20828442E-01 0.41743398E+03</pdfrwt>
<pdfrwt beam="2">  1       21 0.45231501E-01 0.41743398E+03</pdfrwt>
<totfact> 0.94084681E+04</totfact>
</mgrwt>
</event>
<event>
 7    0  0.4779893E-002  0.4604524E+03  0.7546771E-02  0.1024650E+00
         21   -1    0    0  502  501  0.00000000000E+00  0.00000000000E+00  0.41168829855E+02  0.41168829855E+02  0.00000000000E+00 0.  1.
         21   -1    0    0  501  502 -0.00000000000E+00 -0.00000000000E+00 -0.12874815546E+04  0.12874815546E+04  0.00000000000E+00 0.  1.
      99926    2    1    2    0    0  0.00000000000E+00  0.26645352591E-14 -0.12463127248E+04  0.13286503845E+04  0.46045242561E+03 0.  0.
      99925    2    3    3    0    0 -0.35025404415E+02  0.69383777979E+01 -0.45514300651E+03  0.52685742415E+03  0.26296134500E+03 0.  0.
         25    1    4    4    0    0  0.41953080101E+01  0.37587980147E+02 -0.22988043501E+03  0.26442953572E+03  0.12509000000E+03 0.  0.
         25    1    3    3    0    0  0.35025404415E+02 -0.69383777979E+01 -0.79116971827E+03  0.80179296034E+03  0.12509000000E+03 0.  0.
         25    1    4    4    0    0 -0.39220712425E+02 -0.30649602349E+02 -0.22526257150E+03  0.26242788843E+03  0.12509000000E+03 0.  0.
<mgrwt>
<rscale>  2 0.46045243E+03</rscale>
<asrwt>0</asrwt>
<pdfrwt beam="1">  1       21 0.60542406E-02 0.46045243E+03</pdfrwt>
<pdfrwt beam="2">  1       21 0.18933550E+00 0.46045243E+03</pdfrwt>
<totfact> 0.27125528E+04</totfact>
</mgrwt>
</event>
<event>
 7    0  0.4779893E-002  0.4572245E+03  0.7546771E-02  0.1025589E+00
         21   -1    0    0  502  501  0.00000000000E+00  0.00000000000E+00  0.32357632961E+03  0.32357632961E+03  0.00000000000E+00 0.  1.
         21   -1    0    0  501  502 -0.00000000000E+00 -0.00000000000E+00 -0.16151849330E+03  0.16151849330E+03  0.00000000000E+00 0.  1.
      99926    2    1    2    0    0  0.00000000000E+00  0.35527136788E-14  0.16205783631E+03  0.48509482292E+03  0.45722450165E+03 0.  0.
      99925    2    3    3    0    0 -0.38857659488E+02  0.17101530928E+02  0.21547323074E+03  0.34260590221E+03  0.26295952351E+03 0.  0.
         25    1    3    3    0    0  0.38857659488E+02 -0.17101530928E+02 -0.53415394429E+02  0.14248892070E+03  0.12509000000E+03 0.  0.
         25    1    4    4    0    0 -0.90234426378E+01  0.40213065413E+02  0.78572325160E+02  0.15336111478E+03  0.12509000000E+03 0.  0.
         25    1    4    4    0    0 -0.29834216850E+02 -0.23111534484E+02  0.13690090558E+03  0.18924478743E+03  0.12509000000E+03 0.  0.
<mgrwt>
<rscale>  2 0.45722450E+03</rscale>
<asrwt>0</asrwt>
<pdfrwt beam="1">  1       21 0.47584755E-01 0.45722450E+03</pdfrwt>
<pdfrwt beam="2">  1       21 0.23752720E-01 0.45722450E+03</pdfrwt>
<totfact> 0.65172589E+04</totfact>
</mgrwt>
</event>
<event>
 7    0  0.4779893E-002  0.4527062E+03  0.7546771E-02  0.1026918E+00
         21   -1    0    0  502  501  0.00000000000E+00  0.00000000000E+00  0.87457086956E+02  0.87457086956E+02  0.00000000000E+00 0.  1.
         21   -1    0    0  501  502 -0.00000000000E+00 -0.00000000000E+00 -0.58583853174E+03  0.58583853174E+03  0.00000000000E+00 0.  1.
      99926    2    1    2    0    0 -0.13322676296E-14  0.00000000000E+00 -0.49838144478E+03  0.67329561870E+03  0.45270622444E+03 0.  0.
      99925    2    3    3    0    0  0.38924075399E+01 -0.94879070125E+02 -0.39988698796E+03  0.48791532064E+03  0.26293453213E+03 0.  0.
         25    1    4    4    0    0 -0.88012598732E+01 -0.45377747726E+02 -0.26670857096E+03  0.29819049631E+03  0.12509000000E+03 0.  0.
         25    1    3    3    0    0 -0.38924075399E+01  0.94879070125E+02 -0.98494456820E+02  0.18538029806E+03  0.12509000000E+03 0.  0.
         25    1    4    4    0    0  0.12693667413E+02 -0.49501322400E+02 -0.13317841700E+03  0.18972482433E+03  0.12509000000E+03 0.  0.
<mgrwt>
<rscale>  2 0.45270622E+03</rscale>
<asrwt>0</asrwt>
<pdfrwt beam="1">  1       21 0.12861336E-01 0.45270622E+03</pdfrwt>
<pdfrwt beam="2">  1       21 0.86152729E-01 0.45270622E+03</pdfrwt>
<totfact> 0.55371273E+04</totfact>
</mgrwt>
</event>
<event>
 7    0  0.4779893E-002  0.4587448E+03  0.7546771E-02  0.1025146E+00
         21   -1    0    0  502  501  0.00000000000E+00  0.00000000000E+00  0.18172296245E+03  0.18172296245E+03  0.00000000000E+00 0.  1.
         21   -1    0    0  501  502 -0.00000000000E+00 -0.00000000000E+00 -0.28951596011E+03  0.28951596011E+03  0.00000000000E+00 0.  1.
      99926    2    1    2    0    0  0.00000000000E+00  0.71054273576E-14 -0.10779299766E+03  0.47123892256E+03  0.45874480029E+03 0.  0.
      99925    2    3    3    0    0  0.10960156404E+03 -0.37090069961E+02 -0.83267816732E+02  0.29908443168E+03  0.26292544921E+03 0.  0.
         25    1    4    4    0    0  0.33895624805E+02 -0.51031095640E+02 -0.53578122485E+02  0.14923541608E+03  0.12509000000E+03 0.  0.
         25    1    4    4    0    0  0.75705939237E+02  0.13941025679E+02 -0.29689694247E+02  0.14984901560E+03  0.12509000000E+03 0.  0.
         25    1    3    3    0    0 -0.10960156404E+03  0.37090069961E+02 -0.24525180925E+02  0.17215449088E+03  0.12509000000E+03 0.  0.
<mgrwt>
<rscale>  2 0.45874480E+03</rscale>
<asrwt>0</asrwt>
<pdfrwt beam="1">  1       21 0.26723965E-01 0.45874480E+03</pdfrwt>
<pdfrwt beam="2">  1       21 0.42575876E-01 0.45874480E+03</pdfrwt>
<totfact> 0.65379942E+04</totfact>
</mgrwt>
</event>
<event>
 7    0  0.4779893E-002  0.4520356E+03  0.7546771E-02  0.1027117E+00
         21   -1    0    0  502  501  0.00000000000E+00  0.00000000000E+00  0.36107770528E+03  0.36107770528E+03  0.00000000000E+00 0.  1.
         21   -1    0    0  501  502 -0.00000000000E+00 -0.00000000000E+00 -0.14147659119E+03  0.14147659119E+03  0.00000000000E+00 0.  1.
      99926    2    1    2    0    0  0.00000000000E+00  0.00000000000E+00  0.21960111409E+03  0.50255429647E+03  0.45203558664E+03 0.  0.
      99925    2    3    3    0    0 -0.93692017953E+02  0.57066165589E+02  0.12510961181E+03  0.31121456305E+03  0.26299685892E+03 0.  0.
         25    1    4    4    0    0 -0.83825915912E+02  0.44530011200E+02  0.86804668425E+02  0.17942202941E+03  0.12509000000E+03 0.  0.
         25    1    4    4    0    0 -0.98661020413E+01  0.12536154389E+02  0.38304943385E+02  0.13179253364E+03  0.12509000000E+03 0.  0.
         25    1    3    3    0    0  0.93692017953E+02 -0.57066165589E+02  0.94491502283E+02  0.19133973342E+03  0.12509000000E+03 0.  0.
<mgrwt>
<rscale>  2 0.45203559E+03</rscale>
<asrwt>0</asrwt>
<pdfrwt beam="1">  1       21 0.53099662E-01 0.45203559E+03</pdfrwt>
<pdfrwt beam="2">  1       21 0.20805381E-01 0.45203559E+03</pdfrwt>
<totfact> 0.66646000E+04</totfact>
</mgrwt>
</event>
<event>
 7    0  0.4779893E-002  0.4565042E+03  0.7546771E-02  0.1025800E+00
         21   -1    0    0  502  501  0.00000000000E+00  0.00000000000E+00  0.19982969303E+04  0.19982969303E+04  0.00000000000E+00 0.  1.
         21   -1    0    0  501  502 -0.00000000000E+00 -0.00000000000E+00 -0.26071708455E+02  0.26071708455E+02  0.00000000000E+00 0.  1.
      99926    2    1    2    0    0  0.00000000000E+00 -0.71054273576E-14  0.19722252218E+04  0.20243686387E+04  0.45650417291E+03 0.  0.
      99925    2    3    3    0    0  0.10365395912E+03 -0.42666337413E+02  0.13443517231E+04  0.13744169497E+04  0.26301299702E+03 0.  0.
         25    1    4    4    0    0  0.41114566648E+02 -0.53858827537E+02  0.78147890222E+03  0.79432232980E+03  0.12509000000E+03 0.  0.
         25    1    3    3    0    0 -0.10365395912E+03  0.42666337413E+02  0.62787349872E+03  0.64995168904E+03  0.12509000000E+03 0.  0.
         25    1    4    4    0    0  0.62539392476E+02  0.11192490123E+02  0.56287282086E+03  0.58009461987E+03  0.12509000000E+03 0.  0.
<mgrwt>
<rscale>  2 0.45650417E+03</rscale>
<asrwt>0</asrwt>
<pdfrwt beam="1">  1       21 0.29386709E+00 0.45650417E+03</pdfrwt>
<pdfrwt beam="2">  1       21 0.38340761E-02 0.45650417E+03</pdfrwt>
<totfact> 0.13161527E+04</totfact>
</mgrwt>
</event>
<event>
 7    0  0.4779893E-002  0.4344915E+03  0.7546771E-02  0.1032450E+00
         21   -1    0    0  502  501  0.00000000000E+00  0.00000000000E+00  0.13218516787E+03  0.13218516787E+03  0.00000000000E+00 0. -1.
         21   -1    0    0  501  502 -0.00000000000E+00 -0.00000000000E+00 -0.35704241040E+03  0.35704241040E+03  0.00000000000E+00 0. -1.
      99926    2    1    2    0    0  0.00000000000E+00 -0.88817841970E-15 -0.22485724253E+03  0.48922757827E+03  0.43449147728E+03 0.  0.
      99925    2    3    3    0    0  0.76117663576E+02  0.69961718975E+01 -0.20373663807E+03  0.34111804731E+03  0.26269765773E+03 0.  0.
         25    1    4    4    0    0  0.26055946742E+02  0.96387231215E+00 -0.51593280772E+02  0.13780136477E+03  0.12509000000E+03 0.  0.
         25    1    4    4    0    0  0.50061716834E+02  0.60322995853E+01 -0.15214335730E+03  0.20331668254E+03  0.12509000000E+03 0.  0.
         25    1    3    3    0    0 -0.76117663576E+02 -0.69961718975E+01 -0.21120604457E+02  0.14810953096E+03  0.12509000000E+03 0.  0.
<mgrwt>
<rscale>  2 0.43449148E+03</rscale>
<asrwt>0</asrwt>
<pdfrwt beam="1">  1       21 0.19438995E-01 0.43449148E+03</pdfrwt>
<pdfrwt beam="2">  1       21 0.52506237E-01 0.43449148E+03</pdfrwt>
<totfact> 0.77975691E+04</totfact>
</mgrwt>
</event>
<event>
 7    0  0.4779893E-002  0.4613061E+03  0.7546771E-02  0.1024403E+00
         21   -1    0    0  502  501  0.00000000000E+00  0.00000000000E+00  0.14006493630E+03  0.14006493630E+03  0.00000000000E+00 0.  1.
         21   -1    0    0  501  502 -0.00000000000E+00 -0.00000000000E+00 -0.37982971805E+03  0.37982971805E+03  0.00000000000E+00 0.  1.
      99926    2    1    2    0    0 -0.14210854715E-13 -0.17763568394E-14 -0.23976478175E+03  0.51989465435E+03  0.46130608174E+03 0.  0.
      99925    2    3    3    0    0 -0.11407705066E+03  0.11358066274E+02 -0.11416907573E+03  0.30879191011E+03  0.26301195170E+03 0.  0.
         25    1    4    4    0    0 -0.35902406280E+02  0.17511881974E+02 -0.89986227562E+02  0.15918755617E+03  0.12509000000E+03 0.  0.
         25    1    3    3    0    0  0.11407705066E+03 -0.11358066274E+02 -0.12559570601E+03  0.21110274424E+03  0.12509000000E+03 0.  0.
         25    1    4    4    0    0 -0.78174644384E+02 -0.61538157002E+01 -0.24182848170E+02  0.14960435394E+03  0.12509000000E+03 0.  0.
<mgrwt>
<rscale>  2 0.46130608E+03</rscale>
<asrwt>0</asrwt>
<pdfrwt beam="1">  1       21 0.20597785E-01 0.46130608E+03</pdfrwt>
<pdfrwt beam="2">  1       21 0.55857310E-01 0.46130608E+03</pdfrwt>
<totfact> 0.60794999E+04</totfact>
</mgrwt>
</event>
<event>
 7    0  0.4779893E-002  0.4520807E+03  0.7546771E-02  0.1027103E+00
         21   -1    0    0  502  501  0.00000000000E+00  0.00000000000E+00  0.14567785258E+04  0.14567785258E+04  0.00000000000E+00 0.  1.
         21   -1    0    0  501  502 -0.00000000000E+00 -0.00000000000E+00 -0.35073450278E+02  0.35073450278E+02  0.00000000000E+00 0.  1.
      99926    2    1    2    0    0  0.00000000000E+00 -0.71054273576E-14  0.14217050755E+04  0.14918519760E+04  0.45208074142E+03 0.  0.
      99925    2    3    3    0    0  0.58477573172E+02  0.51446294837E+02  0.63866362849E+03  0.69506608032E+03  0.26298151614E+03 0.  0.
         25    1    4    4    0    0  0.61110514874E+02  0.42674987916E+02  0.39563543150E+03  0.42158101520E+03  0.12509000000E+03 0.  0.
         25    1    4    4    0    0 -0.26329417027E+01  0.87713069211E+01  0.24302819699E+03  0.27348506511E+03  0.12509000000E+03 0.  0.
         25    1    3    3    0    0 -0.58477573172E+02 -0.51446294837E+02  0.78304144700E+03  0.79678589573E+03  0.12509000000E+03 0.  0.
<mgrwt>
<rscale>  2 0.45208074E+03</rscale>
<asrwt>0</asrwt>
<pdfrwt beam="1">  1       21 0.21423210E+00 0.45208074E+03</pdfrwt>
<pdfrwt beam="2">  1       21 0.51578613E-02 0.45208074E+03</pdfrwt>
<totfact> 0.24531091E+04</totfact>
</mgrwt>
</event>
<event>
 7    0  0.4779893E-002  0.4661446E+03  0.7546771E-02  0.1023014E+00
         21   -1    0    0  502  501  0.00000000000E+00  0.00000000000E+00  0.55726149710E+02  0.55726149710E+02  0.00000000000E+00 0. -1.
         21   -1    0    0  501  502 -0.00000000000E+00 -0.00000000000E+00 -0.97481524197E+03  0.97481524197E+03  0.00000000000E+00 0. -1.
      99926    2    1    2    0    0 -0.14210854715E-13  0.00000000000E+00 -0.91908909226E+03  0.10305413917E+04  0.46614461324E+03 0.  0.
      99925    2    3    3    0    0 -0.70723255606E+02 -0.59613099792E+02 -0.75291759289E+03  0.80291016392E+03  0.26310516735E+03 0.  0.
         25    1    4    4    0    0 -0.66691985781E+02 -0.40432596791E+01 -0.37043253105E+03  0.39665090076E+03  0.12509000000E+03 0.  0.
         25    1    3    3    0    0  0.70723255606E+02  0.59613099792E+02 -0.16617149937E+03  0.22763122776E+03  0.12509000000E+03 0.  0.
         25    1    4    4    0    0 -0.40312698249E+01 -0.55569840113E+02 -0.38248506184E+03  0.40625926315E+03  0.12509000000E+03 0.  0.
<mgrwt>
<rscale>  2 0.46614461E+03</rscale>
<asrwt>0</asrwt>
<pdfrwt beam="1">  1       21 0.81950223E-02 0.46614461E+03</pdfrwt>
<pdfrwt beam="2">  1       21 0.14335518E+00 0.46614461E+03</pdfrwt>
<totfact> 0.34865820E+04</totfact>
</mgrwt>
</event>
<event>
 7    0  0.4779893E-002  0.4538930E+03  0.7546771E-02  0.1026567E+00
         21   -1    0    0  502  501  0.00000000000E+00  0.00000000000E+00  0.41801373513E+03  0.41801373513E+03  0.00000000000E+00 0. -1.
         21   -1    0    0  501  502 -0.00000000000E+00 -0.00000000000E+00 -0.12321294662E+03  0.12321294662E+03  0.00000000000E+00 0. -1.
      99926    2    1    2    0    0  0.00000000000E+00  0.17763568394E-14  0.29480078851E+03  0.54122668175E+03  0.45389295669E+03 0.  0.
      99925    2    3    3    0    0  0.33299446272E+02 -0.15809661056E+02  0.59452938684E+02  0.27216364634E+03  0.26302015126E+03 0.  0.
         25    1    4    4    0    0  0.57807468889E+00 -0.42559908798E+02  0.15681983319E+02  0.13306056030E+03  0.12509000000E+03 0.  0.
         25    1    3    3    0    0 -0.33299446272E+02  0.15809661056E+02  0.23534784982E+03  0.26906303540E+03  0.12509000000E+03 0.  0.
         25    1    4    4    0    0  0.32721371583E+02  0.26750247742E+02  0.43770955365E+02  0.13910308604E+03  0.12509000000E+03 0.  0.
<mgrwt>
<rscale>  2 0.45389296E+03</rscale>
<asrwt>0</asrwt>
<pdfrwt beam="1">  1       21 0.61472608E-01 0.45389296E+03</pdfrwt>
<pdfrwt beam="2">  1       21 0.18119551E-01 0.45389296E+03</pdfrwt>
<totfact> 0.63000127E+04</totfact>
</mgrwt>
</event>
<event>
 7    0  0.4779893E-002  0.4563203E+03  0.7546771E-02  0.1025854E+00
         21   -1    0    0  502  501  0.00000000000E+00  0.00000000000E+00  0.42033168872E+03  0.42033168872E+03  0.00000000000E+00 0. -1.
         21   -1    0    0  501  502 -0.00000000000E+00 -0.00000000000E+00 -0.12384753897E+03  0.12384753897E+03  0.00000000000E+00 0. -1.
      99926    2    1    2    0    0  0.00000000000E+00  0.00000000000E+00  0.29648414975E+03  0.54417922770E+03  0.45632026122E+03 0.  0.
      99925    2    3    3    0    0  0.79743849817E+02  0.47825432799E+02  0.10704394701E+03  0.29886014544E+03  0.26308292672E+03 0.  0.
         25    1    4    4    0    0  0.71712785532E+02  0.52312077954E+02  0.64782647772E+02  0.16650398392E+03  0.12509000000E+03 0.  0.
         25    1    4    4    0    0  0.80310642850E+01 -0.44866451558E+01  0.42261299239E+02  0.13235616152E+03  0.12509000000E+03 0.  0.
         25    1    3    3    0    0 -0.79743849817E+02 -0.47825432799E+02  0.18944020274E+03  0.24531908226E+03  0.12509000000E+03 0.  0.
<mgrwt>
<rscale>  2 0.45632026E+03</rscale>
<asrwt>0</asrwt>
<pdfrwt beam="1">  1       21 0.61813483E-01 0.45632026E+03</pdfrwt>
<pdfrwt beam="2">  1       21 0.18212873E-01 0.45632026E+03</pdfrwt>
<totfact> 0.61606646E+04</totfact>
</mgrwt>
</event>
<event>
 6    0  0.4779893E-002  0.4535907E+03  0.7546771E-02  0.1026657E+00
         21   -1    0    0  502  501  0.00000000000E+00  0.00000000000E+00  0.42277814088E+03  0.42277814088E+03  0.00000000000E+00 0. -1.
         21   -1    0    0  501  502 -0.00000000000E+00 -0.00000000000E+00 -0.12166223791E+03  0.12166223791E+03  0.00000000000E+00 0. -1.
      99926    2    1    2    0    0  0.00000000000E+00  0.00000000000E+00  0.30111590297E+03  0.54444037879E+03  0.45359071753E+03 0.  0.
         25    1    3    3    0    0 -0.48764741489E+01  0.41456481938E+02  0.83770319045E+02  0.15622866046E+03  0.12509000000E+03 0.  0.
         25    1    3    3    0    0 -0.78343746166E+02  0.35417642513E+02  0.11904374563E+03  0.19290171963E+03  0.12509000000E+03 0.  0.
         25    1    3    3    0    0  0.83220220314E+02 -0.76874124451E+02  0.98301838299E+02  0.19530999870E+03  0.12509000000E+03 0.  0.
<mgrwt>
<rscale>  2 0.45359072E+03</rscale>
<asrwt>0</asrwt>
<pdfrwt beam="1">  1       21 0.62173255E-01 0.45359072E+03</pdfrwt>
<pdfrwt beam="2">  1       21 0.17891506E-01 0.45359072E+03</pdfrwt>
<totfact> 0.62934289E+04</totfact>
</mgrwt>
</event>
<event>
 7    0  0.4779893E-002  0.4520167E+03  0.7546771E-02  0.1027122E+00
         21   -1    0    0  502  501  0.00000000000E+00  0.00000000000E+00  0.18457151036E+04  0.18457151036E+04  0.00000000000E+00 0. -1.
         21   -1    0    0  501  502 -0.00000000000E+00 -0.00000000000E+00 -0.27674793886E+02  0.27674793886E+02  0.00000000000E+00 0. -1.
      99926    2    1    2    0    0  0.00000000000E+00  0.00000000000E+00  0.18180403097E+04  0.18733898975E+04  0.45201674776E+03 0.  0.
      99925    2    3    3    0    0 -0.61427674444E+02 -0.23276832545E+02  0.77956582552E+03  0.82534794578E+03  0.26298514247E+03 0.  0.
         25    1    4    4    0    0  0.12844648005E+01 -0.34208252864E+02  0.41023606925E+03  0.43024759736E+03  0.12509000000E+03 0.  0.
         25    1    3    3    0    0  0.61427674444E+02  0.23276832545E+02  0.10384744842E+04  0.10480419517E+04  0.12509000000E+03 0.  0.
         25    1    4    4    0    0 -0.62712139245E+02  0.10931420318E+02  0.36932975627E+03  0.39510034842E+03  0.12509000000E+03 0.  0.
<mgrwt>
<rscale>  2 0.45201675E+03</rscale>
<asrwt>0</asrwt>
<pdfrwt beam="1">  1       21 0.27142861E+00 0.45201675E+03</pdfrwt>
<pdfrwt beam="2">  1       21 0.40698239E-02 0.45201675E+03</pdfrwt>
<totfact> 0.16262338E+04</totfact>
</mgrwt>
</event>
<event>
 7    0  0.4779893E-002  0.4430864E+03  0.7546771E-02  0.1029804E+00
         21   -1    0    0  502  501  0.00000000000E+00  0.00000000000E+00  0.90402693373E+02  0.90402693373E+02  0.00000000000E+00 0.  1.
         21   -1    0    0  501  502 -0.00000000000E+00 -0.00000000000E+00 -0.54291957020E+03  0.54291957020E+03  0.00000000000E+00 0.  1.
      99926    2    1    2    0    0  0.88817841970E-15  0.17763568394E-14 -0.45251687683E+03  0.63332226357E+03  0.44308640887E+03 0.  0.
      99925    2    3    3    0    0 -0.45960851407E+01  0.12701877964E+02 -0.43174872300E+03  0.50580251602E+03  0.26314779820E+03 0.  0.
         25    1    4    4    0    0 -0.11323014663E+01  0.26069980131E+02 -0.28593781158E+03  0.31319142096E+03  0.12509000000E+03 0.  0.
         25    1    3    3    0    0  0.45960851407E+01 -0.12701877964E+02 -0.20768153829E+02  0.12751974755E+03  0.12509000000E+03 0.  0.
         25    1    4    4    0    0 -0.34637836744E+01 -0.13368102167E+02 -0.14581091142E+03  0.19261109507E+03  0.12509000000E+03 0.  0.
<mgrwt>
<rscale>  2 0.44308641E+03</rscale>
<asrwt>0</asrwt>
<pdfrwt beam="1">  1       21 0.13294514E-01 0.44308641E+03</pdfrwt>
<pdfrwt beam="2">  1       21 0.79841114E-01 0.44308641E+03</pdfrwt>
<totfact> 0.62329929E+04</totfact>
</mgrwt>
</event>
<event>
 7    0  0.4779893E-002  0.4534348E+03  0.7546771E-02  0.1026703E+00
         21   -1    0    0  502  501  0.00000000000E+00  0.00000000000E+00  0.61332629890E+02  0.61332629890E+02  0.00000000000E+00 0. -1.
         21   -1    0    0  501  502 -0.00000000000E+00 -0.00000000000E+00 -0.83806580839E+03  0.83806580839E+03  0.00000000000E+00 0. -1.
      99926    2    1    2    0    0  0.00000000000E+00  0.00000000000E+00 -0.77673317850E+03  0.89939843828E+03  0.45343480259E+03 0.  0.
      99925    2    3    3    0    0  0.24766664224E+01 -0.24368636898E+02 -0.27331079853E+03  0.38008970054E+03  0.26300080517E+03 0.  0.
         25    1    4    4    0    0 -0.93640917239E+00  0.18581140576E+02 -0.17181744767E+03  0.21334216431E+03  0.12509000000E+03 0.  0.
         25    1    4    4    0    0  0.34130755948E+01 -0.42949777474E+02 -0.10149335086E+03  0.16674753623E+03  0.12509000000E+03 0.  0.
         25    1    3    3    0    0 -0.24766664224E+01  0.24368636898E+02 -0.50342237997E+03  0.51930873774E+03  0.12509000000E+03 0.  0.
<mgrwt>
<rscale>  2 0.45343480E+03</rscale>
<asrwt>0</asrwt>
<pdfrwt beam="1">  1       21 0.90195053E-02 0.45343480E+03</pdfrwt>
<pdfrwt beam="2">  1       21 0.12324496E+00 0.45343480E+03</pdfrwt>
<totfact> 0.43793931E+04</totfact>
</mgrwt>
</event>
<event>
 7    0  0.4779893E-002  0.4560538E+03  0.7546771E-02  0.1025932E+00
         21   -1    0    0  502  501  0.00000000000E+00  0.00000000000E+00  0.58523870621E+02  0.58523870621E+02  0.00000000000E+00 0. -1.
         21   -1    0    0  501  502 -0.00000000000E+00 -0.00000000000E+00 -0.88846267189E+03  0.88846267189E+03  0.00000000000E+00 0. -1.
      99926    2    1    2    0    0  0.00000000000E+00  0.00000000000E+00 -0.82993880126E+03  0.94698654251E+03  0.45605383218E+03 0.  0.
      99925    2    3    3    0    0  0.21870709667E+02 -0.25032460389E+02 -0.74868959585E+03  0.79416673524E+03  0.26279220003E+03 0.  0.
         25    1    4    4    0    0  0.30573721505E+02 -0.28793306816E+02 -0.28957208416E+03  0.31821896076E+03  0.12509000000E+03 0.  0.
         25    1    3    3    0    0 -0.21870709667E+02  0.25032460389E+02 -0.81249205409E+02  0.15281980727E+03  0.12509000000E+03 0.  0.
         25    1    4    4    0    0 -0.87030118387E+01  0.37608464270E+01 -0.45911751169E+03  0.47594777447E+03  0.12509000000E+03 0.  0.
<mgrwt>
<rscale>  2 0.45605383E+03</rscale>
<asrwt>0</asrwt>
<pdfrwt beam="1">  1       21 0.86064527E-02 0.45605383E+03</pdfrwt>
<pdfrwt beam="2">  1       21 0.13065626E+00 0.45605383E+03</pdfrwt>
<totfact> 0.40924766E+04</totfact>
</mgrwt>
</event>
<event>
 7    0  0.4779893E-002  0.4645042E+03  0.7546771E-02  0.1023483E+00
         21   -1    0    0  502  501  0.00000000000E+00  0.00000000000E+00  0.19018586228E+04  0.19018586228E+04  0.00000000000E+00 0. -1.
         21   -1    0    0  501  502 -0.00000000000E+00 -0.00000000000E+00 -0.28362270298E+02  0.28362270298E+02  0.00000000000E+00 0. -1.
      99926    2    1    2    0    0  0.00000000000E+00  0.00000000000E+00  0.18734963525E+04  0.19302208931E+04  0.46450415856E+03 0.  0.
      99925    2    3    3    0    0 -0.10601006168E+03 -0.18679767966E+02  0.14062798926E+04  0.14347152974E+04  0.26305471147E+03 0.  0.
         25    1    4    4    0    0 -0.88128618763E+02  0.13757681020E+02  0.73848811855E+03  0.75429976572E+03  0.12509000000E+03 0.  0.
         25    1    4    4    0    0 -0.17881442920E+02 -0.32437448987E+02  0.66779177404E+03  0.68041553163E+03  0.12509000000E+03 0.  0.
         25    1    3    3    0    0  0.10601006168E+03  0.18679767966E+02  0.46721645992E+03  0.49550559576E+03  0.12509000000E+03 0.  0.
<mgrwt>
<rscale>  2 0.46450416E+03</rscale>
<asrwt>0</asrwt>
<pdfrwt beam="1">  1       21 0.27968501E+00 0.46450416E+03</pdfrwt>
<pdfrwt beam="2">  1       21 0.41709234E-02 0.46450416E+03</pdfrwt>
<totfact> 0.13833852E+04</totfact>
</mgrwt>
</event>
<event>
 7    0  0.4779893E-002  0.4396915E+03  0.7546771E-02  0.1030841E+00
         21   -1    0    0  502  501  0.00000000000E+00  0.00000000000E+00  0.24221346708E+03  0.24221346708E+03  0.00000000000E+00 0. -1.
         21   -1    0    0  501  502 -0.00000000000E+00 -0.00000000000E+00 -0.19954366289E+03  0.19954366289E+03  0.00000000000E+00 0. -1.
      99926    2    1    2    0    0 -0.71054273576E-14  0.17763568394E-14  0.42669804187E+02  0.44175712997E+03  0.43969153925E+03 0.  0.
      99925    2    3    3    0    0 -0.33882377003E+02 -0.11484623445E+02  0.11893101356E+03  0.29094866800E+03  0.26310953874E+03 0.  0.
         25    1    3    3    0    0  0.33882377003E+02  0.11484623445E+02 -0.76261209372E+02  0.15080846197E+03  0.12509000000E+03 0.  0.
         25    1    4    4    0    0 -0.41987876683E+02 -0.20623294114E+02  0.92659727522E+02  0.16254733235E+03  0.12509000000E+03 0.  0.
         25    1    4    4    0    0  0.81054996801E+01  0.91386706687E+01  0.26271286037E+02  0.12840133565E+03  0.12509000000E+03 0.  0.
<mgrwt>
<rscale>  2 0.43969154E+03</rscale>
<asrwt>0</asrwt>
<pdfrwt beam="1">  1       21 0.35619628E-01 0.43969154E+03</pdfrwt>
<pdfrwt beam="2">  1       21 0.29344656E-01 0.43969154E+03</pdfrwt>
<totfact> 0.78710252E+04</totfact>
</mgrwt>
</event>
<event>
 7    0  0.4779893E-002  0.4550101E+03  0.7546771E-02  0.1026238E+00
         21   -1    0    0  502  501  0.00000000000E+00  0.00000000000E+00  0.39496051982E+03  0.39496051982E+03  0.00000000000E+00 0.  1.
         21   -1    0    0  501  502 -0.00000000000E+00 -0.00000000000E+00 -0.13104738346E+03  0.13104738346E+03  0.00000000000E+00 0.  1.
      99926    2    1    2    0    0  0.00000000000E+00  0.88817841970E-15  0.26391313635E+03  0.52600790328E+03  0.45501007766E+03 0.  0.
      99925    2    3    3    0    0  0.11099473646E+03 -0.55099237823E+01  0.19045080328E+03  0.34326651973E+03  0.26307832353E+03 0.  0.
         25    1    4    4    0    0  0.51191574446E+02 -0.25390996017E+02  0.13472729446E+03  0.19252073121E+03  0.12509000000E+03 0.  0.
         25    1    3    3    0    0 -0.11099473646E+03  0.55099237823E+01  0.73462333072E+02  0.18274138355E+03  0.12509000000E+03 0.  0.
         25    1    4    4    0    0  0.59803162019E+02  0.19881072235E+02  0.55723508821E+02  0.15074578852E+03  0.12509000000E+03 0.  0.
<mgrwt>
<rscale>  2 0.45501008E+03</rscale>
<asrwt>0</asrwt>
<pdfrwt beam="1">  1       21 0.58082429E-01 0.45501008E+03</pdfrwt>
<pdfrwt beam="2">  1       21 0.19271674E-01 0.45501008E+03</pdfrwt>
<totfact> 0.63472509E+04</totfact>
</mgrwt>
</event>
<event>
 7    0  0.4779893E-002  0.4549706E+03  0.7546771E-02  0.1026250E+00
         21   -1    0    0  502  501  0.00000000000E+00  0.00000000000E+00  0.22053425198E+03  0.22053425198E+03  0.00000000000E+00 0.  1.
         21   -1    0    0  501  502 -0.00000000000E+00 -0.00000000000E+00 -0.23465540092E+03  0.23465540092E+03  0.00000000000E+00 0.  1.
      99926    2    1    2    0    0  0.00000000000E+00  0.00000000000E+00 -0.14121148941E+02  0.45518965289E+03  0.45497056306E+03 0.  0.
      99925    2    3    3    0    0 -0.11675092522E+02 -0.37992395374E+02 -0.11490726101E+03  0.28970527787E+03  0.26295577480E+03 0.  0.
         25    1    3    3    0    0  0.11675092522E+02  0.37992395374E+02  0.10078611206E+03  0.16548437502E+03  0.12509000000E+03 0.  0.
         25    1    4    4    0    0 -0.51596811253E+01 -0.36178332041E+02 -0.98513704114E+02  0.16336447599E+03  0.12509000000E+03 0.  0.
         25    1    4    4    0    0 -0.65154113966E+01 -0.18140633335E+01 -0.16393556892E+02  0.12634080188E+03  0.12509000000E+03 0.  0.
<mgrwt>
<rscale>  2 0.45497056E+03</rscale>
<asrwt>0</asrwt>
<pdfrwt beam="1">  1       21 0.32431508E-01 0.45497056E+03</pdfrwt>
<pdfrwt beam="2">  1       21 0.34508147E-01 0.45497056E+03</pdfrwt>
<totfact> 0.68548011E+04</totfact>
</mgrwt>
</event>
<event>
 7    0  0.4779893E-002  0.4597254E+03  0.7546771E-02  0.1024861E+00
         21   -1    0    0  502  501  0.00000000000E+00  0.00000000000E+00  0.38303569559E+03  0.38303569559E+03  0.00000000000E+00 0. -1.
         21   -1    0    0  501  502 -0.00000000000E+00 -0.00000000000E+00 -0.13794241951E+03  0.13794241951E+03  0.00000000000E+00 0. -1.
      99926    2    1    2    0    0  0.71054273576E-14  0.71054273576E-14  0.24509327608E+03  0.52097811510E+03  0.45972544244E+03 0.  0.
      99925    2    3    3    0    0  0.48865517875E+02  0.48948235474E+02  0.46079193729E+02  0.27595182739E+03  0.26313941239E+03 0.  0.
         25    1    4    4    0    0  0.60229027429E+00  0.71054868720E+01 -0.77556544539E+01  0.12553289996E+03  0.12509000000E+03 0.  0.
         25    1    4    4    0    0  0.48263227600E+02  0.41842748602E+02  0.53834848183E+02  0.15041892743E+03  0.12509000000E+03 0.  0.
         25    1    3    3    0    0 -0.48865517875E+02 -0.48948235474E+02  0.19901408235E+03  0.24502628771E+03  0.12509000000E+03 0.  0.
<mgrwt>
<rscale>  2 0.45972544E+03</rscale>
<asrwt>0</asrwt>
<pdfrwt beam="1">  1       21 0.56328779E-01 0.45972544E+03</pdfrwt>
<pdfrwt beam="2">  1       21 0.20285650E-01 0.45972544E+03</pdfrwt>
<totfact> 0.61482961E+04</totfact>
</mgrwt>
</event>
<event>
 7    0  0.4779893E-002  0.4213762E+03  0.7546771E-02  0.1036619E+00
         21   -1    0    0  502  501  0.00000000000E+00  0.00000000000E+00  0.34770988757E+03  0.34770988757E+03  0.00000000000E+00 0. -1.
         21   -1    0    0  501  502 -0.00000000000E+00 -0.00000000000E+00 -0.12766236196E+03  0.12766236196E+03  0.00000000000E+00 0. -1.
      99926    2    1    2    0    0  0.00000000000E+00  0.00000000000E+00  0.22004752561E+03  0.47537224954E+03  0.42137615275E+03 0.  0.
      99925    2    3    3    0    0  0.42846118894E+02 -0.63349131379E+02  0.15727396956E+03  0.31588265806E+03  0.26305484183E+03 0.  0.
         25    1    4    4    0    0 -0.76624708592E+01 -0.58735681536E+02  0.69525903659E+02  0.15488690430E+03  0.12509000000E+03 0.  0.
         25    1    3    3    0    0 -0.42846118894E+02  0.63349131379E+02  0.62773556050E+02  0.15948959148E+03  0.12509000000E+03 0.  0.
         25    1    4    4    0    0  0.50508589753E+02 -0.46134498430E+01  0.87748065901E+02  0.16099575376E+03  0.12509000000E+03 0.  0.
<mgrwt>
<rscale>  2 0.42137615E+03</rscale>
<asrwt>0</asrwt>
<pdfrwt beam="1">  1       21 0.51133807E-01 0.42137615E+03</pdfrwt>
<pdfrwt beam="2">  1       21 0.18773877E-01 0.42137615E+03</pdfrwt>
<totfact> 0.88373360E+04</totfact>
</mgrwt>
</event>
<event>
 7    0  0.4779893E-002  0.4556616E+03  0.7546771E-02  0.1026047E+00
         21   -1    0    0  502  501  0.00000000000E+00  0.00000000000E+00  0.14821728773E+03  0.14821728773E+03  0.00000000000E+00 0.  1.
         21   -1    0    0  501  502 -0.00000000000E+00 -0.00000000000E+00 -0.35020803107E+03  0.35020803107E+03  0.00000000000E+00 0.  1.
      99926    2    1    2    0    0 -0.17763568394E-14  0.00000000000E+00 -0.20199074334E+03  0.49842531880E+03  0.45566164863E+03 0.  0.
      99925    2    3    3    0    0  0.13045245526E+02 -0.11169698232E+03 -0.10824060090E+03  0.30585587264E+03  0.26303116327E+03 0.  0.
         25    1    4    4    0    0  0.45368502073E+02 -0.65621715594E+02 -0.65527449794E+02  0.16219082993E+03  0.12509000000E+03 0.  0.
         25    1    3    3    0    0 -0.13045245526E+02  0.11169698232E+03 -0.93750142442E+02  0.19256944617E+03  0.12509000000E+03 0.  0.
         25    1    4    4    0    0 -0.32323256547E+02 -0.46075266722E+02 -0.42713151104E+02  0.14366504270E+03  0.12509000000E+03 0.  0.
<mgrwt>
<rscale>  2 0.45566165E+03</rscale>
<asrwt>0</asrwt>
<pdfrwt beam="1">  1       21 0.21796660E-01 0.45566165E+03</pdfrwt>
<pdfrwt beam="2">  1       21 0.51501182E-01 0.45566165E+03</pdfrwt>
<totfact> 0.65039147E+04</totfact>
</mgrwt>
</event>
<event>
 7    0  0.4779893E-002  0.4555011E+03  0.7546771E-02  0.1026094E+00
         21   -1    0    0  502  501  0.00000000000E+00  0.00000000000E+00  0.25608428544E+04  0.25608428544E+04  0.00000000000E+00 0. -1.
         21   -1    0    0  501  502 -0.00000000000E+00 -0.00000000000E+00 -0.20255171327E+02  0.20255171327E+02  0.00000000000E+00 0. -1.
      99926    2    1    2    0    0 -0.71054273576E-14  0.00000000000E+00  0.25405876830E+04  0.25810980257E+04  0.45550109004E+03 0.  0.
      99925    2    3    3    0    0  0.34306053640E+02 -0.75854960800E+02  0.20362138414E+04  0.20548173395E+04  0.26301446833E+03 0.  0.
         25    1    4    4    0    0  0.56130855782E+01 -0.22239620077E+02  0.12442734845E+04  0.12507558194E+04  0.12509000000E+03 0.  0.
         25    1    4    4    0    0  0.28692968062E+02 -0.53615340723E+02  0.79194035692E+03  0.80406152016E+03  0.12509000000E+03 0.  0.
         25    1    3    3    0    0 -0.34306053640E+02  0.75854960800E+02  0.50437384167E+03  0.52628068619E+03  0.12509000000E+03 0.  0.
<mgrwt>
<rscale>  2 0.45550109E+03</rscale>
<asrwt>0</asrwt>
<pdfrwt beam="1">  1       21 0.37659431E+00 0.45550109E+03</pdfrwt>
<pdfrwt beam="2">  1       21 0.29787034E-02 0.45550109E+03</pdfrwt>
<totfact> 0.63126113E+03</totfact>
</mgrwt>
</event>
<event>
 7    0  0.4779893E-002  0.4548812E+03  0.7546771E-02  0.1026276E+00
         21   -1    0    0  502  501  0.00000000000E+00  0.00000000000E+00  0.19366319738E+03  0.19366319738E+03  0.00000000000E+00 0. -1.
         21   -1    0    0  501  502 -0.00000000000E+00 -0.00000000000E+00 -0.26710921429E+03  0.26710921429E+03  0.00000000000E+00 0. -1.
      99926    2    1    2    0    0  0.00000000000E+00  0.00000000000E+00 -0.73446016910E+02  0.46077241166E+03  0.45488119103E+03 0.  0.
      99925    2    3    3    0    0  0.81410842852E+02  0.77553369163E+02 -0.34246761354E+02  0.28806937134E+03  0.26299975596E+03 0.  0.
         25    1    4    4    0    0  0.26917503885E+01  0.40690003378E+02 -0.33395742780E+02  0.13574131880E+03  0.12509000000E+03 0.  0.
         25    1    3    3    0    0 -0.81410842852E+02 -0.77553369163E+02 -0.39199255556E+02  0.17270304033E+03  0.12509000000E+03 0.  0.
         25    1    4    4    0    0  0.78719092463E+02  0.36863365785E+02 -0.85101857435E+00  0.15232805253E+03  0.12509000000E+03 0.  0.
<mgrwt>
<rscale>  2 0.45488119E+03</rscale>
<asrwt>0</asrwt>
<pdfrwt beam="1">  1       21 0.28479882E-01 0.45488119E+03</pdfrwt>
<pdfrwt beam="2">  1       21 0.39280766E-01 0.45488119E+03</pdfrwt>
<totfact> 0.68188850E+04</totfact>
</mgrwt>
</event>
<event>
 7    0  0.4779893E-002  0.4402926E+03  0.7546771E-02  0.1030657E+00
         21   -1    0    0  502  501  0.00000000000E+00  0.00000000000E+00  0.19333453318E+03  0.19333453318E+03  0.00000000000E+00 0. -1.
         21   -1    0    0  501  502 -0.00000000000E+00 -0.00000000000E+00 -0.25067630226E+03  0.25067630226E+03  0.00000000000E+00 0. -1.
      99926    2    1    2    0    0 -0.17208456882E-14  0.00000000000E+00 -0.57341769080E+02  0.44401083545E+03  0.44029256582E+03 0.  0.
      99925    2    3    3    0    0  0.35542302175E+00  0.94742403370E+02 -0.64615340194E+02  0.28692276379E+03  0.26300813841E+03 0.  0.
         25    1    3    3    0    0 -0.35542302175E+00 -0.94742403370E+02  0.72735711146E+01  0.15708807166E+03  0.12509000000E+03 0.  0.
         25    1    4    4    0    0  0.21773848049E+02  0.69676812105E+02 -0.61517146044E+01  0.14496313427E+03  0.12509000000E+03 0.  0.
         25    1    4    4    0    0 -0.21418425028E+02  0.25065591264E+02 -0.58463625590E+02  0.14195962952E+03  0.12509000000E+03 0.  0.
<mgrwt>
<rscale>  2 0.44029257E+03</rscale>
<asrwt>0</asrwt>
<pdfrwt beam="1">  1       21 0.28431549E-01 0.44029257E+03</pdfrwt>
<pdfrwt beam="2">  1       21 0.36864162E-01 0.44029257E+03</pdfrwt>
<totfact> 0.78131515E+04</totfact>
</mgrwt>
</event>
<event>
 7    0  0.4779893E-002  0.4570326E+03  0.7546771E-02  0.1025645E+00
         21   -1    0    0  502  501  0.00000000000E+00  0.00000000000E+00  0.36649396345E+02  0.36649396345E+02  0.00000000000E+00 0. -1.
         21   -1    0    0  501  502 -0.00000000000E+00 -0.00000000000E+00 -0.14248450021E+04  0.14248450021E+04  0.00000000000E+00 0. -1.
      99926    2    1    2    0    0  0.00000000000E+00  0.00000000000E+00 -0.13881956057E+04  0.14614943984E+04  0.45703264308E+03 0.  0.
      99925    2    3    3    0    0 -0.86582891809E+02 -0.75529687573E+02 -0.88865442609E+03  0.93386741928E+03  0.26305956916E+03 0.  0.
         25    1    4    4    0    0 -0.88497635850E+01 -0.31718893201E+02 -0.32934836704E+03  0.35383931590E+03  0.12509000000E+03 0.  0.
         25    1    3    3    0    0  0.86582891809E+02  0.75529687573E+02 -0.49954117963E+03  0.52762697913E+03  0.12509000000E+03 0.  0.
         25    1    4    4    0    0 -0.77733128224E+02 -0.43810794373E+02 -0.55930605905E+03  0.58002810339E+03  0.12509000000E+03 0.  0.
<mgrwt>
<rscale>  2 0.45703264E+03</rscale>
<asrwt>0</asrwt>
<pdfrwt beam="1">  1       21 0.53896154E-02 0.45703264E+03</pdfrwt>
<pdfrwt beam="2">  1       21 0.20953610E+00 0.45703264E+03</pdfrwt>
<totfact> 0.24351392E+04</totfact>
</mgrwt>
</event>
<event>
 7    0  0.4779893E-002  0.4528055E+03  0.7546771E-02  0.1026889E+00
         21   -1    0    0  502  501  0.00000000000E+00  0.00000000000E+00  0.56394678847E+03  0.56394678847E+03  0.00000000000E+00 0.  1.
         21   -1    0    0  501  502 -0.00000000000E+00 -0.00000000000E+00 -0.90891922001E+02  0.90891922001E+02  0.00000000000E+00 0.  1.
      99926    2    1    2    0    0  0.00000000000E+00 -0.71054273576E-14  0.47305486647E+03  0.65483871047E+03  0.45280551017E+03 0.  0.
      99925    2    3    3    0    0 -0.97614659904E+02  0.42114501994E+02  0.26084783272E+03  0.38654486712E+03  0.26471322097E+03 0.  0.
         25    1    3    3    0    0  0.97614659904E+02 -0.42114501994E+02  0.21220703375E+03  0.26829384335E+03  0.12509000000E+03 0.  0.
         25    1    4    4    0    0 -0.46898179004E+02 -0.78364804254E+01  0.81882467973E+02  0.15688561528E+03  0.12509000000E+03 0.  0.
         25    1    4    4    0    0 -0.50716480900E+02  0.49950982419E+02  0.17896536475E+03  0.22965925185E+03  0.12509000000E+03 0.  0.
<mgrwt>
<rscale>  2 0.45280551E+03</rscale>
<asrwt>0</asrwt>
<pdfrwt beam="1">  1       21 0.82933350E-01 0.45280551E+03</pdfrwt>
<pdfrwt beam="2">  1       21 0.13366459E-01 0.45280551E+03</pdfrwt>
<totfact> 0.56393394E+04</totfact>
</mgrwt>
</event>
<event>
 7    0  0.4779893E-002  0.4583300E+03  0.7546771E-02  0.1025267E+00
         21   -1    0    0  502  501  0.00000000000E+00  0.00000000000E+00  0.24066613221E+03  0.24066613221E+03  0.00000000000E+00 0. -1.
         21   -1    0    0  501  502 -0.00000000000E+00 -0.00000000000E+00 -0.21821353534E+03  0.21821353534E+03  0.00000000000E+00 0. -1.
      99926    2    1    2    0    0  0.00000000000E+00  0.00000000000E+00  0.22452596870E+02  0.45887966754E+03  0.45833004503E+03 0.  0.
      99925    2    3    3    0    0 -0.80819270574E+02 -0.46784481755E+02  0.83317757439E+02  0.29133081466E+03  0.26308031595E+03 0.  0.
         25    1    4    4    0    0 -0.46762733701E+02  0.12082562747E+02  0.20269227756E+02  0.13561375771E+03  0.12509000000E+03 0.  0.
         25    1    3    3    0    0  0.80819270574E+02  0.46784481755E+02 -0.60865160570E+02  0.16754885288E+03  0.12509000000E+03 0.  0.
         25    1    4    4    0    0 -0.34056536873E+02 -0.58867044502E+02  0.63048529684E+02  0.15571705696E+03  0.12509000000E+03 0.  0.
<mgrwt>
<rscale>  2 0.45833005E+03</rscale>
<asrwt>0</asrwt>
<pdfrwt beam="1">  1       21 0.35392078E-01 0.45833005E+03</pdfrwt>
<pdfrwt beam="2">  1       21 0.32090226E-01 0.45833005E+03</pdfrwt>
<totfact> 0.66478557E+04</totfact>
</mgrwt>
</event>
<event>
 7    0  0.4779893E-002  0.4568591E+03  0.7546771E-02  0.1025696E+00
         21   -1    0    0  502  501  0.00000000000E+00  0.00000000000E+00  0.25158009109E+03  0.25158009109E+03  0.00000000000E+00 0. -1.
         21   -1    0    0  501  502 -0.00000000000E+00 -0.00000000000E+00 -0.20740937890E+03  0.20740937890E+03  0.00000000000E+00 0. -1.
      99926    2    1    2    0    0  0.00000000000E+00  0.00000000000E+00  0.44170712196E+02  0.45898946999E+03  0.45685914870E+03 0.  0.
      99925    2    3    3    0    0 -0.10572675690E+03 -0.11268912251E+02  0.70598054104E+02  0.29270342726E+03  0.26341236793E+03 0.  0.
         25    1    3    3    0    0  0.10572675690E+03  0.11268912251E+02 -0.26427341908E+02  0.16628604273E+03  0.12509000000E+03 0.  0.
         25    1    4    4    0    0 -0.49536666794E+02  0.28061119697E+02  0.10292684750E+02  0.13782146152E+03  0.12509000000E+03 0.  0.
         25    1    4    4    0    0 -0.56190090103E+02 -0.39330031948E+02  0.60305369354E+02  0.15488196574E+03  0.12509000000E+03 0.  0.
<mgrwt>
<rscale>  2 0.45685915E+03</rscale>
<asrwt>0</asrwt>
<pdfrwt beam="1">  1       21 0.36997072E-01 0.45685915E+03</pdfrwt>
<pdfrwt beam="2">  1       21 0.30501379E-01 0.45685915E+03</pdfrwt>
<totfact> 0.67251396E+04</totfact>
</mgrwt>
</event>
<event>
 7    0  0.4779893E-002  0.4615622E+03  0.7546771E-02  0.1024329E+00
         21   -1    0    0  502  501  0.00000000000E+00  0.00000000000E+00  0.16079583564E+04  0.16079583564E+04  0.00000000000E+00 0.  1.
         21   -1    0    0  501  502 -0.00000000000E+00 -0.00000000000E+00 -0.33122691653E+02  0.33122691653E+02  0.00000000000E+00 0.  1.
      99926    2    1    2    0    0  0.00000000000E+00  0.00000000000E+00  0.15748356647E+04  0.16410810480E+04  0.46156216842E+03 0.  0.
      99925    2    3    3    0    0 -0.10363505884E+03  0.57420249323E+02  0.93694921038E+03  0.98033605396E+03  0.26295939879E+03 0.  0.
         25    1    4    4    0    0 -0.79598269036E+02  0.29415740983E+02  0.60719914266E+03  0.62573115409E+03  0.12509000000E+03 0.  0.
         25    1    4    4    0    0 -0.24036789803E+02  0.28004508340E+02  0.32975006772E+03  0.35460489987E+03  0.12509000000E+03 0.  0.
         25    1    3    3    0    0  0.10363505884E+03 -0.57420249323E+02  0.63788645435E+03  0.66074499408E+03  0.12509000000E+03 0.  0.
<mgrwt>
<rscale>  2 0.46156217E+03</rscale>
<asrwt>0</asrwt>
<pdfrwt beam="1">  1       21 0.23646441E+00 0.46156217E+03</pdfrwt>
<pdfrwt beam="2">  1       21 0.48709852E-02 0.46156217E+03</pdfrwt>
<totfact> 0.19504315E+04</totfact>
</mgrwt>
</event>
<event>
 7    0  0.4779893E-002  0.4511383E+03  0.7546771E-02  0.1027383E+00
         21   -1    0    0  502  501  0.00000000000E+00  0.00000000000E+00  0.19845573265E+03  0.19845573265E+03  0.00000000000E+00 0. -1.
         21   -1    0    0  501  502 -0.00000000000E+00 -0.00000000000E+00 -0.25638688162E+03  0.25638688162E+03  0.00000000000E+00 0. -1.
      99926    2    1    2    0    0  0.00000000000E+00 -0.35527136788E-14 -0.57931148964E+02  0.45484261427E+03  0.45113832218E+03 0.  0.
      99925    2    3    3    0    0  0.70745179418E+02 -0.21407477377E+02  0.44812023793E+02  0.27689085635E+03  0.26305373663E+03 0.  0.
         25    1    4    4    0    0  0.62543585753E+02 -0.41394704933E+02  0.31850058054E+02  0.14928883419E+03  0.12509000000E+03 0.  0.
         25    1    3    3    0    0 -0.70745179418E+02  0.21407477377E+02 -0.10274317276E+03  0.17795175792E+03  0.12509000000E+03 0.  0.
         25    1    4    4    0    0  0.82015936653E+01  0.19987227556E+02  0.12961965740E+02  0.12760202216E+03  0.12509000000E+03 0.  0.
<mgrwt>
<rscale>  2 0.45113832E+03</rscale>
<asrwt>0</asrwt>
<pdfrwt beam="1">  1       21 0.29184667E-01 0.45113832E+03</pdfrwt>
<pdfrwt beam="2">  1       21 0.37703953E-01 0.45113832E+03</pdfrwt>
<totfact> 0.70710718E+04</totfact>
</mgrwt>
</event>
<event>
 6    0  0.4779893E-002  0.4559535E+03  0.7546771E-02  0.1025961E+00
         21   -1    0    0  502  501  0.00000000000E+00  0.00000000000E+00  0.48067100728E+03  0.48067100728E+03  0.00000000000E+00 0.  1.
         21   -1    0    0  501  502 -0.00000000000E+00 -0.00000000000E+00 -0.10812677777E+03  0.10812677777E+03  0.00000000000E+00 0.  1.
      99926    2    1    2    0    0  0.00000000000E+00  0.71054273576E-14  0.37254422951E+03  0.58879778506E+03  0.45595353792E+03 0.  0.
         25    1    3    3    0    0 -0.67918244521E+02 -0.17755912567E+02  0.10005606174E+03  0.17489106313E+03  0.12509000000E+03 0.  0.
         25    1    3    3    0    0  0.10934062021E+03 -0.32690856592E+02  0.16612602427E+03  0.23721177748E+03  0.12509000000E+03 0.  0.
         25    1    3    3    0    0 -0.41422375689E+02  0.50446769159E+02  0.10636214350E+03  0.17669494445E+03  0.12509000000E+03 0.  0.
<mgrwt>
<rscale>  2 0.45595354E+03</rscale>
<asrwt>0</asrwt>
<pdfrwt beam="1">  1       21 0.70686912E-01 0.45595354E+03</pdfrwt>
<pdfrwt beam="2">  1       21 0.15900997E-01 0.45595354E+03</pdfrwt>
<totfact> 0.58927772E+04</totfact>
</mgrwt>
</event>
<event>
 7    0  0.4779893E-002  0.4494062E+03  0.7546771E-02  0.1027899E+00
         21   -1    0    0  502  501  0.00000000000E+00  0.00000000000E+00  0.25252222424E+03  0.25252222424E+03  0.00000000000E+00 0.  1.
         21   -1    0    0  501  502 -0.00000000000E+00 -0.00000000000E+00 -0.19994869302E+03  0.19994869302E+03  0.00000000000E+00 0.  1.
      99926    2    1    2    0    0  0.00000000000E+00  0.00000000000E+00  0.52573531221E+02  0.45247091726E+03  0.44940622468E+03 0.  0.
      99925    2    3    3    0    0 -0.25870506904E+02  0.81499698534E+02 -0.32887917008E+02  0.27850928005E+03  0.26301011387E+03 0.  0.
         25    1    3    3    0    0  0.25870506904E+02 -0.81499698534E+02  0.85461448229E+02  0.17396163721E+03  0.12509000000E+03 0.  0.
         25    1    4    4    0    0  0.10568275425E+02  0.58930654281E+01 -0.90738239825E+01  0.12600102796E+03  0.12509000000E+03 0.  0.
         25    1    4    4    0    0 -0.36438782329E+02  0.75606633106E+02 -0.23814093025E+02  0.15250825208E+03  0.12509000000E+03 0.  0.
<mgrwt>
<rscale>  2 0.44940622E+03</rscale>
<asrwt>0</asrwt>
<pdfrwt beam="1">  1       21 0.37135621E-01 0.44940622E+03</pdfrwt>
<pdfrwt beam="2">  1       21 0.29404220E-01 0.44940622E+03</pdfrwt>
<totfact> 0.71886451E+04</totfact>
</mgrwt>
</event>
<event>
 7    0  0.4779893E-002  0.4609783E+03  0.7546771E-02  0.1024498E+00
         21   -1    0    0  502  501  0.00000000000E+00  0.00000000000E+00  0.17118326259E+03  0.17118326259E+03  0.00000000000E+00 0.  1.
         21   -1    0    0  501  502 -0.00000000000E+00 -0.00000000000E+00 -0.31034133725E+03  0.31034133725E+03  0.00000000000E+00 0.  1.
      99926    2    1    2    0    0  0.00000000000E+00  0.00000000000E+00 -0.13915807466E+03  0.48152459984E+03  0.46097827553E+03 0.  0.
      99925    2    3    3    0    0  0.25729008323E+02 -0.40934460855E+02 -0.20034458763E+03  0.33411730890E+03  0.26298062734E+03 0.  0.
         25    1    3    3    0    0 -0.25729008323E+02  0.40934460855E+02  0.61186512964E+02  0.14740729094E+03  0.12509000000E+03 0.  0.
         25    1    4    4    0    0 -0.76663269653E+01 -0.55483891410E+02 -0.99654991575E+02  0.16945754696E+03  0.12509000000E+03 0.  0.
         25    1    4    4    0    0  0.33395335289E+02  0.14549430555E+02 -0.10068959605E+03  0.16465976194E+03  0.12509000000E+03 0.  0.
<mgrwt>
<rscale>  2 0.46097828E+03</rscale>
<asrwt>0</asrwt>
<pdfrwt beam="1">  1       21 0.25174009E-01 0.46097828E+03</pdfrwt>
<pdfrwt beam="2">  1       21 0.45638431E-01 0.46097828E+03</pdfrwt>
<totfact> 0.63521342E+04</totfact>
</mgrwt>
</event>
<event>
 7    0  0.4779893E-002  0.4562121E+03  0.7546771E-02  0.1025886E+00
         21   -1    0    0  502  501  0.00000000000E+00  0.00000000000E+00  0.34132160971E+03  0.34132160971E+03  0.00000000000E+00 0.  1.
         21   -1    0    0  501  502 -0.00000000000E+00 -0.00000000000E+00 -0.15244380851E+03  0.15244380851E+03  0.00000000000E+00 0.  1.
      99926    2    1    2    0    0  0.71054273576E-14  0.00000000000E+00  0.18887780119E+03  0.49376541822E+03  0.45621208275E+03 0.  0.
      99925    2    3    3    0    0 -0.55416183215E+02 -0.99808415271E+02  0.12354311438E+03  0.31224736810E+03  0.26306433557E+03 0.  0.
         25    1    4    4    0    0 -0.35936767493E+02 -0.93022092030E+02  0.67458398266E+02  0.17361654432E+03  0.12509000000E+03 0.  0.
         25    1    4    4    0    0 -0.19479415722E+02 -0.67863232415E+01  0.56084716118E+02  0.13863082378E+03  0.12509000000E+03 0.  0.
         25    1    3    3    0    0  0.55416183215E+02  0.99808415271E+02  0.65334686810E+02  0.18151805013E+03  0.12509000000E+03 0.  0.
<mgrwt>
<rscale>  2 0.45621208E+03</rscale>
<asrwt>0</asrwt>
<pdfrwt beam="1">  1       21 0.50194354E-01 0.45621208E+03</pdfrwt>
<pdfrwt beam="2">  1       21 0.22418207E-01 0.45621208E+03</pdfrwt>
<totfact> 0.65082412E+04</totfact>
</mgrwt>
</event>
<event>
 7    0  0.4779893E-002  0.4749987E+03  0.7546771E-02  0.1020519E+00
         21   -1    0    0  502  501  0.00000000000E+00  0.00000000000E+00  0.75972108680E+03  0.75972108680E+03  0.00000000000E+00 0. -1.
         21   -1    0    0  501  502 -0.00000000000E+00 -0.00000000000E+00 -0.74245597031E+02  0.74245597031E+02  0.00000000000E+00 0. -1.
      99926    2    1    2    0    0  0.00000000000E+00  0.00000000000E+00  0.68547548977E+03  0.83396668383E+03  0.47499871859E+03 0.  0.
      99925    2    3    3    0    0 -0.23192375840E+02  0.12203596176E+03  0.35058178944E+03  0.45550669800E+03  0.26296026044E+03 0.  0.
         25    1    3    3    0    0  0.23192375840E+02 -0.12203596176E+03  0.33489370033E+03  0.37845998584E+03  0.12509000000E+03 0.  0.
         25    1    4    4    0    0 -0.36963262455E+02  0.30770144400E+02  0.18429704367E+03  0.22787275608E+03  0.12509000000E+03 0.  0.
         25    1    4    4    0    0  0.13770886614E+02  0.91265817358E+02  0.16628474577E+03  0.22763394191E+03  0.12509000000E+03 0.  0.
<mgrwt>
<rscale>  2 0.47499872E+03</rscale>
<asrwt>0</asrwt>
<pdfrwt beam="1">  1       21 0.11172368E+00 0.47499872E+03</pdfrwt>
<pdfrwt beam="2">  1       21 0.10918471E-01 0.47499872E+03</pdfrwt>
<totfact> 0.39579658E+04</totfact>
</mgrwt>
</event>
<event>
 7    0  0.4779893E-002  0.4521873E+03  0.7546771E-02  0.1027072E+00
         21   -1    0    0  502  501  0.00000000000E+00  0.00000000000E+00  0.15594402523E+03  0.15594402523E+03  0.00000000000E+00 0.  1.
         21   -1    0    0  501  502 -0.00000000000E+00 -0.00000000000E+00 -0.32779920859E+03  0.32779920859E+03  0.00000000000E+00 0.  1.
      99926    2    1    2    0    0  0.00000000000E+00  0.00000000000E+00 -0.17185518336E+03  0.48374323383E+03  0.45218725350E+03 0.  0.
      99925    2    3    3    0    0  0.14254686024E+02 -0.10541026568E+03 -0.76239370018E+02  0.29373162354E+03  0.26296635705E+03 0.  0.
         25    1    4    4    0    0 -0.13680362678E+02 -0.76460121394E+02 -0.12744095327E+02  0.14779452815E+03  0.12509000000E+03 0.  0.
         25    1    4    4    0    0  0.27935048702E+02 -0.28950144291E+02 -0.63495274691E+02  0.14593709538E+03  0.12509000000E+03 0.  0.
         25    1    3    3    0    0 -0.14254686024E+02  0.10541026568E+03 -0.95615813341E+02  0.19001161029E+03  0.12509000000E+03 0.  0.
<mgrwt>
<rscale>  2 0.45218725E+03</rscale>
<asrwt>0</asrwt>
<pdfrwt beam="1">  1       21 0.22932945E-01 0.45218725E+03</pdfrwt>
<pdfrwt beam="2">  1       21 0.48205766E-01 0.45218725E+03</pdfrwt>
<totfact> 0.67932845E+04</totfact>
</mgrwt>
</event>
<event>
 7    0  0.4779893E-002  0.4421249E+03  0.7546771E-02  0.1030097E+00
         21   -1    0    0  502  501  0.00000000000E+00  0.00000000000E+00  0.70045670342E+03  0.70045670342E+03  0.00000000000E+00 0. -1.
         21   -1    0    0  501  502 -0.00000000000E+00 -0.00000000000E+00 -0.69766787398E+02  0.69766787398E+02  0.00000000000E+00 0. -1.
      99926    2    1    2    0    0 -0.71054273576E-14  0.00000000000E+00  0.63068991602E+03  0.77022349082E+03  0.44212493216E+03 0.  0.
      99925    2    3    3    0    0 -0.58303645065E+02  0.75930965776E+02  0.34718604530E+03  0.44589837707E+03  0.26291136536E+03 0.  0.
         25    1    4    4    0    0 -0.67690635576E+02  0.27816427906E+02  0.16655350342E+03  0.22077896958E+03  0.12509000000E+03 0.  0.
         25    1    4    4    0    0  0.93869905111E+01  0.48114537871E+02  0.18063254188E+03  0.22511940750E+03  0.12509000000E+03 0.  0.
         25    1    3    3    0    0  0.58303645065E+02 -0.75930965776E+02  0.28350387072E+03  0.32432511374E+03  0.12509000000E+03 0.  0.
<mgrwt>
<rscale>  2 0.44212493E+03</rscale>
<asrwt>0</asrwt>
<pdfrwt beam="1">  1       21 0.10300833E+00 0.44212493E+03</pdfrwt>
<pdfrwt beam="2">  1       21 0.10259822E-01 0.44212493E+03</pdfrwt>
<totfact> 0.54546487E+04</totfact>
</mgrwt>
</event>
<event>
 7    0  0.4779893E-002  0.4554622E+03  0.7546771E-02  0.1026106E+00
         21   -1    0    0  502  501  0.00000000000E+00  0.00000000000E+00  0.17085851857E+03  0.17085851857E+03  0.00000000000E+00 0.  1.
         21   -1    0    0  501  502 -0.00000000000E+00 -0.00000000000E+00 -0.30353444024E+03  0.30353444024E+03  0.00000000000E+00 0.  1.
      99926    2    1    2    0    0 -0.17763568394E-14 -0.14210854715E-13 -0.13267592167E+03  0.47439295881E+03  0.45546215999E+03 0.  0.
      99925    2    3    3    0    0  0.30744538568E+01 -0.11503601309E+03 -0.85516021749E+02  0.29800049629E+03  0.26124427121E+03 0.  0.
         25    1    3    3    0    0 -0.30744538568E+01  0.11503601309E+03 -0.47159899924E+02  0.17639246252E+03  0.12509000000E+03 0.  0.
         25    1    4    4    0    0  0.17458413239E+02 -0.88370866752E+02 -0.66562763172E+02  0.16790567538E+03  0.12509000000E+03 0.  0.
         25    1    4    4    0    0 -0.14383959383E+02 -0.26665146340E+02 -0.18953258577E+02  0.13009482091E+03  0.12509000000E+03 0.  0.
<mgrwt>
<rscale>  2 0.45546216E+03</rscale>
<asrwt>0</asrwt>
<pdfrwt beam="1">  1       21 0.25126253E-01 0.45546216E+03</pdfrwt>
<pdfrwt beam="2">  1       21 0.44637418E-01 0.45546216E+03</pdfrwt>
<totfact> 0.66865028E+04</totfact>
</mgrwt>
</event>
<event>
 7    0  0.4779893E-002  0.4603240E+03  0.7546771E-02  0.1024687E+00
         21   -1    0    0  502  501  0.00000000000E+00  0.00000000000E+00  0.69144484576E+03  0.69144484576E+03  0.00000000000E+00 0.  1.
         21   -1    0    0  501  502 -0.00000000000E+00 -0.00000000000E+00 -0.76614282653E+02  0.76614282653E+02  0.00000000000E+00 0.  1.
      99926    2    1    2    0    0  0.00000000000E+00  0.14210854715E-13  0.61483056311E+03  0.76805912841E+03  0.46032402002E+03 0.  0.
      99925    2    3    3    0    0  0.51594960303E+02  0.10048279370E+03  0.44147306593E+03  0.52627583353E+03  0.26326593637E+03 0.  0.
         25    1    4    4    0    0 -0.11813234886E+02  0.51477215578E+02  0.17894382407E+03  0.22462826294E+03  0.12509000000E+03 0.  0.
         25    1    4    4    0    0  0.63408195189E+02  0.49005578124E+02  0.26252924186E+03  0.30164757058E+03  0.12509000000E+03 0.  0.
         25    1    3    3    0    0 -0.51594960303E+02 -0.10048279370E+03  0.17335749718E+03  0.24178329489E+03  0.12509000000E+03 0.  0.
<mgrwt>
<rscale>  2 0.46032402E+03</rscale>
<asrwt>0</asrwt>
<pdfrwt beam="1">  1       21 0.10168306E+00 0.46032402E+03</pdfrwt>
<pdfrwt beam="2">  1       21 0.11266807E-01 0.46032402E+03</pdfrwt>
<totfact> 0.47338701E+04</totfact>
</mgrwt>
</event>
<event>
 7    0  0.4779893E-002  0.4597357E+03  0.7546771E-02  0.1024858E+00
         21   -1    0    0  502  501  0.00000000000E+00  0.00000000000E+00  0.71300366373E+03  0.71300366373E+03  0.00000000000E+00 0. -1.
         21   -1    0    0  501  502 -0.00000000000E+00 -0.00000000000E+00 -0.74107933373E+02  0.74107933373E+02  0.00000000000E+00 0. -1.
      99926    2    1    2    0    0 -0.17763568394E-14  0.00000000000E+00  0.63889573036E+03  0.78711159710E+03  0.45973569801E+03 0.  0.
      99925    2    3    3    0    0 -0.13699790673E+02 -0.95862509890E+02  0.51426316174E+03  0.58572120427E+03  0.26310724912E+03 0.  0.
         25    1    4    4    0    0  0.77957448644E+01 -0.40512393642E+02  0.17299960092E+03  0.21743596228E+03  0.12509000000E+03 0.  0.
         25    1    3    3    0    0  0.13699790673E+02  0.95862509890E+02  0.12463256861E+03  0.20139039283E+03  0.12509000000E+03 0.  0.
         25    1    4    4    0    0 -0.21495535537E+02 -0.55350116247E+02  0.34126356083E+03  0.36828524198E+03  0.12509000000E+03 0.  0.
<mgrwt>
<rscale>  2 0.45973570E+03</rscale>
<asrwt>0</asrwt>
<pdfrwt beam="1">  1       21 0.10485348E+00 0.45973570E+03</pdfrwt>
<pdfrwt beam="2">  1       21 0.10898226E-01 0.45973570E+03</pdfrwt>
<totfact> 0.46636818E+04</totfact>
</mgrwt>
</event>
<event>
 7    0  0.4779893E-002  0.4547323E+03  0.7546771E-02  0.1026320E+00
         21   -1    0    0  502  501  0.00000000000E+00  0.00000000000E+00  0.16680830493E+03  0.16680830493E+03  0.00000000000E+00 0. -1.
         21   -1    0    0  501  502 -0.00000000000E+00 -0.00000000000E+00 -0.30990883575E+03  0.30990883575E+03  0.00000000000E+00 0. -1.
      99926    2    1    2    0    0  0.22204460493E-15  0.00000000000E+00 -0.14310053082E+03  0.47671714069E+03  0.45473230620E+03 0.  0.
      99925    2    3    3    0    0 -0.18651699603E+01  0.10829942715E+03 -0.56400724149E+02  0.28991079883E+03  0.26293532440E+03 0.  0.
         25    1    4    4    0    0 -0.88032007467E+01  0.61244871853E+02  0.11150578451E+02  0.14000097918E+03  0.12509000000E+03 0.  0.
         25    1    4    4    0    0  0.69380307864E+01  0.47054555299E+02 -0.67551302600E+02  0.14990981965E+03  0.12509000000E+03 0.  0.
         25    1    3    3    0    0  0.18651699603E+01 -0.10829942715E+03 -0.86699806671E+02  0.18680634186E+03  0.12509000000E+03 0.  0.
<mgrwt>
<rscale>  2 0.45473231E+03</rscale>
<asrwt>0</asrwt>
<pdfrwt beam="1">  1       21 0.24530633E-01 0.45473231E+03</pdfrwt>
<pdfrwt beam="2">  1       21 0.45574828E-01 0.45473231E+03</pdfrwt>
<totfact> 0.67082257E+04</totfact>
</mgrwt>
</event>
<event>
 7    0  0.4779893E-002  0.4595926E+03  0.7546771E-02  0.1024899E+00
         21   -1    0    0  502  501  0.00000000000E+00  0.00000000000E+00  0.16037800867E+04  0.16037800867E+04  0.00000000000E+00 0.  1.
         21   -1    0    0  501  502 -0.00000000000E+00 -0.00000000000E+00 -0.32926178062E+02  0.32926178062E+02  0.00000000000E+00 0.  1.
      99926    2    1    2    0    0  0.00000000000E+00 -0.44408920985E-14  0.15708539086E+04  0.16367062648E+04  0.45959264009E+03 0.  0.
      99925    2    3    3    0    0 -0.79990482215E+02  0.62630320598E+01  0.67704040506E+03  0.73062249927E+03  0.26265533221E+03 0.  0.
         25    1    4    4    0    0 -0.27501145018E+02 -0.27287374312E+02  0.38947643519E+03  0.41090183188E+03  0.12509000000E+03 0.  0.
         25    1    4    4    0    0 -0.52489337197E+02  0.33550406372E+02  0.28756396987E+03  0.31972066739E+03  0.12509000000E+03 0.  0.
         25    1    3    3    0    0  0.79990482215E+02 -0.62630320598E+01  0.89381350357E+03  0.90608376548E+03  0.12509000000E+03 0.  0.
<mgrwt>
<rscale>  2 0.45959264E+03</rscale>
<asrwt>0</asrwt>
<pdfrwt beam="1">  1       21 0.23584996E+00 0.45959264E+03</pdfrwt>
<pdfrwt beam="2">  1       21 0.48420861E-02 0.45959264E+03</pdfrwt>
<totfact> 0.19893958E+04</totfact>
</mgrwt>
</event>
<event>
 7    0  0.4779893E-002  0.4509073E+03  0.7546771E-02  0.1027452E+00
         21   -1    0    0  502  501  0.00000000000E+00  0.00000000000E+00  0.12399330601E+03  0.12399330601E+03  0.00000000000E+00 0.  1.
         21   -1    0    0  501  502 -0.00000000000E+00 -0.00000000000E+00 -0.40993615217E+03  0.40993615217E+03  0.00000000000E+00 0.  1.
      99926    2    1    2    0    0  0.00000000000E+00  0.00000000000E+00 -0.28594284616E+03  0.53392945817E+03  0.45090725769E+03 0.  0.
      99925    2    3    3    0    0  0.24142375537E+02  0.52977243740E+02 -0.70805358985E+02  0.27834955063E+03  0.26282243212E+03 0.  0.
         25    1    4    4    0    0  0.48493836854E+02  0.27609547479E+02 -0.18241096113E+02  0.13818171012E+03  0.12509000000E+03 0.  0.
         25    1    3    3    0    0 -0.24142375537E+02 -0.52977243740E+02 -0.21513748718E+03  0.25557990754E+03  0.12509000000E+03 0.  0.
         25    1    4    4    0    0 -0.24351461317E+02  0.25367696261E+02 -0.52564262872E+02  0.14016784051E+03  0.12509000000E+03 0.  0.
<mgrwt>
<rscale>  2 0.45090726E+03</rscale>
<asrwt>0</asrwt>
<pdfrwt beam="1">  1       21 0.18234310E-01 0.45090726E+03</pdfrwt>
<pdfrwt beam="2">  1       21 0.60284729E-01 0.45090726E+03</pdfrwt>
<totfact> 0.65022009E+04</totfact>
</mgrwt>
</event>
<event>
 7    0  0.4779893E-002  0.4694049E+03  0.7546771E-02  0.1022088E+00
         21   -1    0    0  502  501  0.00000000000E+00  0.00000000000E+00  0.40248844609E+03  0.40248844609E+03  0.00000000000E+00 0.  1.
         21   -1    0    0  501  502 -0.00000000000E+00 -0.00000000000E+00 -0.13686167106E+03  0.13686167106E+03  0.00000000000E+00 0.  1.
      99926    2    1    2    0    0  0.00000000000E+00  0.00000000000E+00  0.26562677503E+03  0.53935011715E+03  0.46940490544E+03 0.  0.
      99925    2    3    3    0    0 -0.75476385276E+02 -0.10926777899E+02  0.49487459022E+02  0.27823751455E+03  0.26296582800E+03 0.  0.
         25    1    4    4    0    0 -0.11998019478E+02  0.68895585621E+01  0.53563515702E+02  0.13677710628E+03  0.12509000000E+03 0.  0.
         25    1    3    3    0    0  0.75476385276E+02  0.10926777899E+02  0.21613931601E+03  0.26111260260E+03  0.12509000000E+03 0.  0.
         25    1    4    4    0    0 -0.63478365799E+02 -0.17816336461E+02 -0.40760566802E+01  0.14146040827E+03  0.12509000000E+03 0.  0.
<mgrwt>
<rscale>  2 0.46940491E+03</rscale>
<asrwt>0</asrwt>
<pdfrwt beam="1">  1       21 0.59189477E-01 0.46940491E+03</pdfrwt>
<pdfrwt beam="2">  1       21 0.20126717E-01 0.46940491E+03</pdfrwt>
<totfact> 0.55916008E+04</totfact>
</mgrwt>
</event>
<event>
 7    0  0.4779893E-002  0.4537887E+03  0.7546771E-02  0.1026598E+00
         21   -1    0    0  502  501  0.00000000000E+00  0.00000000000E+00  0.75107410243E+02  0.75107410243E+02  0.00000000000E+00 0. -1.
         21   -1    0    0  501  502 -0.00000000000E+00 -0.00000000000E+00 -0.68543229747E+03  0.68543229747E+03  0.00000000000E+00 0. -1.
      99926    2    1    2    0    0 -0.71054273576E-14  0.00000000000E+00 -0.61032488723E+03  0.76053970771E+03  0.45378869426E+03 0.  0.
      99925    2    3    3    0    0 -0.53246935054E+02  0.77604709291E+02 -0.48664762906E+03  0.56103707794E+03  0.26282876738E+03 0.  0.
         25    1    4    4    0    0 -0.33519363417E+02  0.77944392179E+02 -0.29238125359E+03  0.32914006373E+03  0.12509000000E+03 0.  0.
         25    1    4    4    0    0 -0.19727571638E+02 -0.33968288851E+00 -0.19426637546E+03  0.23189701422E+03  0.12509000000E+03 0.  0.
         25    1    3    3    0    0  0.53246935054E+02 -0.77604709291E+02 -0.12367725817E+03  0.19950262977E+03  0.12509000000E+03 0.  0.
<mgrwt>
<rscale>  2 0.45378869E+03</rscale>
<asrwt>0</asrwt>
<pdfrwt beam="1">  1       21 0.11045208E-01 0.45378869E+03</pdfrwt>
<pdfrwt beam="2">  1       21 0.10079886E+00 0.45378869E+03</pdfrwt>
<totfact> 0.50208051E+04</totfact>
</mgrwt>
</event>
<event>
 7    0  0.4779893E-002  0.4412678E+03  0.7546771E-02  0.1030359E+00
         21   -1    0    0  502  501  0.00000000000E+00  0.00000000000E+00  0.61140380847E+03  0.61140380847E+03  0.00000000000E+00 0. -1.
         21   -1    0    0  501  502 -0.00000000000E+00 -0.00000000000E+00 -0.79618923951E+02  0.79618923951E+02  0.00000000000E+00 0. -1.
      99926    2    1    2    0    0  0.88817841970E-15  0.00000000000E+00  0.53178488452E+03  0.69102273242E+03  0.44126777961E+03 0.  0.
      99925    2    3    3    0    0 -0.45530163533E+01  0.50013065811E+02  0.20397232962E+03  0.33657863816E+03  0.26297990742E+03 0.  0.
         25    1    3    3    0    0  0.45530163533E+01 -0.50013065811E+02  0.32781255489E+03  0.35444409426E+03  0.12509000000E+03 0.  0.
         25    1    4    4    0    0  0.32763807766E+02  0.45603581727E+02  0.10544627840E+03  0.17297277096E+03  0.12509000000E+03 0.  0.
         25    1    4    4    0    0 -0.37316824120E+02  0.44094840846E+01  0.98526051224E+02  0.16360586720E+03  0.12509000000E+03 0.  0.
<mgrwt>
<rscale>  2 0.44126778E+03</rscale>
<asrwt>0</asrwt>
<pdfrwt beam="1">  1       21 0.89912323E-01 0.44126778E+03</pdfrwt>
<pdfrwt beam="2">  1       21 0.11708666E-01 0.44126778E+03</pdfrwt>
<totfact> 0.59576519E+04</totfact>
</mgrwt>
</event>
<event>
 7    0  0.4779893E-002  0.4573095E+03  0.7546771E-02  0.1025564E+00
         21   -1    0    0  502  501  0.00000000000E+00  0.00000000000E+00  0.16452556365E+03  0.16452556365E+03  0.00000000000E+00 0. -1.
         21   -1    0    0  501  502 -0.00000000000E+00 -0.00000000000E+00 -0.31778031888E+03  0.31778031888E+03  0.00000000000E+00 0. -1.
      99926    2    1    2    0    0  0.00000000000E+00  0.66613381478E-15 -0.15325475523E+03  0.48230588253E+03  0.45730946232E+03 0.  0.
      99925    2    3    3    0    0  0.44607758352E+02 -0.11238206376E+01 -0.20861577560E+03  0.33841889301E+03  0.26270837489E+03 0.  0.
         25    1    4    4    0    0  0.69848325370E+01 -0.37294331273E+02 -0.95668213428E+02  0.16198632717E+03  0.12509000000E+03 0.  0.
         25    1    4    4    0    0  0.37622925815E+02  0.36170510635E+02 -0.11294756217E+03  0.17643256584E+03  0.12509000000E+03 0.  0.
         25    1    3    3    0    0 -0.44607758352E+02  0.11238206376E+01  0.55361020369E+02  0.14388698952E+03  0.12509000000E+03 0.  0.
<mgrwt>
<rscale>  2 0.45730946E+03</rscale>
<asrwt>0</asrwt>
<pdfrwt beam="1">  1       21 0.24194936E-01 0.45730946E+03</pdfrwt>
<pdfrwt beam="2">  1       21 0.46732400E-01 0.45730946E+03</pdfrwt>
<totfact> 0.65326834E+04</totfact>
</mgrwt>
</event>
<event>
 7    0  0.4779893E-002  0.4626992E+03  0.7546771E-02  0.1024001E+00
         21   -1    0    0  502  501  0.00000000000E+00  0.00000000000E+00  0.27233031988E+03  0.27233031988E+03  0.00000000000E+00 0. -1.
         21   -1    0    0  501  502 -0.00000000000E+00 -0.00000000000E+00 -0.19653569382E+03  0.19653569382E+03  0.00000000000E+00 0. -1.
      99926    2    1    2    0    0  0.00000000000E+00 -0.17763568394E-14  0.75794626065E+02  0.46886601370E+03  0.46269916086E+03 0.  0.
      99925    2    3    3    0    0  0.86371966744E+02 -0.88328935771E+01  0.13173081585E+03  0.30664856064E+03  0.26294903546E+03 0.  0.
         25    1    4    4    0    0  0.59849125775E+02 -0.29342514569E+02  0.99544074043E+02  0.17320344048E+03  0.12509000000E+03 0.  0.
         25    1    4    4    0    0  0.26522840969E+02  0.20509620992E+02  0.32186741811E+02  0.13344512016E+03  0.12509000000E+03 0.  0.
         25    1    3    3    0    0 -0.86371966744E+02  0.88328935771E+01 -0.55936189789E+02  0.16221745306E+03  0.12509000000E+03 0.  0.
<mgrwt>
<rscale>  2 0.46269916E+03</rscale>
<asrwt>0</asrwt>
<pdfrwt beam="1">  1       21 0.40048577E-01 0.46269916E+03</pdfrwt>
<pdfrwt beam="2">  1       21 0.28902308E-01 0.46269916E+03</pdfrwt>
<totfact> 0.63544951E+04</totfact>
</mgrwt>
</event>
<event>
 7    0  0.4779893E-002  0.4564525E+03  0.7546771E-02  0.1025815E+00
         21   -1    0    0  502  501  0.00000000000E+00  0.00000000000E+00  0.14727791256E+04  0.14727791256E+04  0.00000000000E+00 0.  1.
         21   -1    0    0  501  502 -0.00000000000E+00 -0.00000000000E+00 -0.35366618193E+02  0.35366618193E+02  0.00000000000E+00 0.  1.
      99926    2    1    2    0    0  0.00000000000E+00  0.00000000000E+00  0.14374125074E+04  0.15081457438E+04  0.45645248172E+03 0.  0.
      99925    2    3    3    0    0 -0.30449049588E+02 -0.80301867065E+02  0.65273767455E+03  0.70893511079E+03  0.26295814318E+03 0.  0.
         25    1    4    4    0    0 -0.31281245791E+02 -0.32660898321E+01  0.27953759271E+03  0.30786028896E+03  0.12509000000E+03 0.  0.
         25    1    4    4    0    0  0.83219620306E+00 -0.77035777233E+02  0.37320008184E+03  0.40107482184E+03  0.12509000000E+03 0.  0.
         25    1    3    3    0    0  0.30449049588E+02  0.80301867065E+02  0.78467483285E+03  0.79921063299E+03  0.12509000000E+03 0.  0.
<mgrwt>
<rscale>  2 0.45645248E+03</rscale>
<asrwt>0</asrwt>
<pdfrwt beam="1">  1       21 0.21658512E+00 0.45645248E+03</pdfrwt>
<pdfrwt beam="2">  1       21 0.52009742E-02 0.45645248E+03</pdfrwt>
<totfact> 0.23316034E+04</totfact>
</mgrwt>
</event>
<event>
 7    0  0.4779893E-002  0.4558618E+03  0.7546771E-02  0.1025988E+00
         21   -1    0    0  502  501  0.00000000000E+00  0.00000000000E+00  0.18891160783E+04  0.18891160783E+04  0.00000000000E+00 0.  1.
         21   -1    0    0  501  502 -0.00000000000E+00 -0.00000000000E+00 -0.27500957985E+02  0.27500957985E+02  0.00000000000E+00 0.  1.
      99926    2    1    2    0    0  0.00000000000E+00  0.00000000000E+00  0.18616151203E+04  0.19166170363E+04  0.45586182950E+03 0.  0.
      99925    2    3    3    0    0  0.70469294492E+02  0.89684996995E+02  0.11772272962E+04  0.12116039002E+04  0.26288891935E+03 0.  0.
         25    1    4    4    0    0  0.20506671227E+02  0.79892728206E+02  0.68412037772E+03  0.70033675535E+03  0.12509000000E+03 0.  0.
         25    1    3    3    0    0 -0.70469294492E+02 -0.89684996995E+02  0.68438782409E+03  0.70501313605E+03  0.12509000000E+03 0.  0.
         25    1    4    4    0    0  0.49962623265E+02  0.97922687889E+01  0.49310691853E+03  0.51126714490E+03  0.12509000000E+03 0.  0.
<mgrwt>
<rscale>  2 0.45586183E+03</rscale>
<asrwt>0</asrwt>
<pdfrwt beam="1">  1       21 0.27781110E+00 0.45586183E+03</pdfrwt>
<pdfrwt beam="2">  1       21 0.40442598E-02 0.45586183E+03</pdfrwt>
<totfact> 0.15018545E+04</totfact>
</mgrwt>
</event>
<event>
 7    0  0.4779893E-002  0.4481906E+03  0.7546771E-02  0.1028263E+00
         21   -1    0    0  502  501  0.00000000000E+00  0.00000000000E+00  0.19860832504E+04  0.19860832504E+04  0.00000000000E+00 0.  1.
         21   -1    0    0  501  502 -0.00000000000E+00 -0.00000000000E+00 -0.25285298680E+02  0.25285298680E+02  0.00000000000E+00 0.  1.
      99926    2    1    2    0    0  0.00000000000E+00  0.00000000000E+00  0.19607979517E+04  0.20113685491E+04  0.44819062100E+03 0.  0.
      99925    2    3    3    0    0  0.33967352339E+02 -0.15068824118E+02  0.79279422449E+03  0.83609791412E+03  0.26297564359E+03 0.  0.
         25    1    4    4    0    0  0.11664398558E+02 -0.47273841636E+02  0.42011638081E+03  0.44103985741E+03  0.12509000000E+03 0.  0.
         25    1    3    3    0    0 -0.33967352339E+02  0.15068824118E+02  0.11680037272E+04  0.11752706349E+04  0.12509000000E+03 0.  0.
         25    1    4    4    0    0  0.22302953781E+02  0.32205017517E+02  0.37267784368E+03  0.39505805671E+03  0.12509000000E+03 0.  0.
<mgrwt>
<rscale>  2 0.44819062E+03</rscale>
<asrwt>0</asrwt>
<pdfrwt beam="1">  1       21 0.29207096E+00 0.44819062E+03</pdfrwt>
<pdfrwt beam="2">  1       21 0.37184276E-02 0.44819062E+03</pdfrwt>
<totfact> 0.14264131E+04</totfact>
</mgrwt>
</event>
<event>
 7    0  0.4779893E-002  0.4540958E+03  0.7546771E-02  0.1026508E+00
         21   -1    0    0  502  501  0.00000000000E+00  0.00000000000E+00  0.77528072765E+02  0.77528072765E+02  0.00000000000E+00 0.  1.
         21   -1    0    0  501  502 -0.00000000000E+00 -0.00000000000E+00 -0.66492995649E+03  0.66492995649E+03  0.00000000000E+00 0.  1.
      99926    2    1    2    0    0  0.16653345369E-14 -0.35527136788E-14 -0.58740188373E+03  0.74245802926E+03  0.45409575224E+03 0.  0.
      99925    2    3    3    0    0  0.43867707599E+00  0.17809092991E+02 -0.18878450155E+03  0.32429456635E+03  0.26307797610E+03 0.  0.
         25    1    4    4    0    0  0.18432711904E+02 -0.26900977408E+02 -0.84256528832E+02  0.15430521120E+03  0.12509000000E+03 0.  0.
         25    1    3    3    0    0 -0.43867707599E+00 -0.17809092991E+02 -0.39861738218E+03  0.41816346290E+03  0.12509000000E+03 0.  0.
         25    1    4    4    0    0 -0.17994034828E+02  0.44710070399E+02 -0.10452797271E+03  0.16998935515E+03  0.12509000000E+03 0.  0.
<mgrwt>
<rscale>  2 0.45409575E+03</rscale>
<asrwt>0</asrwt>
<pdfrwt beam="1">  1       21 0.11401187E-01 0.45409575E+03</pdfrwt>
<pdfrwt beam="2">  1       21 0.97783816E-01 0.45409575E+03</pdfrwt>
<totfact> 0.51019332E+04</totfact>
</mgrwt>
</event>
<event>
 6    0  0.4779893E-002  0.4575611E+03  0.7546771E-02  0.1025491E+00
         21   -1    0    0  502  501  0.00000000000E+00  0.00000000000E+00  0.29361277382E+03  0.29361277382E+03  0.00000000000E+00 0. -1.
         21   -1    0    0  501  502 -0.00000000000E+00 -0.00000000000E+00 -0.17826381695E+03  0.17826381695E+03  0.00000000000E+00 0. -1.
      99926    2    1    2    0    0  0.00000000000E+00  0.11102230246E-15  0.11534895688E+03  0.47187659077E+03  0.45756107250E+03 0.  0.
         25    1    3    3    0    0 -0.11239042152E+03 -0.79903333695E+00  0.37030003280E+02  0.17219458338E+03  0.12509000000E+03 0.  0.
         25    1    3    3    0    0  0.10214293611E+03  0.15191054655E+02  0.33465552368E+02  0.16562427006E+03  0.12509000000E+03 0.  0.
         25    1    3    3    0    0  0.10247485403E+02 -0.14392021318E+02  0.44853401227E+02  0.13405773732E+03  0.12509000000E+03 0.  0.
<mgrwt>
<rscale>  2 0.45756107E+03</rscale>
<asrwt>0</asrwt>
<pdfrwt beam="1">  1       21 0.43178349E-01 0.45756107E+03</pdfrwt>
<pdfrwt beam="2">  1       21 0.26215267E-01 0.45756107E+03</pdfrwt>
<totfact> 0.65946352E+04</totfact>
</mgrwt>
</event>
<event>
 7    0  0.4779893E-002  0.4695935E+03  0.7546771E-02  0.1022035E+00
         21   -1    0    0  502  501  0.00000000000E+00  0.00000000000E+00  0.79244018896E+02  0.79244018896E+02  0.00000000000E+00 0. -1.
         21   -1    0    0  501  502 -0.00000000000E+00 -0.00000000000E+00 -0.69569303211E+03  0.69569303211E+03  0.00000000000E+00 0. -1.
      99926    2    1    2    0    0 -0.71054273576E-14  0.00000000000E+00 -0.61644901321E+03  0.77493705101E+03  0.46959349136E+03 0.  0.
      99925    2    3    3    0    0  0.47266300137E+02  0.75712899417E+02 -0.23638363895E+03  0.36498126915E+03  0.26337721199E+03 0.  0.
         25    1    3    3    0    0 -0.47266300137E+02 -0.75712899417E+02 -0.38006537426E+03  0.40995578186E+03  0.12509000000E+03 0.  0.
         25    1    4    4    0    0 -0.27414581053E+01  0.79216257848E+01 -0.12870793547E+03  0.17967612112E+03  0.12509000000E+03 0.  0.
         25    1    4    4    0    0  0.50007758243E+02  0.67791273632E+02 -0.10767570348E+03  0.18530514803E+03  0.12509000000E+03 0.  0.
<mgrwt>
<rscale>  2 0.46959349E+03</rscale>
<asrwt>0</asrwt>
<pdfrwt beam="1">  1       21 0.11653533E-01 0.46959349E+03</pdfrwt>
<pdfrwt beam="2">  1       21 0.10230779E+00 0.46959349E+03</pdfrwt>
<totfact> 0.43767759E+04</totfact>
</mgrwt>
</event>
<event>
 7    0  0.4779893E-002  0.4615745E+03  0.7546771E-02  0.1024326E+00
         21   -1    0    0  502  501  0.00000000000E+00  0.00000000000E+00  0.70527377588E+03  0.70527377588E+03  0.00000000000E+00 0.  1.
         21   -1    0    0  501  502 -0.00000000000E+00 -0.00000000000E+00 -0.75520689647E+02  0.75520689647E+02  0.00000000000E+00 0.  1.
      99926    2    1    2    0    0 -0.71054273576E-14  0.00000000000E+00  0.62975308623E+03  0.78079446553E+03  0.46157453112E+03 0.  0.
      99925    2    3    3    0    0 -0.59543814292E+02  0.10226782338E+03  0.41877150481E+03  0.50846211468E+03  0.26298284223E+03 0.  0.
         25    1    4    4    0    0 -0.70812688431E+02  0.54160973134E+02  0.21208069839E+03  0.26186557350E+03  0.12509000000E+03 0.  0.
         25    1    4    4    0    0  0.11268874139E+02  0.48106850242E+02  0.20669080642E+03  0.24659654118E+03  0.12509000000E+03 0.  0.
         25    1    3    3    0    0  0.59543814292E+02 -0.10226782338E+03  0.21098158143E+03  0.27233235085E+03  0.12509000000E+03 0.  0.
<mgrwt>
<rscale>  2 0.46157453E+03</rscale>
<asrwt>0</asrwt>
<pdfrwt beam="1">  1       21 0.10371673E+00 0.46157453E+03</pdfrwt>
<pdfrwt beam="2">  1       21 0.11105984E-01 0.46157453E+03</pdfrwt>
<totfact> 0.46273333E+04</totfact>
</mgrwt>
</event>
<event>
 7    0  0.4779893E-002  0.4096308E+03  0.7546771E-02  0.1040495E+00
         21   -1    0    0  502  501  0.00000000000E+00  0.00000000000E+00  0.11379190795E+03  0.11379190795E+03  0.00000000000E+00 0. -1.
         21   -1    0    0  501  502 -0.00000000000E+00 -0.00000000000E+00 -0.36864973471E+03  0.36864973471E+03  0.00000000000E+00 0. -1.
      99926    2    1    2    0    0 -0.71054273576E-14  0.00000000000E+00 -0.25485782676E+03  0.48244164266E+03  0.40963084199E+03 0.  0.
      99925    2    3    3    0    0  0.50874196349E+02 -0.32753207582E+02 -0.18233101852E+03  0.32569789485E+03  0.26300867274E+03 0.  0.
         25    1    4    4    0    0  0.57179275394E+02 -0.35253705089E+02 -0.74163920102E+02  0.16018766620E+03  0.12509000000E+03 0.  0.
         25    1    3    3    0    0 -0.50874196349E+02  0.32753207582E+02 -0.72526808245E+02  0.15674374780E+03  0.12509000000E+03 0.  0.
         25    1    4    4    0    0 -0.63050790449E+01  0.25004975071E+01 -0.10816709842E+03  0.16551022866E+03  0.12509000000E+03 0.  0.
<mgrwt>
<rscale>  2 0.40963084E+03</rscale>
<asrwt>0</asrwt>
<pdfrwt beam="1">  1       21 0.16734104E-01 0.40963084E+03</pdfrwt>
<pdfrwt beam="2">  1       21 0.54213196E-01 0.40963084E+03</pdfrwt>
<totfact> 0.97012798E+04</totfact>
</mgrwt>
</event>
<event>
 7    0  0.4779893E-002  0.4575414E+03  0.7546771E-02  0.1025497E+00
         21   -1    0    0  502  501  0.00000000000E+00  0.00000000000E+00  0.83465473882E+02  0.83465473882E+02  0.00000000000E+00 0.  1.
         21   -1    0    0  501  502 -0.00000000000E+00 -0.00000000000E+00 -0.62703801940E+03  0.62703801940E+03  0.00000000000E+00 0.  1.
      99926    2    1    2    0    0  0.13322676296E-14  0.00000000000E+00 -0.54357254552E+03  0.71050349328E+03  0.45754136614E+03 0.  0.
      99925    2    3    3    0    0 -0.35704744551E+01  0.11487107266E+03 -0.32069177549E+03  0.43026884629E+03  0.26283065575E+03 0.  0.
         25    1    3    3    0    0  0.35704744551E+01 -0.11487107266E+03 -0.22288077003E+03  0.28023464699E+03  0.12509000000E+03 0.  0.
         25    1    4    4    0    0 -0.30935387472E+02  0.35669330375E+02 -0.17981069995E+03  0.22407296857E+03  0.12509000000E+03 0.  0.
         25    1    4    4    0    0  0.27364913017E+02  0.79201742288E+02 -0.14088107553E+03  0.20619587772E+03  0.12509000000E+03 0.  0.
<mgrwt>
<rscale>  2 0.45754137E+03</rscale>
<asrwt>0</asrwt>
<pdfrwt beam="1">  1       21 0.12274334E-01 0.45754137E+03</pdfrwt>
<pdfrwt beam="2">  1       21 0.92211474E-01 0.45754137E+03</pdfrwt>
<totfact> 0.51302909E+04</totfact>
</mgrwt>
</event>
<event>
 7    0  0.4779893E-002  0.4531036E+03  0.7546771E-02  0.1026801E+00
         21   -1    0    0  502  501  0.00000000000E+00  0.00000000000E+00  0.79152332439E+02  0.79152332439E+02  0.00000000000E+00 0. -1.
         21   -1    0    0  501  502 -0.00000000000E+00 -0.00000000000E+00 -0.64844238106E+03  0.64844238106E+03  0.00000000000E+00 0. -1.
      99926    2    1    2    0    0  0.00000000000E+00 -0.14210854715E-13 -0.56929004862E+03  0.72759471350E+03  0.45310363897E+03 0.  0.
      99925    2    3    3    0    0  0.86564268056E+02 -0.64763923195E+02 -0.40211948676E+03  0.49247507777E+03  0.26295224346E+03 0.  0.
         25    1    4    4    0    0  0.37373304305E+02 -0.44848556520E+01 -0.24125488490E+03  0.27435069782E+03  0.12509000000E+03 0.  0.
         25    1    4    4    0    0  0.49190963751E+02 -0.60279067543E+02 -0.16086460186E+03  0.21812437995E+03  0.12509000000E+03 0.  0.
         25    1    3    3    0    0 -0.86564268056E+02  0.64763923195E+02 -0.16717056186E+03  0.23511963573E+03  0.12509000000E+03 0.  0.
<mgrwt>
<rscale>  2 0.45310364E+03</rscale>
<asrwt>0</asrwt>
<pdfrwt beam="1">  1       21 0.11640049E-01 0.45310364E+03</pdfrwt>
<pdfrwt beam="2">  1       21 0.95359169E-01 0.45310364E+03</pdfrwt>
<totfact> 0.52204439E+04</totfact>
</mgrwt>
</event>
<event>
 7    0  0.4779893E-002  0.4528088E+03  0.7546771E-02  0.1026888E+00
         21   -1    0    0  502  501  0.00000000000E+00  0.00000000000E+00  0.29896111706E+02  0.29896111706E+02  0.00000000000E+00 0. -1.
         21   -1    0    0  501  502 -0.00000000000E+00 -0.00000000000E+00 -0.17145692062E+04  0.17145692062E+04  0.00000000000E+00 0. -1.
      99926    2    1    2    0    0  0.00000000000E+00  0.14210854715E-13 -0.16846730945E+04  0.17444653179E+04  0.45280880078E+03 0.  0.
      99925    2    3    3    0    0 -0.74946545312E+02 -0.81927671676E+02 -0.10375548695E+04  0.10760802244E+04  0.26286767397E+03 0.  0.
         25    1    4    4    0    0 -0.47753745658E+02 -0.65189257412E+02 -0.43297607212E+03  0.45787099344E+03  0.12509000000E+03 0.  0.
         25    1    3    3    0    0  0.74946545312E+02  0.81927671676E+02 -0.64711822496E+03  0.66838509350E+03  0.12509000000E+03 0.  0.
         25    1    4    4    0    0 -0.27192799654E+02 -0.16738414263E+02 -0.60457879739E+03  0.61820923094E+03  0.12509000000E+03 0.  0.
<mgrwt>
<rscale>  2 0.45280880E+03</rscale>
<asrwt>0</asrwt>
<pdfrwt beam="1">  1       21 0.43964861E-02 0.45280880E+03</pdfrwt>
<pdfrwt beam="2">  1       21 0.25214258E+00 0.45280880E+03</pdfrwt>
<totfact> 0.18666903E+04</totfact>
</mgrwt>
</event>
<event>
 7    0  0.4779893E-002  0.4309279E+03  0.7546771E-02  0.1033567E+00
         21   -1    0    0  502  501  0.00000000000E+00  0.00000000000E+00  0.80686543404E+02  0.80686543404E+02  0.00000000000E+00 0.  1.
         21   -1    0    0  501  502 -0.00000000000E+00 -0.00000000000E+00 -0.57537109243E+03  0.57537109243E+03  0.00000000000E+00 0.  1.
      99926    2    1    2    0    0  0.00000000000E+00 -0.14210854715E-13 -0.49468454903E+03  0.65605763583E+03  0.43092785764E+03 0.  0.
      99925    2    3    3    0    0  0.22229563432E+02 -0.64649344803E+02 -0.23293702828E+03  0.35800904250E+03  0.26312948161E+03 0.  0.
         25    1    3    3    0    0 -0.22229563432E+02  0.64649344803E+02 -0.26174752075E+03  0.29804859334E+03  0.12509000000E+03 0.  0.
         25    1    4    4    0    0  0.26888703788E+02 -0.33526816298E+01 -0.14405942680E+03  0.19270409808E+03  0.12509000000E+03 0.  0.
         25    1    4    4    0    0 -0.46591403557E+01 -0.61296663173E+02 -0.88877601479E+02  0.16530494442E+03  0.12509000000E+03 0.  0.
<mgrwt>
<rscale>  2 0.43092786E+03</rscale>
<asrwt>0</asrwt>
<pdfrwt beam="1">  1       21 0.11865668E-01 0.43092786E+03</pdfrwt>
<pdfrwt beam="2">  1       21 0.84613398E-01 0.43092786E+03</pdfrwt>
<totfact> 0.67229213E+04</totfact>
</mgrwt>
</event>
<event>
 6    0  0.4779893E-002  0.4586275E+03  0.7546771E-02  0.1025180E+00
         21   -1    0    0  502  501  0.00000000000E+00  0.00000000000E+00  0.41989964090E+03  0.41989964090E+03  0.00000000000E+00 0. -1.
         21   -1    0    0  501  502 -0.00000000000E+00 -0.00000000000E+00 -0.12523182139E+03  0.12523182139E+03  0.00000000000E+00 0. -1.
      99926    2    1    2    0    0  0.17763568394E-14  0.00000000000E+00  0.29466781951E+03  0.54513146229E+03  0.45862750390E+03 0.  0.
         25    1    3    3    0    0  0.10772708180E+02 -0.73163088221E+02  0.11374386448E+03  0.18453743123E+03  0.12509000000E+03 0.  0.
         25    1    3    3    0    0  0.98027773021E+01  0.11745589784E+03  0.13541085409E+03  0.21880491284E+03  0.12509000000E+03 0.  0.
         25    1    3    3    0    0 -0.20575485482E+02 -0.44292809622E+02  0.45513100944E+02  0.14178911822E+03  0.12509000000E+03 0.  0.
<mgrwt>
<rscale>  2 0.45862750E+03</rscale>
<asrwt>0</asrwt>
<pdfrwt beam="1">  1       21 0.61749947E-01 0.45862750E+03</pdfrwt>
<pdfrwt beam="2">  1       21 0.18416444E-01 0.45862750E+03</pdfrwt>
<totfact> 0.60435840E+04</totfact>
</mgrwt>
</event>
<event>
 7    0  0.4779893E-002  0.4536481E+03  0.7546771E-02  0.1026640E+00
         21   -1    0    0  502  501  0.00000000000E+00  0.00000000000E+00  0.62427544714E+02  0.62427544714E+02  0.00000000000E+00 0. -1.
         21   -1    0    0  501  502 -0.00000000000E+00 -0.00000000000E+00 -0.82414182260E+03  0.82414182260E+03  0.00000000000E+00 0. -1.
      99926    2    1    2    0    0 -0.14210854715E-13  0.00000000000E+00 -0.76171427789E+03  0.88656936732E+03  0.45364810363E+03 0.  0.
      99925    2    3    3    0    0 -0.80594555319E+02  0.60175662374E+02 -0.57592407313E+03  0.64104523210E+03  0.26293318334E+03 0.  0.
         25    1    3    3    0    0  0.80594555319E+02 -0.60175662374E+02 -0.18579020476E+03  0.24552413522E+03  0.12509000000E+03 0.  0.
         25    1    4    4    0    0 -0.45126807845E+02  0.10927853084E+02 -0.36301353365E+03  0.38675855579E+03  0.12509000000E+03 0.  0.
         25    1    4    4    0    0 -0.35467747474E+02  0.49247809290E+02 -0.21291053947E+03  0.25428667631E+03  0.12509000000E+03 0.  0.
<mgrwt>
<rscale>  2 0.45364810E+03</rscale>
<asrwt>0</asrwt>
<pdfrwt beam="1">  1       21 0.91805214E-02 0.45364810E+03</pdfrwt>
<pdfrwt beam="2">  1       21 0.12119733E+00 0.45364810E+03</pdfrwt>
<totfact> 0.44286481E+04</totfact>
</mgrwt>
</event>
<event>
 7    0  0.4779893E-002  0.4507716E+03  0.7546771E-02  0.1027492E+00
         21   -1    0    0  502  501  0.00000000000E+00  0.00000000000E+00  0.19827489918E+02  0.19827489918E+02  0.00000000000E+00 0. -1.
         21   -1    0    0  501  502 -0.00000000000E+00 -0.00000000000E+00 -0.25620371826E+04  0.25620371826E+04  0.00000000000E+00 0. -1.
      99926    2    1    2    0    0  0.00000000000E+00  0.00000000000E+00 -0.25422096927E+04  0.25818646725E+04  0.45077163357E+03 0.  0.
      99925    2    3    3    0    0  0.24927350670E+02 -0.55076905512E+02 -0.21263948049E+04  0.21434534873E+04  0.26302689508E+03 0.  0.
         25    1    4    4    0    0 -0.11017087499E+02  0.32782710573E+01 -0.11140373839E+04  0.11210971966E+04  0.12509000000E+03 0.  0.
         25    1    3    3    0    0 -0.24927350670E+02  0.55076905512E+02 -0.41581488777E+03  0.43841118522E+03  0.12509000000E+03 0.  0.
         25    1    4    4    0    0  0.35944438169E+02 -0.58355176569E+02 -0.10123574210E+04  0.10223562907E+04  0.12509000000E+03 0.  0.
<mgrwt>
<rscale>  2 0.45077163E+03</rscale>
<asrwt>0</asrwt>
<pdfrwt beam="1">  1       21 0.29158076E-02 0.45077163E+03</pdfrwt>
<pdfrwt beam="2">  1       21 0.37677015E+00 0.45077163E+03</pdfrwt>
<totfact> 0.65425339E+03</totfact>
</mgrwt>
</event>
<event>
 7    0  0.4779893E-002  0.4120746E+03  0.7546771E-02  0.1039677E+00
         21   -1    0    0  502  501  0.00000000000E+00  0.00000000000E+00  0.13522559483E+03  0.13522559483E+03  0.00000000000E+00 0.  1.
         21   -1    0    0  501  502 -0.00000000000E+00 -0.00000000000E+00 -0.31392996873E+03  0.31392996873E+03  0.00000000000E+00 0.  1.
      99926    2    1    2    0    0  0.71054273576E-14  0.17763568394E-14 -0.17870437390E+03  0.44915556356E+03  0.41207458915E+03 0.  0.
      99925    2    3    3    0    0  0.54846267716E+02 -0.10990875419E+02 -0.80586335498E+02  0.28062197645E+03  0.26291752275E+03 0.  0.
         25    1    4    4    0    0  0.64710870669E+02 -0.21741763701E+02 -0.50007072814E+02  0.15102455596E+03  0.12509000000E+03 0.  0.
         25    1    3    3    0    0 -0.54846267716E+02  0.10990875419E+02 -0.98118038406E+02  0.16853358711E+03  0.12509000000E+03 0.  0.
         25    1    4    4    0    0 -0.98646029531E+01  0.10750888282E+02 -0.30579262684E+02  0.12959742049E+03  0.12509000000E+03 0.  0.
<mgrwt>
<rscale>  2 0.41207459E+03</rscale>
<asrwt>0</asrwt>
<pdfrwt beam="1">  1       21 0.19886117E-01 0.41207459E+03</pdfrwt>
<pdfrwt beam="2">  1       21 0.46166172E-01 0.41207459E+03</pdfrwt>
<totfact> 0.98547547E+04</totfact>
</mgrwt>
</event>
<event>
 7    0  0.4779893E-002  0.4813246E+03  0.7546771E-02  0.1018772E+00
         21   -1    0    0  502  501  0.00000000000E+00  0.00000000000E+00  0.11377270175E+04  0.11377270175E+04  0.00000000000E+00 0.  1.
         21   -1    0    0  501  502 -0.00000000000E+00 -0.00000000000E+00 -0.50907057425E+02  0.50907057425E+02  0.00000000000E+00 0.  1.
      99926    2    1    2    0    0  0.00000000000E+00  0.00000000000E+00  0.10868199601E+04  0.11886340749E+04  0.48132456665E+03 0.  0.
      99925    2    3    3    0    0  0.87228101939E+02 -0.90759802863E+02  0.79822488029E+03  0.84984105292E+03  0.26309840769E+03 0.  0.
         25    1    3    3    0    0 -0.87228101939E+02  0.90759802863E+02  0.28859507979E+03  0.33879302201E+03  0.12509000000E+03 0.  0.
         25    1    4    4    0    0  0.39129770307E+02 -0.45274438946E+02  0.27737260420E+03  0.31010318187E+03  0.12509000000E+03 0.  0.
         25    1    4    4    0    0  0.48098331632E+02 -0.45485363916E+02  0.52085227609E+03  0.53973787104E+03  0.12509000000E+03 0.  0.
<mgrwt>
<rscale>  2 0.48132457E+03</rscale>
<asrwt>0</asrwt>
<pdfrwt beam="1">  1       21 0.16731278E+00 0.48132457E+03</pdfrwt>
<pdfrwt beam="2">  1       21 0.74863327E-02 0.48132457E+03</pdfrwt>
<totfact> 0.26624087E+04</totfact>
</mgrwt>
</event>
<event>
 6    0  0.4779893E-002  0.4505958E+03  0.7546771E-02  0.1027545E+00
         21   -1    0    0  502  501  0.00000000000E+00  0.00000000000E+00  0.12535383021E+03  0.12535383021E+03  0.00000000000E+00 0. -1.
         21   -1    0    0  501  502 -0.00000000000E+00 -0.00000000000E+00 -0.40492697176E+03  0.40492697176E+03  0.00000000000E+00 0. -1.
      99926    2    1    2    0    0  0.71054273576E-14  0.14210854715E-13 -0.27957314154E+03  0.53028080197E+03  0.45059581386E+03 0.  0.
         25    1    3    3    0    0  0.56807023343E+02  0.69835043571E+02 -0.78717947549E+02  0.17305488892E+03  0.12509000000E+03 0.  0.
         25    1    3    3    0    0 -0.16473793285E+02  0.29502503028E+02 -0.10372217998E+03  0.16597464346E+03  0.12509000000E+03 0.  0.
         25    1    3    3    0    0 -0.40333230058E+02 -0.99337546599E+02 -0.97133014012E+02  0.19125126960E+03  0.12509000000E+03 0.  0.
<mgrwt>
<rscale>  2 0.45059581E+03</rscale>
<asrwt>0</asrwt>
<pdfrwt beam="1">  1       21 0.18434387E-01 0.45059581E+03</pdfrwt>
<pdfrwt beam="2">  1       21 0.59548084E-01 0.45059581E+03</pdfrwt>
<totfact> 0.65440447E+04</totfact>
</mgrwt>
</event>
<event>
 7    0  0.4779893E-002  0.4564675E+03  0.7546771E-02  0.1025811E+00
         21   -1    0    0  502  501  0.00000000000E+00  0.00000000000E+00  0.23112625962E+03  0.23112625962E+03  0.00000000000E+00 0.  1.
         21   -1    0    0  501  502 -0.00000000000E+00 -0.00000000000E+00 -0.22537748721E+03  0.22537748721E+03  0.00000000000E+00 0.  1.
      99926    2    1    2    0    0 -0.35527136788E-14  0.14210854715E-13  0.57487724023E+01  0.45650374683E+03  0.45646754812E+03 0.  0.
      99925    2    3    3    0    0  0.22055948642E+02 -0.11184263493E+03  0.10043190607E+02  0.28720758625E+03  0.26342378796E+03 0.  0.
         25    1    4    4    0    0  0.16422420901E+02 -0.75032236178E+02  0.42305569883E+02  0.15276387569E+03  0.12509000000E+03 0.  0.
         25    1    3    3    0    0 -0.22055948642E+02  0.11184263493E+03 -0.42944182051E+01  0.16929616058E+03  0.12509000000E+03 0.  0.
         25    1    4    4    0    0  0.56335277408E+01 -0.36810398756E+02 -0.32262379276E+02  0.13444371056E+03  0.12509000000E+03 0.  0.
<mgrwt>
<rscale>  2 0.45646755E+03</rscale>
<asrwt>0</asrwt>
<pdfrwt beam="1">  1       21 0.33989156E-01 0.45646755E+03</pdfrwt>
<pdfrwt beam="2">  1       21 0.33143748E-01 0.45646755E+03</pdfrwt>
<totfact> 0.67640259E+04</totfact>
</mgrwt>
</event>
<event>
 7    0  0.4779893E-002  0.4531164E+03  0.7546771E-02  0.1026797E+00
         21   -1    0    0  502  501  0.00000000000E+00  0.00000000000E+00  0.19606076258E+03  0.19606076258E+03  0.00000000000E+00 0. -1.
         21   -1    0    0  501  502 -0.00000000000E+00 -0.00000000000E+00 -0.26179950069E+03  0.26179950069E+03  0.00000000000E+00 0. -1.
      99926    2    1    2    0    0  0.00000000000E+00 -0.71054273576E-14 -0.65738738109E+02  0.45786026326E+03  0.45311636363E+03 0.  0.
      99925    2    3    3    0    0  0.69049278821E+02 -0.50379950195E+02  0.30664743224E+02  0.27828553898E+03  0.26305241387E+03 0.  0.
         25    1    4    4    0    0  0.23855407585E+02 -0.51704566865E+02 -0.13578627240E+02  0.13810984731E+03  0.12509000000E+03 0.  0.
         25    1    4    4    0    0  0.45193871236E+02  0.13246166691E+01  0.44243370465E+02  0.14017569168E+03  0.12509000000E+03 0.  0.
         25    1    3    3    0    0 -0.69049278821E+02  0.50379950195E+02 -0.96403481333E+02  0.17957472428E+03  0.12509000000E+03 0.  0.
<mgrwt>
<rscale>  2 0.45311636E+03</rscale>
<asrwt>0</asrwt>
<pdfrwt beam="1">  1       21 0.28832465E-01 0.45311636E+03</pdfrwt>
<pdfrwt beam="2">  1       21 0.38499926E-01 0.45311636E+03</pdfrwt>
<totfact> 0.69373035E+04</totfact>
</mgrwt>
</event>
<event>
 7    0  0.4779893E-002  0.4570160E+03  0.7546771E-02  0.1025650E+00
         21   -1    0    0  502  501  0.00000000000E+00  0.00000000000E+00  0.49617265801E+03  0.49617265801E+03  0.00000000000E+00 0.  1.
         21   -1    0    0  501  502 -0.00000000000E+00 -0.00000000000E+00 -0.10523737228E+03  0.10523737228E+03  0.00000000000E+00 0.  1.
      99926    2    1    2    0    0 -0.14210854715E-13  0.00000000000E+00  0.39093528573E+03  0.60141003029E+03  0.45701600291E+03 0.  0.
      99925    2    3    3    0    0  0.73471621418E+02 -0.81484732864E+02  0.29116018761E+03  0.40739864107E+03  0.26298584954E+03 0.  0.
         25    1    4    4    0    0  0.76777435676E+02 -0.52821079702E+02  0.14659462732E+03  0.21406151908E+03  0.12509000000E+03 0.  0.
         25    1    4    4    0    0 -0.33058142587E+01 -0.28663653162E+02  0.14456556028E+03  0.19333712199E+03  0.12509000000E+03 0.  0.
         25    1    3    3    0    0 -0.73471621418E+02  0.81484732864E+02  0.99775098120E+02  0.19401138922E+03  0.12509000000E+03 0.  0.
<mgrwt>
<rscale>  2 0.45701600E+03</rscale>
<asrwt>0</asrwt>
<pdfrwt beam="1">  1       21 0.72966567E-01 0.45701600E+03</pdfrwt>
<pdfrwt beam="2">  1       21 0.15476084E-01 0.45701600E+03</pdfrwt>
<totfact> 0.57667502E+04</totfact>
</mgrwt>
</event>
<event>
 7    0  0.4779893E-002  0.4491730E+03  0.7546771E-02  0.1027969E+00
         21   -1    0    0  502  501  0.00000000000E+00  0.00000000000E+00  0.37933683795E+03  0.37933683795E+03  0.00000000000E+00 0. -1.
         21   -1    0    0  501  502 -0.00000000000E+00 -0.00000000000E+00 -0.13296648860E+03  0.13296648860E+03  0.00000000000E+00 0. -1.
      99926    2    1    2    0    0  0.00000000000E+00  0.00000000000E+00  0.24637034936E+03  0.51230332655E+03  0.44917296151E+03 0.  0.
      99925    2    3    3    0    0 -0.33919611857E+02  0.83692378381E+02  0.89162549389E+02  0.29203813471E+03  0.26302349257E+03 0.  0.
         25    1    4    4    0    0 -0.45816964846E+02  0.73029688355E+02  0.45531842711E+02  0.15859756130E+03  0.12509000000E+03 0.  0.
         25    1    4    4    0    0  0.11897352989E+02  0.10662690026E+02  0.43630706678E+02  0.13344057341E+03  0.12509000000E+03 0.  0.
         25    1    3    3    0    0  0.33919611857E+02 -0.83692378381E+02  0.15720779997E+03  0.22026519184E+03  0.12509000000E+03 0.  0.
<mgrwt>
<rscale>  2 0.44917296E+03</rscale>
<asrwt>0</asrwt>
<pdfrwt beam="1">  1       21 0.55784829E-01 0.44917296E+03</pdfrwt>
<pdfrwt beam="2">  1       21 0.19553896E-01 0.44917296E+03</pdfrwt>
<totfact> 0.67481238E+04</totfact>
</mgrwt>
</event>
<event>
 7    0  0.4779893E-002  0.4565929E+03  0.7546771E-02  0.1025774E+00
         21   -1    0    0  502  501  0.00000000000E+00  0.00000000000E+00  0.55066120070E+02  0.55066120070E+02  0.00000000000E+00 0.  1.
         21   -1    0    0  501  502 -0.00000000000E+00 -0.00000000000E+00 -0.94648532113E+03  0.94648532113E+03  0.00000000000E+00 0.  1.
      99926    2    1    2    0    0  0.00000000000E+00  0.00000000000E+00 -0.89141920106E+03  0.10015514412E+04  0.45659292302E+03 0.  0.
      99925    2    3    3    0    0  0.64010570039E+02 -0.69067838786E+02 -0.41560137162E+03  0.50063444773E+03  0.26275964441E+03 0.  0.
         25    1    3    3    0    0 -0.64010570039E+02  0.69067838786E+02 -0.47581782943E+03  0.50091699346E+03  0.12509000000E+03 0.  0.
         25    1    4    4    0    0  0.79001504604E+01 -0.12897451643E+02 -0.23845077436E+03  0.26969433907E+03  0.12509000000E+03 0.  0.
         25    1    4    4    0    0  0.56110419579E+02 -0.56170387143E+02 -0.17715059726E+03  0.23094010866E+03  0.12509000000E+03 0.  0.
<mgrwt>
<rscale>  2 0.45659292E+03</rscale>
<asrwt>0</asrwt>
<pdfrwt beam="1">  1       21 0.80979590E-02 0.45659292E+03</pdfrwt>
<pdfrwt beam="2">  1       21 0.13918902E+00 0.45659292E+03</pdfrwt>
<totfact> 0.38623781E+04</totfact>
</mgrwt>
</event>
<event>
 7    0  0.4779893E-002  0.4536214E+03  0.7546771E-02  0.1026648E+00
         21   -1    0    0  502  501  0.00000000000E+00  0.00000000000E+00  0.51595662214E+02  0.51595662214E+02  0.00000000000E+00 0. -1.
         21   -1    0    0  501  502 -0.00000000000E+00 -0.00000000000E+00 -0.99704286781E+03  0.99704286781E+03  0.00000000000E+00 0. -1.
      99926    2    1    2    0    0  0.00000000000E+00  0.00000000000E+00 -0.94544720559E+03  0.10486385300E+04  0.45362137084E+03 0.  0.
      99925    2    3    3    0    0 -0.74815587317E+02 -0.82335421277E+02 -0.56839594737E+03  0.63609561937E+03  0.26299655947E+03 0.  0.
         25    1    4    4    0    0 -0.57558590967E+02 -0.18497651706E+02 -0.22168077726E+03  0.26162000998E+03  0.12509000000E+03 0.  0.
         25    1    3    3    0    0  0.74815587317E+02  0.82335421277E+02 -0.37705125822E+03  0.41254291065E+03  0.12509000000E+03 0.  0.
         25    1    4    4    0    0 -0.17256996350E+02 -0.63837769571E+02 -0.34671517010E+03  0.37447560939E+03  0.12509000000E+03 0.  0.
<mgrwt>
<rscale>  2 0.45362137E+03</rscale>
<asrwt>0</asrwt>
<pdfrwt beam="1">  1       21 0.75875973E-02 0.45362137E+03</pdfrwt>
<pdfrwt beam="2">  1       21 0.14662395E+00 0.45362137E+03</pdfrwt>
<totfact> 0.37731768E+04</totfact>
</mgrwt>
</event>
<event>
 7    0  0.4779893E-002  0.4577023E+03  0.7546771E-02  0.1025450E+00
         21   -1    0    0  502  501  0.00000000000E+00  0.00000000000E+00  0.75909971685E+02  0.75909971685E+02  0.00000000000E+00 0.  1.
         21   -1    0    0  501  502 -0.00000000000E+00 -0.00000000000E+00 -0.68993368659E+03  0.68993368659E+03  0.00000000000E+00 0.  1.
      99926    2    1    2    0    0  0.88817841970E-15  0.14210854715E-13 -0.61402371491E+03  0.76584365828E+03  0.45770229020E+03 0.  0.
      99925    2    3    3    0    0 -0.66837195647E+01 -0.11556340276E+03 -0.38130900750E+03  0.47739398276E+03  0.26288568506E+03 0.  0.
         25    1    4    4    0    0  0.25205064539E+02 -0.87175347358E+02 -0.19104174592E+03  0.24572198365E+03  0.12509000000E+03 0.  0.
         25    1    4    4    0    0 -0.31888784104E+02 -0.28388055398E+02 -0.19026726158E+03  0.23167199911E+03  0.12509000000E+03 0.  0.
         25    1    3    3    0    0  0.66837195647E+01  0.11556340276E+03 -0.23271470741E+03  0.28844967552E+03  0.12509000000E+03 0.  0.
<mgrwt>
<rscale>  2 0.45770229E+03</rscale>
<asrwt>0</asrwt>
<pdfrwt beam="1">  1       21 0.11163232E-01 0.45770229E+03</pdfrwt>
<pdfrwt beam="2">  1       21 0.10146083E+00 0.45770229E+03</pdfrwt>
<totfact> 0.48425588E+04</totfact>
</mgrwt>
</event>
<event>
 7    0  0.4779893E-002  0.4570084E+03  0.7546771E-02  0.1025652E+00
         21   -1    0    0  502  501  0.00000000000E+00  0.00000000000E+00  0.15453141751E+03  0.15453141751E+03  0.00000000000E+00 0.  1.
         21   -1    0    0  501  502 -0.00000000000E+00 -0.00000000000E+00 -0.33788711453E+03  0.33788711453E+03  0.00000000000E+00 0.  1.
      99926    2    1    2    0    0 -0.71054273576E-14  0.17763568394E-14 -0.18335569702E+03  0.49241853204E+03  0.45700842341E+03 0.  0.
      99925    2    3    3    0    0 -0.51210859484E+02  0.12083561329E+02 -0.22539887434E+03  0.35034917770E+03  0.26300442807E+03 0.  0.
         25    1    4    4    0    0 -0.18861052881E+02  0.27847226034E+02 -0.68641545379E+02  0.14659596572E+03  0.12509000000E+03 0.  0.
         25    1    4    4    0    0 -0.32349806603E+02 -0.15763664705E+02 -0.15675732896E+03  0.20375321198E+03  0.12509000000E+03 0.  0.
         25    1    3    3    0    0  0.51210859484E+02 -0.12083561329E+02  0.42043177315E+02  0.14206935434E+03  0.12509000000E+03 0.  0.
<mgrwt>
<rscale>  2 0.45700842E+03</rscale>
<asrwt>0</asrwt>
<pdfrwt beam="1">  1       21 0.22725209E-01 0.45700842E+03</pdfrwt>
<pdfrwt beam="2">  1       21 0.49689281E-01 0.45700842E+03</pdfrwt>
<totfact> 0.64767780E+04</totfact>
</mgrwt>
</event>
<event>
 7    0  0.4779893E-002  0.4554162E+03  0.7546771E-02  0.1026119E+00
         21   -1    0    0  502  501  0.00000000000E+00  0.00000000000E+00  0.43518224244E+02  0.43518224244E+02  0.00000000000E+00 0.  1.
         21   -1    0    0  501  502 -0.00000000000E+00 -0.00000000000E+00 -0.11914775613E+04  0.11914775613E+04  0.00000000000E+00 0.  1.
      99926    2    1    2    0    0 -0.14210854715E-13  0.71054273576E-14 -0.11479593370E+04  0.12349957855E+04  0.45541623903E+03 0.  0.
      99925    2    3    3    0    0  0.92334468998E+02 -0.57829430763E+02 -0.63493742498E+03  0.69582152096E+03  0.26296797933E+03 0.  0.
         25    1    3    3    0    0 -0.92334468998E+02  0.57829430763E+02 -0.51302191206E+03  0.53917426457E+03  0.12509000000E+03 0.  0.
         25    1    4    4    0    0  0.16919194681E+02 -0.50348936909E+02 -0.35188275136E+03  0.37721380330E+03  0.12509000000E+03 0.  0.
         25    1    4    4    0    0  0.75415274317E+02 -0.74804938540E+01 -0.28305467363E+03  0.31860771766E+03  0.12509000000E+03 0.  0.
<mgrwt>
<rscale>  2 0.45541624E+03</rscale>
<asrwt>0</asrwt>
<pdfrwt beam="1">  1       21 0.63997397E-02 0.45541624E+03</pdfrwt>
<pdfrwt beam="2">  1       21 0.17521727E+00 0.45541624E+03</pdfrwt>
<totfact> 0.30962074E+04</totfact>
</mgrwt>
</event>
<event>
 7    0  0.4779893E-002  0.4567622E+03  0.7546771E-02  0.1025724E+00
         21   -1    0    0  502  501  0.00000000000E+00  0.00000000000E+00  0.11352951118E+03  0.11352951118E+03  0.00000000000E+00 0.  1.
         21   -1    0    0  501  502 -0.00000000000E+00 -0.00000000000E+00 -0.45942179046E+03  0.45942179046E+03  0.00000000000E+00 0.  1.
      99926    2    1    2    0    0  0.00000000000E+00 -0.44408920985E-15 -0.34589227928E+03  0.57295130165E+03  0.45676221954E+03 0.  0.
      99925    2    3    3    0    0 -0.11429327688E+03 -0.28322427783E+01 -0.23016146401E+03  0.36773896176E+03  0.26303359053E+03 0.  0.
         25    1    4    4    0    0 -0.99851232662E+02  0.58444756447E+01 -0.13860655934E+03  0.21181055911E+03  0.12509000000E+03 0.  0.
         25    1    4    4    0    0 -0.14442044215E+02 -0.86767184230E+01 -0.91554904671E+02  0.15592840265E+03  0.12509000000E+03 0.  0.
         25    1    3    3    0    0  0.11429327688E+03  0.28322427783E+01 -0.11573081527E+03  0.20521233988E+03  0.12509000000E+03 0.  0.
<mgrwt>
<rscale>  2 0.45676222E+03</rscale>
<asrwt>0</asrwt>
<pdfrwt beam="1">  1       21 0.16695516E-01 0.45676222E+03</pdfrwt>
<pdfrwt beam="2">  1       21 0.67562029E-01 0.45676222E+03</pdfrwt>
<totfact> 0.59540854E+04</totfact>
</mgrwt>
</event>
<event>
 7    0  0.4779893E-002  0.4645319E+03  0.7546771E-02  0.1023475E+00
         21   -1    0    0  502  501  0.00000000000E+00  0.00000000000E+00  0.34522787442E+02  0.34522787442E+02  0.00000000000E+00 0.  1.
         21   -1    0    0  501  502 -0.00000000000E+00 -0.00000000000E+00 -0.15626624800E+04  0.15626624800E+04  0.00000000000E+00 0.  1.
      99926    2    1    2    0    0  0.00000000000E+00  0.00000000000E+00 -0.15281396926E+04  0.15971852675E+04  0.46453187035E+03 0.  0.
      99925    2    3    3    0    0  0.16651182094E+01 -0.87788516901E+01 -0.52759765932E+03  0.58881444814E+03  0.26127250785E+03 0.  0.
         25    1    3    3    0    0 -0.16651182094E+01  0.87788516901E+01 -0.10005420333E+04  0.10083708193E+04  0.12509000000E+03 0.  0.
         25    1    4    4    0    0  0.88267632117E+00  0.21724948222E+02 -0.32318050881E+03  0.34722600978E+03  0.12509000000E+03 0.  0.
         25    1    4    4    0    0  0.78244188823E+00 -0.30503799912E+02 -0.20441715051E+03  0.24158843836E+03  0.12509000000E+03 0.  0.
<mgrwt>
<rscale>  2 0.46453187E+03</rscale>
<asrwt>0</asrwt>
<pdfrwt beam="1">  1       21 0.50768804E-02 0.46453187E+03</pdfrwt>
<pdfrwt beam="2">  1       21 0.22980331E+00 0.46453187E+03</pdfrwt>
<totfact> 0.19973738E+04</totfact>
</mgrwt>
</event>
<event>
 7    0  0.4779893E-002  0.4508093E+03  0.7546771E-02  0.1027481E+00
         21   -1    0    0  502  501  0.00000000000E+00  0.00000000000E+00  0.35740806342E+03  0.35740806342E+03  0.00000000000E+00 0. -1.
         21   -1    0    0  501  502 -0.00000000000E+00 -0.00000000000E+00 -0.14215476416E+03  0.14215476416E+03  0.00000000000E+00 0. -1.
      99926    2    1    2    0    0  0.00000000000E+00  0.71054273576E-14  0.21525329926E+03  0.49956282758E+03  0.45080931208E+03 0.  0.
      99925    2    3    3    0    0 -0.10211596884E+02 -0.37972749704E+02  0.24888055787E+03  0.36419478463E+03  0.26296407100E+03 0.  0.
         25    1    4    4    0    0 -0.25457681363E+02  0.10946806950E+02  0.14650217949E+03  0.19462354127E+03  0.12509000000E+03 0.  0.
         25    1    4    4    0    0  0.15246084479E+02 -0.48919556653E+02  0.10237837838E+03  0.16957124336E+03  0.12509000000E+03 0.  0.
         25    1    3    3    0    0  0.10211596884E+02  0.37972749704E+02 -0.33627258608E+02  0.13536804295E+03  0.12509000000E+03 0.  0.
<mgrwt>
<rscale>  2 0.45080931E+03</rscale>
<asrwt>0</asrwt>
<pdfrwt beam="1">  1       21 0.52560009E-01 0.45080931E+03</pdfrwt>
<pdfrwt beam="2">  1       21 0.20905112E-01 0.45080931E+03</pdfrwt>
<totfact> 0.67519609E+04</totfact>
</mgrwt>
</event>
<event>
 7    0  0.4779893E-002  0.3990681E+03  0.7546771E-02  0.1044103E+00
         21   -1    0    0  502  501  0.00000000000E+00  0.00000000000E+00  0.27939261054E+02  0.27939261054E+02  0.00000000000E+00 0.  1.
         21   -1    0    0  501  502 -0.00000000000E+00 -0.00000000000E+00 -0.14250136697E+04  0.14250136697E+04  0.00000000000E+00 0.  1.
      99926    2    1    2    0    0  0.00000000000E+00  0.00000000000E+00 -0.13970744086E+04  0.14529529307E+04  0.39906805897E+03 0.  0.
      99925    2    3    3    0    0  0.19885692278E+02  0.21949717365E+02 -0.10524412779E+04  0.10851258875E+04  0.26265627237E+03 0.  0.
         25    1    4    4    0    0 -0.20966693487E+02  0.23789108435E+02 -0.43110935309E+03  0.45000922917E+03  0.12509000000E+03 0.  0.
         25    1    3    3    0    0 -0.19885692278E+02 -0.21949717365E+02 -0.34463313069E+03  0.36782704321E+03  0.12509000000E+03 0.  0.
         25    1    4    4    0    0  0.40852385764E+02 -0.18393910702E+01 -0.62133192482E+03  0.63511665833E+03  0.12509000000E+03 0.  0.
<mgrwt>
<rscale>  2 0.39906806E+03</rscale>
<asrwt>0</asrwt>
<pdfrwt beam="1">  1       21 0.41087155E-02 0.39906806E+03</pdfrwt>
<pdfrwt beam="2">  1       21 0.20956080E+00 0.39906806E+03</pdfrwt>
<totfact> 0.39553075E+04</totfact>
</mgrwt>
</event>
<event>
 7    0  0.4779893E-002  0.4554621E+03  0.7546771E-02  0.1026106E+00
         21   -1    0    0  502  501  0.00000000000E+00  0.00000000000E+00  0.38030499665E+03  0.38030499665E+03  0.00000000000E+00 0. -1.
         21   -1    0    0  501  502 -0.00000000000E+00 -0.00000000000E+00 -0.13636800195E+03  0.13636800195E+03  0.00000000000E+00 0. -1.
      99926    2    1    2    0    0  0.14210854715E-13  0.00000000000E+00  0.24393699470E+03  0.51667299860E+03  0.45546210611E+03 0.  0.
      99925    2    3    3    0    0 -0.10136957966E+03  0.46751263601E+02  0.17721094340E+03  0.33622537088E+03  0.26302530151E+03 0.  0.
         25    1    4    4    0    0 -0.71677150879E+02 -0.26491489647E+01  0.63232337670E+02  0.15744989227E+03  0.12509000000E+03 0.  0.
         25    1    4    4    0    0 -0.29692428779E+02  0.49400412566E+02  0.11397860573E+03  0.17877547861E+03  0.12509000000E+03 0.  0.
         25    1    3    3    0    0  0.10136957966E+03 -0.46751263601E+02  0.66726051305E+02  0.18044762772E+03  0.12509000000E+03 0.  0.
<mgrwt>
<rscale>  2 0.45546211E+03</rscale>
<asrwt>0</asrwt>
<pdfrwt beam="1">  1       21 0.55927205E-01 0.45546211E+03</pdfrwt>
<pdfrwt beam="2">  1       21 0.20054118E-01 0.45546211E+03</pdfrwt>
<totfact> 0.63879962E+04</totfact>
</mgrwt>
</event>
<event>
 7    0  0.4779893E-002  0.4489302E+03  0.7546771E-02  0.1028042E+00
         21   -1    0    0  502  501  0.00000000000E+00  0.00000000000E+00  0.99569707855E+02  0.99569707855E+02  0.00000000000E+00 0. -1.
         21   -1    0    0  501  502 -0.00000000000E+00 -0.00000000000E+00 -0.50602325867E+03  0.50602325867E+03  0.00000000000E+00 0. -1.
      99926    2    1    2    0    0  0.00000000000E+00  0.00000000000E+00 -0.40645355081E+03  0.60559296652E+03  0.44893023081E+03 0.  0.
      99925    2    3    3    0    0  0.14901115700E+02  0.10057157588E+03 -0.21073758421E+03  0.35204034317E+03  0.26303115537E+03 0.  0.
         25    1    4    4    0    0 -0.10822450456E+02  0.78039669625E+02 -0.14324005968E+03  0.20584590903E+03  0.12509000000E+03 0.  0.
         25    1    4    4    0    0  0.25723566156E+02  0.22531906257E+02 -0.67497524530E+02  0.14619443414E+03  0.12509000000E+03 0.  0.
         25    1    3    3    0    0 -0.14901115700E+02 -0.10057157588E+03 -0.19571596660E+03  0.25355262335E+03  0.12509000000E+03 0.  0.
<mgrwt>
<rscale>  2 0.44893023E+03</rscale>
<asrwt>0</asrwt>
<pdfrwt beam="1">  1       21 0.14642605E-01 0.44893023E+03</pdfrwt>
<pdfrwt beam="2">  1       21 0.74415183E-01 0.44893023E+03</pdfrwt>
<totfact> 0.61218321E+04</totfact>
</mgrwt>
</event>
<event>
 7    0  0.4779893E-002  0.4566224E+03  0.7546771E-02  0.1025765E+00
         21   -1    0    0  502  501  0.00000000000E+00  0.00000000000E+00  0.16998873256E+04  0.16998873256E+04  0.00000000000E+00 0. -1.
         21   -1    0    0  501  502 -0.00000000000E+00 -0.00000000000E+00 -0.30664390172E+02  0.30664390172E+02  0.00000000000E+00 0. -1.
      99926    2    1    2    0    0  0.14210854715E-13  0.00000000000E+00  0.16692229354E+04  0.17305517157E+04  0.45662241819E+03 0.  0.
      99925    2    3    3    0    0 -0.85247042284E+02 -0.62524278979E+01  0.75918921500E+03  0.80799275750E+03  0.26301688335E+03 0.  0.
         25    1    4    4    0    0 -0.28101915151E+02 -0.11828107508E+02  0.47632776609E+03  0.49342200054E+03  0.12509000000E+03 0.  0.
         25    1    4    4    0    0 -0.57145127133E+02  0.55756796102E+01  0.28286144890E+03  0.31457075696E+03  0.12509000000E+03 0.  0.
         25    1    3    3    0    0  0.85247042284E+02  0.62524278979E+01  0.91003372039E+03  0.92255895823E+03  0.12509000000E+03 0.  0.
<mgrwt>
<rscale>  2 0.45662242E+03</rscale>
<asrwt>0</asrwt>
<pdfrwt beam="1">  1       21 0.24998337E+00 0.45662242E+03</pdfrwt>
<pdfrwt beam="2">  1       21 0.45094703E-02 0.45662242E+03</pdfrwt>
<totfact> 0.18400025E+04</totfact>
</mgrwt>
</event>
<event>
 7    0  0.4779893E-002  0.4536510E+03  0.7546771E-02  0.1026639E+00
         21   -1    0    0  502  501  0.00000000000E+00  0.00000000000E+00  0.70926543505E+02  0.70926543505E+02  0.00000000000E+00 0. -1.
         21   -1    0    0  501  502 -0.00000000000E+00 -0.00000000000E+00 -0.72539564279E+03  0.72539564279E+03  0.00000000000E+00 0. -1.
      99926    2    1    2    0    0  0.00000000000E+00  0.00000000000E+00 -0.65446909929E+03  0.79632218629E+03  0.45365099192E+03 0.  0.
      99925    2    3    3    0    0 -0.38948358992E+02 -0.77580139012E+02 -0.28817198468E+03  0.39964002523E+03  0.26293231900E+03 0.  0.
         25    1    3    3    0    0  0.38948358992E+02  0.77580139012E+02 -0.36629711461E+03  0.39668216107E+03  0.12509000000E+03 0.  0.
         25    1    4    4    0    0 -0.17073250724E+02 -0.94454181486E+01 -0.17706439065E+03  0.21766951636E+03  0.12509000000E+03 0.  0.
         25    1    4    4    0    0 -0.21875108268E+02 -0.68134720864E+02 -0.11110759402E+03  0.18197050887E+03  0.12509000000E+03 0.  0.
<mgrwt>
<rscale>  2 0.45365099E+03</rscale>
<asrwt>0</asrwt>
<pdfrwt beam="1">  1       21 0.10430374E-01 0.45365099E+03</pdfrwt>
<pdfrwt beam="2">  1       21 0.10667583E+00 0.45365099E+03</pdfrwt>
<totfact> 0.48454172E+04</totfact>
</mgrwt>
</event>
<event>
 7    0  0.4779893E-002  0.4554245E+03  0.7546771E-02  0.1026117E+00
         21   -1    0    0  502  501  0.00000000000E+00  0.00000000000E+00  0.41280815889E+03  0.41280815889E+03  0.00000000000E+00 0.  1.
         21   -1    0    0  501  502 -0.00000000000E+00 -0.00000000000E+00 -0.12561007360E+03  0.12561007360E+03  0.00000000000E+00 0.  1.
      99926    2    1    2    0    0  0.00000000000E+00  0.35527136788E-14  0.28719808529E+03  0.53841823249E+03  0.45542447550E+03 0.  0.
      99925    2    3    3    0    0 -0.54331384712E+02 -0.28913795585E+02  0.67988171411E+02  0.27863293387E+03  0.26310836825E+03 0.  0.
         25    1    4    4    0    0 -0.38146730675E+02 -0.13088367280E+02 -0.59635489625E+01  0.13156576468E+03  0.12509000000E+03 0.  0.
         25    1    3    3    0    0  0.54331384712E+02  0.28913795585E+02  0.21920991388E+03  0.25978529862E+03  0.12509000000E+03 0.  0.
         25    1    4    4    0    0 -0.16184654037E+02 -0.15825428305E+02  0.73951720373E+02  0.14706716919E+03  0.12509000000E+03 0.  0.
<mgrwt>
<rscale>  2 0.45542448E+03</rscale>
<asrwt>0</asrwt>
<pdfrwt beam="1">  1       21 0.60707082E-01 0.45542448E+03</pdfrwt>
<pdfrwt beam="2">  1       21 0.18472070E-01 0.45542448E+03</pdfrwt>
<totfact> 0.62428407E+04</totfact>
</mgrwt>
</event>
<event>
 7    0  0.4779893E-002  0.4565254E+03  0.7546771E-02  0.1025794E+00
         21   -1    0    0  502  501  0.00000000000E+00  0.00000000000E+00  0.20831761169E+03  0.20831761169E+03  0.00000000000E+00 0.  1.
         21   -1    0    0  501  502 -0.00000000000E+00 -0.00000000000E+00 -0.25011740546E+03  0.25011740546E+03  0.00000000000E+00 0.  1.
      99926    2    1    2    0    0  0.00000000000E+00  0.00000000000E+00 -0.41799793767E+02  0.45843501714E+03  0.45652540147E+03 0.  0.
      99925    2    3    3    0    0 -0.21879858610E+02  0.73756602290E+02 -0.11152665334E+03  0.29586777678E+03  0.26302239893E+03 0.  0.
         25    1    3    3    0    0  0.21879858610E+02 -0.73756602290E+02  0.69726859572E+02  0.16256724037E+03  0.12509000000E+03 0.  0.
         25    1    4    4    0    0 -0.13166737626E+02  0.66659909662E+01 -0.82933333856E+02  0.15080863496E+03  0.12509000000E+03 0.  0.
         25    1    4    4    0    0 -0.87131209837E+01  0.67090611324E+02 -0.28593319482E+02  0.14505914182E+03  0.12509000000E+03 0.  0.
<mgrwt>
<rscale>  2 0.45652540E+03</rscale>
<asrwt>0</asrwt>
<pdfrwt beam="1">  1       21 0.30634943E-01 0.45652540E+03</pdfrwt>
<pdfrwt beam="2">  1       21 0.36781971E-01 0.45652540E+03</pdfrwt>
<totfact> 0.67469993E+04</totfact>
</mgrwt>
</event>
<event>
 7    0  0.4779893E-002  0.4586113E+03  0.7546771E-02  0.1025185E+00
         21   -1    0    0  502  501  0.00000000000E+00  0.00000000000E+00  0.12871717606E+04  0.12871717606E+04  0.00000000000E+00 0.  1.
         21   -1    0    0  501  502 -0.00000000000E+00 -0.00000000000E+00 -0.40850091532E+02  0.40850091532E+02  0.00000000000E+00 0.  1.
      99926    2    1    2    0    0  0.00000000000E+00 -0.17763568394E-14  0.12463216690E+04  0.13280218521E+04  0.45861131359E+03 0.  0.
      99925    2    3    3    0    0 -0.82999456527E+02 -0.88663378509E+01  0.54719937418E+03  0.61290856527E+03  0.26317718851E+03 0.  0.
         25    1    4    4    0    0 -0.65026169638E+02 -0.27127110671E+02  0.34610853281E+03  0.37470375959E+03  0.12509000000E+03 0.  0.
         25    1    4    4    0    0 -0.17973286889E+02  0.18260772820E+02  0.20109084137E+03  0.23820480568E+03  0.12509000000E+03 0.  0.
         25    1    3    3    0    0  0.82999456527E+02  0.88663378509E+01  0.69912229487E+03  0.71511328684E+03  0.12509000000E+03 0.  0.
<mgrwt>
<rscale>  2 0.45861131E+03</rscale>
<asrwt>0</asrwt>
<pdfrwt beam="1">  1       21 0.18928994E+00 0.45861131E+03</pdfrwt>
<pdfrwt beam="2">  1       21 0.60073672E-02 0.45861131E+03</pdfrwt>
<totfact> 0.27530449E+04</totfact>
</mgrwt>
</event>
<event>
 7    0  0.4779893E-002  0.4598198E+03  0.7546771E-02  0.1024834E+00
         21   -1    0    0  502  501  0.00000000000E+00  0.00000000000E+00  0.28098113754E+03  0.28098113754E+03  0.00000000000E+00 0. -1.
         21   -1    0    0  501  502 -0.00000000000E+00 -0.00000000000E+00 -0.18812136879E+03  0.18812136879E+03  0.00000000000E+00 0. -1.
      99926    2    1    2    0    0 -0.71054273576E-14  0.00000000000E+00  0.92859768747E+02  0.46910250633E+03  0.45981977426E+03 0.  0.
      99925    2    3    3    0    0 -0.35404513717E+02 -0.11157680791E+03  0.47609752385E+02  0.29190787962E+03  0.26313619668E+03 0.  0.
         25    1    3    3    0    0  0.35404513717E+02  0.11157680791E+03  0.45250016362E+02  0.17719462672E+03  0.12509000000E+03 0.  0.
         25    1    4    4    0    0 -0.51990066957E+02 -0.82081028277E+02  0.24400846159E+02  0.16025970067E+03  0.12509000000E+03 0.  0.
         25    1    4    4    0    0  0.16585553240E+02 -0.29495779638E+02  0.23208906227E+02  0.13164817895E+03  0.12509000000E+03 0.  0.
<mgrwt>
<rscale>  2 0.45981977E+03</rscale>
<asrwt>0</asrwt>
<pdfrwt beam="1">  1       21 0.41320756E-01 0.45981977E+03</pdfrwt>
<pdfrwt beam="2">  1       21 0.27664907E-01 0.45981977E+03</pdfrwt>
<totfact> 0.64981243E+04</totfact>
</mgrwt>
</event>
<event>
 7    0  0.4779893E-002  0.4569744E+03  0.7546771E-02  0.1025662E+00
         21   -1    0    0  502  501  0.00000000000E+00  0.00000000000E+00  0.15462778767E+04  0.15462778767E+04  0.00000000000E+00 0. -1.
         21   -1    0    0  501  502 -0.00000000000E+00 -0.00000000000E+00 -0.33762620764E+02  0.33762620764E+02  0.00000000000E+00 0. -1.
      99926    2    1    2    0    0  0.00000000000E+00  0.00000000000E+00  0.15125152559E+04  0.15800404975E+04  0.45697436929E+03 0.  0.
      99925    2    3    3    0    0  0.53180657065E+02  0.65763488333E+02  0.12194863981E+04  0.12503945687E+04  0.26303323701E+03 0.  0.
         25    1    3    3    0    0 -0.53180657065E+02 -0.65763488333E+02  0.29302885789E+03  0.32964592875E+03  0.12509000000E+03 0.  0.
         25    1    4    4    0    0  0.56780548356E+02  0.77676163187E+01  0.56220085629E+03  0.57879329423E+03  0.12509000000E+03 0.  0.
         25    1    4    4    0    0 -0.35998912906E+01  0.57995872015E+02  0.65728554177E+03  0.67160127450E+03  0.12509000000E+03 0.  0.
<mgrwt>
<rscale>  2 0.45697437E+03</rscale>
<asrwt>0</asrwt>
<pdfrwt beam="1">  1       21 0.22739376E+00 0.45697437E+03</pdfrwt>
<pdfrwt beam="2">  1       21 0.49650923E-02 0.45697437E+03</pdfrwt>
<totfact> 0.21551496E+04</totfact>
</mgrwt>
</event>
<event>
 7    0  0.4779893E-002  0.4559179E+03  0.7546771E-02  0.1025972E+00
         21   -1    0    0  502  501  0.00000000000E+00  0.00000000000E+00  0.40521238881E+03  0.40521238881E+03  0.00000000000E+00 0. -1.
         21   -1    0    0  501  502 -0.00000000000E+00 -0.00000000000E+00 -0.12824207988E+03  0.12824207988E+03  0.00000000000E+00 0. -1.
      99926    2    1    2    0    0  0.00000000000E+00  0.14210854715E-13  0.27697030893E+03  0.53345446868E+03  0.45591788529E+03 0.  0.
      99925    2    3    3    0    0 -0.59837583811E+01  0.11284563276E+03  0.19098980123E+03  0.34421890649E+03  0.26313420380E+03 0.  0.
         25    1    3    3    0    0  0.59837583811E+01 -0.11284563276E+03  0.85980507697E+02  0.18923556220E+03  0.12509000000E+03 0.  0.
         25    1    4    4    0    0  0.23860542173E+02  0.82544269402E+02  0.79378885087E+02  0.17126411586E+03  0.12509000000E+03 0.  0.
         25    1    4    4    0    0 -0.29844300555E+02  0.30301363356E+02  0.11161091615E+03  0.17295479062E+03  0.12509000000E+03 0.  0.
<mgrwt>
<rscale>  2 0.45591789E+03</rscale>
<asrwt>0</asrwt>
<pdfrwt beam="1">  1       21 0.59590057E-01 0.45591789E+03</pdfrwt>
<pdfrwt beam="2">  1       21 0.18859129E-01 0.45591789E+03</pdfrwt>
<totfact> 0.62517213E+04</totfact>
</mgrwt>
</event>
<event>
 7    0  0.4779893E-002  0.4568276E+03  0.7546771E-02  0.1025705E+00
         21   -1    0    0  502  501  0.00000000000E+00  0.00000000000E+00  0.17070579607E+03  0.17070579607E+03  0.00000000000E+00 0.  1.
         21   -1    0    0  501  502 -0.00000000000E+00 -0.00000000000E+00 -0.30563035702E+03  0.30563035702E+03  0.00000000000E+00 0.  1.
      99926    2    1    2    0    0 -0.88817841970E-15  0.00000000000E+00 -0.13492456095E+03  0.47633615309E+03  0.45682764102E+03 0.  0.
      99925    2    3    3    0    0  0.54491366686E+01  0.11452329941E+03 -0.77581472568E+02  0.29722440841E+03  0.26301746115E+03 0.  0.
         25    1    4    4    0    0  0.22257101485E+02  0.62960704843E+02 -0.75984899415E+02  0.16087461565E+03  0.12509000000E+03 0.  0.
         25    1    4    4    0    0 -0.16807964816E+02  0.51562594570E+02 -0.15965731528E+01  0.13634979276E+03  0.12509000000E+03 0.  0.
         25    1    3    3    0    0 -0.54491366686E+01 -0.11452329941E+03 -0.57343088379E+02  0.17911174468E+03  0.12509000000E+03 0.  0.
<mgrwt>
<rscale>  2 0.45682764E+03</rscale>
<asrwt>0</asrwt>
<pdfrwt beam="1">  1       21 0.25103794E-01 0.45682764E+03</pdfrwt>
<pdfrwt beam="2">  1       21 0.44945640E-01 0.45682764E+03</pdfrwt>
<totfact> 0.66005238E+04</totfact>
</mgrwt>
</event>
<event>
 7    0  0.4779893E-002  0.4598645E+03  0.7546771E-02  0.1024821E+00
         21   -1    0    0  502  501  0.00000000000E+00  0.00000000000E+00  0.30739929168E+03  0.30739929168E+03  0.00000000000E+00 0.  1.
         21   -1    0    0  501  502 -0.00000000000E+00 -0.00000000000E+00 -0.17198751719E+03  0.17198751719E+03  0.00000000000E+00 0.  1.
      99926    2    1    2    0    0  0.00000000000E+00  0.71054273576E-14  0.13541177449E+03  0.47938680887E+03  0.45986450597E+03 0.  0.
      99925    2    3    3    0    0  0.59593020942E+02  0.33699347415E+02 -0.14978322955E+02  0.27213897735E+03  0.26296064092E+03 0.  0.
         25    1    3    3    0    0 -0.59593020942E+02 -0.33699347415E+02  0.15039009744E+03  0.20724783152E+03  0.12509000000E+03 0.  0.
         25    1    4    4    0    0  0.51201211893E+02  0.48241193935E+02 -0.24410690876E+02  0.14557529605E+03  0.12509000000E+03 0.  0.
         25    1    4    4    0    0  0.83918090489E+01 -0.14541846520E+02  0.94323679209E+01  0.12656368130E+03  0.12509000000E+03 0.  0.
<mgrwt>
<rscale>  2 0.45986451E+03</rscale>
<asrwt>0</asrwt>
<pdfrwt beam="1">  1       21 0.45205778E-01 0.45986451E+03</pdfrwt>
<pdfrwt beam="2">  1       21 0.25292282E-01 0.45986451E+03</pdfrwt>
<totfact> 0.64229049E+04</totfact>
</mgrwt>
</event>
<event>
 7    0  0.4779893E-002  0.4530666E+03  0.7546771E-02  0.1026811E+00
         21   -1    0    0  502  501  0.00000000000E+00  0.00000000000E+00  0.45650719447E+02  0.45650719447E+02  0.00000000000E+00 0.  1.
         21   -1    0    0  501  502 -0.00000000000E+00 -0.00000000000E+00 -0.11241297412E+04  0.11241297412E+04  0.00000000000E+00 0.  1.
      99926    2    1    2    0    0  0.00000000000E+00  0.00000000000E+00 -0.10784790217E+04  0.11697804606E+04  0.45306657982E+03 0.  0.
      99925    2    3    3    0    0 -0.97590859922E+02  0.13289921934E+02 -0.54551142016E+03  0.61354079071E+03  0.26296196374E+03 0.  0.
         25    1    4    4    0    0 -0.18437140422E+02  0.65104189546E+01 -0.31517740980E+03  0.33965662286E+03  0.12509000000E+03 0.  0.
         25    1    3    3    0    0  0.97590859922E+02 -0.13289921934E+02 -0.53296760157E+03  0.55623966992E+03  0.12509000000E+03 0.  0.
         25    1    4    4    0    0 -0.79153719500E+02  0.67795029791E+01 -0.23033401036E+03  0.27388416785E+03  0.12509000000E+03 0.  0.
<mgrwt>
<rscale>  2 0.45306658E+03</rscale>
<asrwt>0</asrwt>
<pdfrwt beam="1">  1       21 0.67133418E-02 0.45306658E+03</pdfrwt>
<pdfrwt beam="2">  1       21 0.16531318E+00 0.45306658E+03</pdfrwt>
<totfact> 0.33632608E+04</totfact>
</mgrwt>
</event>
<event>
 7    0  0.4779893E-002  0.4556957E+03  0.7546771E-02  0.1026037E+00
         21   -1    0    0  502  501  0.00000000000E+00  0.00000000000E+00  0.54278278768E+03  0.54278278768E+03  0.00000000000E+00 0.  1.
         21   -1    0    0  501  502 -0.00000000000E+00 -0.00000000000E+00 -0.95645339122E+02  0.95645339122E+02  0.00000000000E+00 0.  1.
      99926    2    1    2    0    0  0.00000000000E+00  0.00000000000E+00  0.44713744856E+03  0.63842812681E+03  0.45569570460E+03 0.  0.
      99925    2    3    3    0    0 -0.78063354604E+02 -0.43127689398E+02  0.18193977626E+03  0.33194615601E+03  0.26293018728E+03 0.  0.
         25    1    3    3    0    0  0.78063354604E+02  0.43127689398E+02  0.26519767230E+03  0.30648197079E+03  0.12509000000E+03 0.  0.
         25    1    4    4    0    0 -0.17913457570E+02  0.14617434963E+02  0.87882726836E+02  0.15461385172E+03  0.12509000000E+03 0.  0.
         25    1    4    4    0    0 -0.60149897034E+02 -0.57745124361E+02  0.94057049421E+02  0.17733230429E+03  0.12509000000E+03 0.  0.
<mgrwt>
<rscale>  2 0.45569570E+03</rscale>
<asrwt>0</asrwt>
<pdfrwt beam="1">  1       21 0.79820997E-01 0.45569570E+03</pdfrwt>
<pdfrwt beam="2">  1       21 0.14065491E-01 0.45569570E+03</pdfrwt>
<totfact> 0.56064659E+04</totfact>
</mgrwt>
</event>
<event>
 7    0  0.4779893E-002  0.4651167E+03  0.7546771E-02  0.1023308E+00
         21   -1    0    0  502  501  0.00000000000E+00  0.00000000000E+00  0.43469446532E+03  0.43469446532E+03  0.00000000000E+00 0. -1.
         21   -1    0    0  501  502 -0.00000000000E+00 -0.00000000000E+00 -0.12441700253E+03  0.12441700253E+03  0.00000000000E+00 0. -1.
      99926    2    1    2    0    0 -0.17763568394E-14  0.00000000000E+00  0.31027746279E+03  0.55911146785E+03  0.46511668382E+03 0.  0.
      99925    2    3    3    0    0 -0.10524492467E+02  0.12945892995E+02  0.33931780903E+03  0.42961547989E+03  0.26297247755E+03 0.  0.
         25    1    4    4    0    0 -0.41481745141E+02  0.23316039556E+02  0.18420259911E+03  0.22768943431E+03  0.12509000000E+03 0.  0.
         25    1    4    4    0    0  0.30957252674E+02 -0.10370146561E+02  0.15511520993E+03  0.20192604558E+03  0.12509000000E+03 0.  0.
         25    1    3    3    0    0  0.10524492467E+02 -0.12945892995E+02 -0.29040346241E+02  0.12949598796E+03  0.12509000000E+03 0.  0.
<mgrwt>
<rscale>  2 0.46511668E+03</rscale>
<asrwt>0</asrwt>
<pdfrwt beam="1">  1       21 0.63925656E-01 0.46511668E+03</pdfrwt>
<pdfrwt beam="2">  1       21 0.18296618E-01 0.46511668E+03</pdfrwt>
<totfact> 0.56601025E+04</totfact>
</mgrwt>
</event>
<event>
 7    0  0.4779893E-002  0.4556582E+03  0.7546771E-02  0.1026048E+00
         21   -1    0    0  502  501  0.00000000000E+00  0.00000000000E+00  0.15649375872E+03  0.15649375872E+03  0.00000000000E+00 0.  1.
         21   -1    0    0  501  502 -0.00000000000E+00 -0.00000000000E+00 -0.33168156378E+03  0.33168156378E+03  0.00000000000E+00 0.  1.
      99926    2    1    2    0    0  0.00000000000E+00  0.00000000000E+00 -0.17518780506E+03  0.48817532249E+03  0.45565818159E+03 0.  0.
      99925    2    3    3    0    0 -0.10569934683E+03  0.37197695136E+02 -0.13051961445E+03  0.31439737281E+03  0.26316215121E+03 0.  0.
         25    1    4    4    0    0 -0.24451379643E+02 -0.12195877364E+02 -0.46526138627E+02  0.13623068328E+03  0.12509000000E+03 0.  0.
         25    1    4    4    0    0 -0.81247967191E+02  0.49393572500E+02 -0.83993475827E+02  0.17816668953E+03  0.12509000000E+03 0.  0.
         25    1    3    3    0    0  0.10569934683E+03 -0.37197695136E+02 -0.44668190604E+02  0.17377794968E+03  0.12509000000E+03 0.  0.
<mgrwt>
<rscale>  2 0.45565818E+03</rscale>
<asrwt>0</asrwt>
<pdfrwt beam="1">  1       21 0.23013788E-01 0.45565818E+03</pdfrwt>
<pdfrwt beam="2">  1       21 0.48776701E-01 0.45565818E+03</pdfrwt>
<totfact> 0.65765342E+04</totfact>
</mgrwt>
</event>
<event>
 7    0  0.4779893E-002  0.4561213E+03  0.7546771E-02  0.1025912E+00
         21   -1    0    0  502  501  0.00000000000E+00  0.00000000000E+00  0.14754517627E+03  0.14754517627E+03  0.00000000000E+00 0.  1.
         21   -1    0    0  501  502 -0.00000000000E+00 -0.00000000000E+00 -0.35251346280E+03  0.35251346280E+03  0.00000000000E+00 0.  1.
      99926    2    1    2    0    0  0.00000000000E+00  0.35527136788E-14 -0.20496828653E+03  0.50005863906E+03  0.45612130406E+03 0.  0.
      99925    2    3    3    0    0 -0.97378734286E+02 -0.26295340810E+02 -0.70234974890E+02  0.29035733672E+03  0.26305962907E+03 0.  0.
         25    1    4    4    0    0 -0.46966114670E+02  0.25704606598E+02 -0.21112991065E+02  0.13769462306E+03  0.12509000000E+03 0.  0.
         25    1    3    3    0    0  0.97378734286E+02  0.26295340810E+02 -0.13473331164E+03  0.20970130234E+03  0.12509000000E+03 0.  0.
         25    1    4    4    0    0 -0.50412619616E+02 -0.51999947407E+02 -0.49121983825E+02  0.15266271366E+03  0.12509000000E+03 0.  0.
<mgrwt>
<rscale>  2 0.45612130E+03</rscale>
<asrwt>0</asrwt>
<pdfrwt beam="1">  1       21 0.21697820E-01 0.45612130E+03</pdfrwt>
<pdfrwt beam="2">  1       21 0.51840214E-01 0.45612130E+03</pdfrwt>
<totfact> 0.64688823E+04</totfact>
</mgrwt>
</event>
<event>
 7    0  0.4779893E-002  0.4550870E+03  0.7546771E-02  0.1026216E+00
         21   -1    0    0  502  501  0.00000000000E+00  0.00000000000E+00  0.87200134206E+02  0.87200134206E+02  0.00000000000E+00 0.  1.
         21   -1    0    0  501  502 -0.00000000000E+00 -0.00000000000E+00 -0.59376098871E+03  0.59376098871E+03  0.00000000000E+00 0.  1.
      99926    2    1    2    0    0  0.14210854715E-13  0.00000000000E+00 -0.50656085451E+03  0.68096112292E+03  0.45508697148E+03 0.  0.
      99925    2    3    3    0    0  0.65587815266E+02 -0.72805226154E+02 -0.40375371280E+03  0.49170156847E+03  0.26296579504E+03 0.  0.
         25    1    3    3    0    0 -0.65587815266E+02  0.72805226154E+02 -0.10280714170E+03  0.18925955445E+03  0.12509000000E+03 0.  0.
         25    1    4    4    0    0  0.10955820564E+02 -0.87331687726E+01 -0.14316699195E+03  0.19063209049E+03  0.12509000000E+03 0.  0.
         25    1    4    4    0    0  0.54631994702E+02 -0.64072057382E+02 -0.26058672085E+03  0.30106947797E+03  0.12509000000E+03 0.  0.
<mgrwt>
<rscale>  2 0.45508697E+03</rscale>
<asrwt>0</asrwt>
<pdfrwt beam="1">  1       21 0.12823550E-01 0.45508697E+03</pdfrwt>
<pdfrwt beam="2">  1       21 0.87317789E-01 0.45508697E+03</pdfrwt>
<totfact> 0.53912337E+04</totfact>
</mgrwt>
</event>
<event>
 7    0  0.4779893E-002  0.4599114E+03  0.7546771E-02  0.1024807E+00
         21   -1    0    0  502  501  0.00000000000E+00  0.00000000000E+00  0.26566129831E+03  0.26566129831E+03  0.00000000000E+00 0.  1.
         21   -1    0    0  501  502 -0.00000000000E+00 -0.00000000000E+00 -0.19904900044E+03  0.19904900044E+03  0.00000000000E+00 0.  1.
      99926    2    1    2    0    0  0.14210854715E-13  0.00000000000E+00  0.66612297875E+02  0.46471029875E+03  0.45991136487E+03 0.  0.
      99925    2    3    3    0    0  0.11094092657E+03  0.48736444342E+01  0.81104659656E+02  0.29681396690E+03  0.26303787471E+03 0.  0.
         25    1    3    3    0    0 -0.11094092657E+03 -0.48736444342E+01 -0.14492361782E+02  0.16789633185E+03  0.12509000000E+03 0.  0.
         25    1    4    4    0    0  0.90735004158E+02 -0.22626012216E+01  0.19611045838E+02  0.15578851550E+03  0.12509000000E+03 0.  0.
         25    1    4    4    0    0  0.20205922409E+02  0.71362456558E+01  0.61493613818E+02  0.14102545140E+03  0.12509000000E+03 0.  0.
<mgrwt>
<rscale>  2 0.45991136E+03</rscale>
<asrwt>0</asrwt>
<pdfrwt beam="1">  1       21 0.39067838E-01 0.45991136E+03</pdfrwt>
<pdfrwt beam="2">  1       21 0.29271912E-01 0.45991136E+03</pdfrwt>
<totfact> 0.65245508E+04</totfact>
</mgrwt>
</event>
<event>
 7    0  0.4779893E-002  0.4269767E+03  0.7546771E-02  0.1034819E+00
         21   -1    0    0  502  501  0.00000000000E+00  0.00000000000E+00  0.33275263262E+02  0.33275263262E+02  0.00000000000E+00 0. -1.
         21   -1    0    0  501  502 -0.00000000000E+00 -0.00000000000E+00 -0.13697046694E+04  0.13697046694E+04  0.00000000000E+00 0. -1.
      99926    2    1    2    0    0  0.00000000000E+00  0.00000000000E+00 -0.13364294061E+04  0.14029799326E+04  0.42697673690E+03 0.  0.
      99925    2    3    3    0    0  0.91912903286E+01  0.51609231787E+02 -0.10800970788E+04  0.11129768934E+04  0.26336262653E+03 0.  0.
         25    1    4    4    0    0 -0.23771775779E+02  0.26426805273E+02 -0.41310818153E+03  0.43309277425E+03  0.12509000000E+03 0.  0.
         25    1    4    4    0    0  0.32963066107E+02  0.25182426514E+02 -0.66698889724E+03  0.67988411915E+03  0.12509000000E+03 0.  0.
         25    1    3    3    0    0 -0.91912903286E+01 -0.51609231787E+02 -0.25633232733E+03  0.29000303922E+03  0.12509000000E+03 0.  0.
<mgrwt>
<rscale>  2 0.42697674E+03</rscale>
<asrwt>0</asrwt>
<pdfrwt beam="1">  1       21 0.48934214E-02 0.42697674E+03</pdfrwt>
<pdfrwt beam="2">  1       21 0.20142714E+00 0.42697674E+03</pdfrwt>
<totfact> 0.32844229E+04</totfact>
</mgrwt>
</event>
<event>
 7    0  0.4779893E-002  0.4537190E+03  0.7546771E-02  0.1026619E+00
         21   -1    0    0  502  501  0.00000000000E+00  0.00000000000E+00  0.88194487944E+02  0.88194487944E+02  0.00000000000E+00 0. -1.
         21   -1    0    0  501  502 -0.00000000000E+00 -0.00000000000E+00 -0.58354259804E+03  0.58354259804E+03  0.00000000000E+00 0. -1.
      99926    2    1    2    0    0  0.23314683517E-14 -0.17763568394E-14 -0.49534811010E+03  0.67173708598E+03  0.45371903477E+03 0.  0.
      99925    2    3    3    0    0 -0.72691742517E+00  0.12599377648E+02 -0.14748916648E+03  0.30185517850E+03  0.26306695314E+03 0.  0.
         25    1    4    4    0    0  0.24368245381E+02 -0.79536922243E+01 -0.10652848829E+03  0.16629160989E+03  0.12509000000E+03 0.  0.
         25    1    3    3    0    0  0.72691742517E+00 -0.12599377648E+02 -0.34785894362E+03  0.36988190748E+03  0.12509000000E+03 0.  0.
         25    1    4    4    0    0 -0.25095162807E+02  0.20553069872E+02 -0.40960678189E+02  0.13556356861E+03  0.12509000000E+03 0.  0.
<mgrwt>
<rscale>  2 0.45371903E+03</rscale>
<asrwt>0</asrwt>
<pdfrwt beam="1">  1       21 0.12969778E-01 0.45371903E+03</pdfrwt>
<pdfrwt beam="2">  1       21 0.85815089E-01 0.45371903E+03</pdfrwt>
<totfact> 0.55018084E+04</totfact>
</mgrwt>
</event>
<event>
 7    0  0.4779893E-002  0.4432970E+03  0.7546771E-02  0.1029740E+00
         21   -1    0    0  502  501  0.00000000000E+00  0.00000000000E+00  0.22941369852E+03  0.22941369852E+03  0.00000000000E+00 0. -1.
         21   -1    0    0  501  502 -0.00000000000E+00 -0.00000000000E+00 -0.21414618576E+03  0.21414618576E+03  0.00000000000E+00 0. -1.
      99926    2    1    2    0    0  0.00000000000E+00  0.00000000000E+00  0.15267512754E+02  0.44355988428E+03  0.44329704939E+03 0.  0.
      99925    2    3    3    0    0 -0.41695044646E+02 -0.50723311580E+02 -0.68124662846E+02  0.27950777628E+03  0.26300626652E+03 0.  0.
         25    1    4    4    0    0  0.86369053655E+01 -0.18397230967E+01 -0.13873932411E+02  0.12616645678E+03  0.12509000000E+03 0.  0.
         25    1    3    3    0    0  0.41695044646E+02  0.50723311580E+02  0.83392175600E+02  0.16405210799E+03  0.12509000000E+03 0.  0.
         25    1    4    4    0    0 -0.50331950012E+02 -0.48883588483E+02 -0.54250730435E+02  0.15334131951E+03  0.12509000000E+03 0.  0.
<mgrwt>
<rscale>  2 0.44329705E+03</rscale>
<asrwt>0</asrwt>
<pdfrwt beam="1">  1       21 0.33737308E-01 0.44329705E+03</pdfrwt>
<pdfrwt beam="2">  1       21 0.31492086E-01 0.44329705E+03</pdfrwt>
<totfact> 0.76268965E+04</totfact>
</mgrwt>
</event>
<event>
 7    0  0.4779893E-002  0.4545163E+03  0.7546771E-02  0.1026384E+00
         21   -1    0    0  502  501  0.00000000000E+00  0.00000000000E+00  0.12472169237E+03  0.12472169237E+03  0.00000000000E+00 0.  1.
         21   -1    0    0  501  502 -0.00000000000E+00 -0.00000000000E+00 -0.41409201767E+03  0.41409201767E+03  0.00000000000E+00 0.  1.
      99926    2    1    2    0    0 -0.71054273576E-14  0.35527136788E-14 -0.28937032530E+03  0.53881371004E+03  0.45451625820E+03 0.  0.
      99925    2    3    3    0    0  0.62956408948E+02  0.31366505404E+02 -0.77813039815E+02  0.28317458895E+03  0.26303157904E+03 0.  0.
         25    1    4    4    0    0 -0.56861103219E+01  0.27396031008E+02 -0.22767129030E+02  0.13018726754E+03  0.12509000000E+03 0.  0.
         25    1    3    3    0    0 -0.62956408948E+02 -0.31366505404E+02 -0.21155728549E+03  0.25563912109E+03  0.12509000000E+03 0.  0.
         25    1    4    4    0    0  0.68642519270E+02  0.39704743958E+01 -0.55045910785E+02  0.15298732141E+03  0.12509000000E+03 0.  0.
<mgrwt>
<rscale>  2 0.45451626E+03</rscale>
<asrwt>0</asrwt>
<pdfrwt beam="1">  1       21 0.18341425E-01 0.45451626E+03</pdfrwt>
<pdfrwt beam="2">  1       21 0.60895885E-01 0.45451626E+03</pdfrwt>
<totfact> 0.62852097E+04</totfact>
</mgrwt>
</event>
<event>
 7    0  0.4779893E-002  0.4513306E+03  0.7546771E-02  0.1027326E+00
         21   -1    0    0  502  501  0.00000000000E+00  0.00000000000E+00  0.30114687456E+03  0.30114687456E+03  0.00000000000E+00 0. -1.
         21   -1    0    0  501  502 -0.00000000000E+00 -0.00000000000E+00 -0.16910294543E+03  0.16910294543E+03  0.00000000000E+00 0. -1.
      99926    2    1    2    0    0  0.00000000000E+00 -0.14210854715E-13  0.13204392913E+03  0.47024981999E+03  0.45133058170E+03 0.  0.
      99925    2    3    3    0    0  0.37341110771E+02  0.95377848155E+02  0.12418313815E+03  0.30838384886E+03  0.26303584160E+03 0.  0.
         25    1    4    4    0    0 -0.16894765785E+02  0.38597025082E+02  0.37873196217E+02  0.13732097636E+03  0.12509000000E+03 0.  0.
         25    1    4    4    0    0  0.54235876555E+02  0.56780823074E+02  0.86309941929E+02  0.17106287251E+03  0.12509000000E+03 0.  0.
         25    1    3    3    0    0 -0.37341110771E+02 -0.95377848155E+02  0.78607909880E+01  0.16186597112E+03  0.12509000000E+03 0.  0.
<mgrwt>
<rscale>  2 0.45133058E+03</rscale>
<asrwt>0</asrwt>
<pdfrwt beam="1">  1       21 0.44286305E-01 0.45133058E+03</pdfrwt>
<pdfrwt beam="2">  1       21 0.24868080E-01 0.45133058E+03</pdfrwt>
<totfact> 0.69416230E+04</totfact>
</mgrwt>
</event>
<event>
 7    0  0.4779893E-002  0.4553558E+03  0.7546771E-02  0.1026137E+00
         21   -1    0    0  502  501  0.00000000000E+00  0.00000000000E+00  0.37001591198E+03  0.37001591198E+03  0.00000000000E+00 0.  1.
         21   -1    0    0  501  502 -0.00000000000E+00 -0.00000000000E+00 -0.14009459747E+03  0.14009459747E+03  0.00000000000E+00 0.  1.
      99926    2    1    2    0    0 -0.88817841970E-15  0.17763568394E-14  0.22992131452E+03  0.51011050945E+03  0.45535581799E+03 0.  0.
      99925    2    3    3    0    0  0.38818678907E+01 -0.55794058599E+01  0.27173872661E+03  0.37804082056E+03  0.26272938132E+03 0.  0.
         25    1    4    4    0    0  0.33213625665E+02 -0.27901135570E+02  0.13507947705E+03  0.18914436687E+03  0.12509000000E+03 0.  0.
         25    1    3    3    0    0 -0.38818678907E+01  0.55794058599E+01 -0.41817412090E+02  0.13206968888E+03  0.12509000000E+03 0.  0.
         25    1    4    4    0    0 -0.29331757774E+02  0.22321729710E+02  0.13665924955E+03  0.18889645370E+03  0.12509000000E+03 0.  0.
<mgrwt>
<rscale>  2 0.45535582E+03</rscale>
<asrwt>0</asrwt>
<pdfrwt beam="1">  1       21 0.54414105E-01 0.45535582E+03</pdfrwt>
<pdfrwt beam="2">  1       21 0.20602147E-01 0.45535582E+03</pdfrwt>
<totfact> 0.64384039E+04</totfact>
</mgrwt>
</event>
<event>
 7    0  0.4779893E-002  0.4607120E+03  0.7546771E-02  0.1024575E+00
         21   -1    0    0  502  501  0.00000000000E+00  0.00000000000E+00  0.88028468660E+03  0.88028468660E+03  0.00000000000E+00 0. -1.
         21   -1    0    0  501  502 -0.00000000000E+00 -0.00000000000E+00 -0.60280370072E+02  0.60280370072E+02  0.00000000000E+00 0. -1.
      99926    2    1    2    0    0  0.00000000000E+00  0.71054273576E-14  0.82000431653E+03  0.94056505667E+03  0.46071199974E+03 0.  0.
      99925    2    3    3    0    0 -0.24114994591E+02  0.24008296620E+02  0.28183612330E+03  0.38700345795E+03  0.26302498893E+03 0.  0.
         25    1    4    4    0    0  0.14074419279E+02 -0.10959592759E+02  0.10496745292E+03  0.16426769684E+03  0.12509000000E+03 0.  0.
         25    1    3    3    0    0  0.24114994591E+02 -0.24008296620E+02  0.53816819323E+03  0.55356159872E+03  0.12509000000E+03 0.  0.
         25    1    4    4    0    0 -0.38189413869E+02  0.34967889379E+02  0.17686867037E+03  0.22273576111E+03  0.12509000000E+03 0.  0.
<mgrwt>
<rscale>  2 0.46071200E+03</rscale>
<asrwt>0</asrwt>
<pdfrwt beam="1">  1       21 0.12945362E+00 0.46071200E+03</pdfrwt>
<pdfrwt beam="2">  1       21 0.88647608E-02 0.46071200E+03</pdfrwt>
<totfact> 0.39720911E+04</totfact>
</mgrwt>
</event>
<event>
 7    0  0.4779893E-002  0.4210385E+03  0.7546771E-02  0.1036729E+00
         21   -1    0    0  502  501  0.00000000000E+00  0.00000000000E+00  0.19748984034E+02  0.19748984034E+02  0.00000000000E+00 0. -1.
         21   -1    0    0  501  502 -0.00000000000E+00 -0.00000000000E+00 -0.22440832882E+04  0.22440832882E+04  0.00000000000E+00 0. -1.
      99926    2    1    2    0    0  0.00000000000E+00  0.88817841970E-15 -0.22243343042E+04  0.22638322722E+04  0.42103854944E+03 0.  0.
      99925    2    3    3    0    0 -0.64172176510E+02  0.54346489701E+01 -0.12215260586E+04  0.12512022859E+04  0.26312287031E+03 0.  0.
         25    1    4    4    0    0 -0.30651757262E+01 -0.15281493074E+02 -0.68616889292E+03  0.69765190249E+03  0.12509000000E+03 0.  0.
         25    1    3    3    0    0  0.64172176510E+02 -0.54346489701E+01 -0.10028082456E+04  0.10126299863E+04  0.12509000000E+03 0.  0.
         25    1    4    4    0    0 -0.61107000783E+02  0.20716142044E+02 -0.53535716567E+03  0.55355038345E+03  0.12509000000E+03 0.  0.
<mgrwt>
<rscale>  2 0.42103855E+03</rscale>
<asrwt>0</asrwt>
<pdfrwt beam="1">  1       21 0.29042616E-02 0.42103855E+03</pdfrwt>
<pdfrwt beam="2">  1       21 0.33001234E+00 0.42103855E+03</pdfrwt>
<totfact> 0.12956861E+04</totfact>
</mgrwt>
</event>
<event>
 7    0  0.4779893E-002  0.4544478E+03  0.7546771E-02  0.1026404E+00
         21   -1    0    0  502  501  0.00000000000E+00  0.00000000000E+00  0.59870689549E+02  0.59870689549E+02  0.00000000000E+00 0.  1.
         21   -1    0    0  501  502 -0.00000000000E+00 -0.00000000000E+00 -0.86237015721E+03  0.86237015721E+03  0.00000000000E+00 0.  1.
      99926    2    1    2    0    0  0.00000000000E+00  0.00000000000E+00 -0.80249946766E+03  0.92224084676E+03  0.45444777900E+03 0.  0.
      99925    2    3    3    0    0  0.69490392095E+02 -0.55428883424E+02 -0.36827868403E+03  0.46170151863E+03  0.26388980179E+03 0.  0.
         25    1    4    4    0    0  0.71423620895E+02 -0.21393928204E+02 -0.22932240143E+03  0.27165291400E+03  0.12509000000E+03 0.  0.
         25    1    3    3    0    0 -0.69490392095E+02  0.55428883424E+02 -0.43422078363E+03  0.46053932813E+03  0.12509000000E+03 0.  0.
         25    1    4    4    0    0 -0.19332287993E+01 -0.34034955220E+02 -0.13895628260E+03  0.19004860464E+03  0.12509000000E+03 0.  0.
<mgrwt>
<rscale>  2 0.45444778E+03</rscale>
<asrwt>0</asrwt>
<pdfrwt beam="1">  1       21 0.88045131E-02 0.45444778E+03</pdfrwt>
<pdfrwt beam="2">  1       21 0.12681914E+00 0.45444778E+03</pdfrwt>
<totfact> 0.42468998E+04</totfact>
</mgrwt>
</event>
<event>
 7    0  0.4779893E-002  0.4822926E+03  0.7546771E-02  0.1018507E+00
         21   -1    0    0  502  501  0.00000000000E+00  0.00000000000E+00  0.89623908968E+02  0.89623908968E+02  0.00000000000E+00 0. -1.
         21   -1    0    0  501  502 -0.00000000000E+00 -0.00000000000E+00 -0.64883960116E+03  0.64883960116E+03  0.00000000000E+00 0. -1.
      99926    2    1    2    0    0 -0.14210854715E-13  0.00000000000E+00 -0.55921569220E+03  0.73846351013E+03  0.48229261388E+03 0.  0.
      99925    2    3    3    0    0 -0.65394769457E+02  0.76238745694E+02 -0.20097239272E+03  0.34594014530E+03  0.26305105831E+03 0.  0.
         25    1    4    4    0    0 -0.10514928651E+01  0.50109361276E+02 -0.12565626013E+03  0.18425270021E+03  0.12509000000E+03 0.  0.
         25    1    3    3    0    0  0.65394769457E+02 -0.76238745694E+02 -0.35824329948E+03  0.39252336483E+03  0.12509000000E+03 0.  0.
         25    1    4    4    0    0 -0.64343276592E+02  0.26129384418E+02 -0.75316132590E+02  0.16168744509E+03  0.12509000000E+03 0.  0.
<mgrwt>
<rscale>  2 0.48229261E+03</rscale>
<asrwt>0</asrwt>
<pdfrwt beam="1">  1       21 0.13179987E-01 0.48229261E+03</pdfrwt>
<pdfrwt beam="2">  1       21 0.95417584E-01 0.48229261E+03</pdfrwt>
<totfact> 0.41267882E+04</totfact>
</mgrwt>
</event>
<event>
 7    0  0.4779893E-002  0.4485628E+03  0.7546771E-02  0.1028151E+00
         21   -1    0    0  502  501  0.00000000000E+00  0.00000000000E+00  0.54774095891E+03  0.54774095891E+03  0.00000000000E+00 0. -1.
         21   -1    0    0  501  502 -0.00000000000E+00 -0.00000000000E+00 -0.91835657963E+02  0.91835657963E+02  0.00000000000E+00 0. -1.
      99926    2    1    2    0    0  0.00000000000E+00  0.00000000000E+00  0.45590530094E+03  0.63957661687E+03  0.44856282215E+03 0.  0.
      99925    2    3    3    0    0  0.69581230007E+02  0.73414943608E+02  0.33788235337E+03  0.44005662848E+03  0.26316164241E+03 0.  0.
         25    1    4    4    0    0  0.66678705782E+02  0.66096556604E+02  0.17952519071E+03  0.23809999328E+03  0.12509000000E+03 0.  0.
         25    1    4    4    0    0  0.29025242251E+01  0.73183870047E+01  0.15835716266E+03  0.20195663520E+03  0.12509000000E+03 0.  0.
         25    1    3    3    0    0 -0.69581230007E+02 -0.73414943608E+02  0.11802294757E+03  0.19951998839E+03  0.12509000000E+03 0.  0.
<mgrwt>
<rscale>  2 0.44856282E+03</rscale>
<asrwt>0</asrwt>
<pdfrwt beam="1">  1       21 0.80550139E-01 0.44856282E+03</pdfrwt>
<pdfrwt beam="2">  1       21 0.13505244E-01 0.44856282E+03</pdfrwt>
<totfact> 0.59259342E+04</totfact>
</mgrwt>
</event>
<event>
 7    0  0.4779893E-002  0.4515049E+03  0.7546771E-02  0.1027274E+00
         21   -1    0    0  502  501  0.00000000000E+00  0.00000000000E+00  0.33967138699E+04  0.33967138699E+04  0.00000000000E+00 0. -1.
         21   -1    0    0  501  502 -0.00000000000E+00 -0.00000000000E+00 -0.15003959655E+02  0.15003959655E+02  0.00000000000E+00 0. -1.
      99926    2    1    2    0    0  0.00000000000E+00  0.00000000000E+00  0.33817099102E+04  0.34117178295E+04  0.45150485208E+03 0.  0.
      99925    2    3    3    0    0  0.53430727315E+02  0.52763289894E+02  0.15300021448E+04  0.15542712047E+04  0.26308479120E+03 0.  0.
         25    1    3    3    0    0 -0.53430727315E+02 -0.52763289894E+02  0.18517077654E+04  0.18574466248E+04  0.12509000000E+03 0.  0.
         25    1    4    4    0    0  0.34025484483E+02  0.58975980487E+02  0.66903285430E+03  0.68402366049E+03  0.12509000000E+03 0.  0.
         25    1    4    4    0    0  0.19405242832E+02 -0.62126905928E+01  0.86096929046E+03  0.87024754420E+03  0.12509000000E+03 0.  0.
<mgrwt>
<rscale>  2 0.45150485E+03</rscale>
<asrwt>0</asrwt>
<pdfrwt beam="1">  1       21 0.49951621E+00 0.45150485E+03</pdfrwt>
<pdfrwt beam="2">  1       21 0.22064670E-02 0.45150485E+03</pdfrwt>
<totfact> 0.15735481E+03</totfact>
</mgrwt>
</event>
<event>
 7    0  0.4779893E-002  0.4559585E+03  0.7546771E-02  0.1025960E+00
         21   -1    0    0  502  501  0.00000000000E+00  0.00000000000E+00  0.23092684679E+04  0.23092684679E+04  0.00000000000E+00 0.  1.
         21   -1    0    0  501  502 -0.00000000000E+00 -0.00000000000E+00 -0.22506930961E+02  0.22506930961E+02  0.00000000000E+00 0.  1.
      99926    2    1    2    0    0  0.00000000000E+00  0.00000000000E+00  0.22867615369E+04  0.23317753988E+04  0.45595853310E+03 0.  0.
      99925    2    3    3    0    0  0.27494974738E+02  0.84691680186E+02  0.18021444803E+04  0.18234154338E+04  0.26304079958E+03 0.  0.
         25    1    4    4    0    0  0.10728035232E+02  0.62452921074E+02  0.70486481361E+03  0.71867751576E+03  0.12509000000E+03 0.  0.
         25    1    4    4    0    0  0.16766939505E+02  0.22238759111E+02  0.10972796667E+04  0.11047379181E+04  0.12509000000E+03 0.  0.
         25    1    3    3    0    0 -0.27494974738E+02 -0.84691680186E+02  0.48461705665E+03  0.50835996501E+03  0.12509000000E+03 0.  0.
<mgrwt>
<rscale>  2 0.45595853E+03</rscale>
<asrwt>0</asrwt>
<pdfrwt beam="1">  1       21 0.33959814E+00 0.45595853E+03</pdfrwt>
<pdfrwt beam="2">  1       21 0.33098444E-02 0.45595853E+03</pdfrwt>
<totfact> 0.89432465E+03</totfact>
</mgrwt>
</event>
<event>
 7    0  0.4779893E-002  0.4624949E+03  0.7546771E-02  0.1024060E+00
         21   -1    0    0  502  501  0.00000000000E+00  0.00000000000E+00  0.60641077439E+02  0.60641077439E+02  0.00000000000E+00 0.  1.
         21   -1    0    0  501  502 -0.00000000000E+00 -0.00000000000E+00 -0.88183445874E+03  0.88183445874E+03  0.00000000000E+00 0.  1.
      99926    2    1    2    0    0  0.00000000000E+00  0.00000000000E+00 -0.82119338130E+03  0.94247553618E+03  0.46249493706E+03 0.  0.
      99925    2    3    3    0    0 -0.10716977944E+03 -0.46762291640E+02 -0.45793119721E+03  0.54087997341E+03  0.26301728216E+03 0.  0.
         25    1    3    3    0    0  0.10716977944E+03  0.46762291640E+02 -0.36326218409E+03  0.40159556277E+03  0.12509000000E+03 0.  0.
         25    1    4    4    0    0 -0.27802602960E+02 -0.44198094882E+02 -0.17352317164E+03  0.22019140655E+03  0.12509000000E+03 0.  0.
         25    1    4    4    0    0 -0.79367176479E+02 -0.25641967579E+01 -0.28440802557E+03  0.32068856686E+03  0.12509000000E+03 0.  0.
<mgrwt>
<rscale>  2 0.46249494E+03</rscale>
<asrwt>0</asrwt>
<pdfrwt beam="1">  1       21 0.89178058E-02 0.46249494E+03</pdfrwt>
<pdfrwt beam="2">  1       21 0.12968153E+00 0.46249494E+03</pdfrwt>
<totfact> 0.39104031E+04</totfact>
</mgrwt>
</event>
<event>
 7    0  0.4779893E-002  0.4444850E+03  0.7546771E-02  0.1029380E+00
         21   -1    0    0  502  501  0.00000000000E+00  0.00000000000E+00  0.23263836201E+03  0.23263836201E+03  0.00000000000E+00 0.  1.
         21   -1    0    0  501  502 -0.00000000000E+00 -0.00000000000E+00 -0.21231123316E+03  0.21231123316E+03  0.00000000000E+00 0.  1.
      99926    2    1    2    0    0  0.71054273576E-14 -0.71054273576E-14  0.20327128853E+02  0.44494959517E+03  0.44448503920E+03 0.  0.
      99925    2    3    3    0    0 -0.59877713999E+02  0.51631085204E+02 -0.53155687539E+02  0.27972749617E+03  0.26300348933E+03 0.  0.
         25    1    3    3    0    0  0.59877713999E+02 -0.51631085204E+02  0.73482816393E+02  0.16522209900E+03  0.12509000000E+03 0.  0.
         25    1    4    4    0    0 -0.53833662115E+02  0.31792272220E+02 -0.61255734043E+02  0.15267149309E+03  0.12509000000E+03 0.  0.
         25    1    4    4    0    0 -0.60440518841E+01  0.19838812984E+02  0.81000465035E+01  0.12705600307E+03  0.12509000000E+03 0.  0.
<mgrwt>
<rscale>  2 0.44448504E+03</rscale>
<asrwt>0</asrwt>
<pdfrwt beam="1">  1       21 0.34211524E-01 0.44448504E+03</pdfrwt>
<pdfrwt beam="2">  1       21 0.31222240E-01 0.44448504E+03</pdfrwt>
<totfact> 0.75420181E+04</totfact>
</mgrwt>
</event>
<event>
 7    0  0.4779893E-002  0.4642244E+03  0.7546771E-02  0.1023563E+00
         21   -1    0    0  502  501  0.00000000000E+00  0.00000000000E+00  0.30272115957E+03  0.30272115957E+03  0.00000000000E+00 0. -1.
         21   -1    0    0  501  502 -0.00000000000E+00 -0.00000000000E+00 -0.17797263698E+03  0.17797263698E+03  0.00000000000E+00 0. -1.
      99926    2    1    2    0    0 -0.35527136788E-14  0.00000000000E+00  0.12474852259E+03  0.48069379655E+03  0.46422444158E+03 0.  0.
      99925    2    3    3    0    0  0.27478706568E+02 -0.18375949205E+02 -0.43405563331E+02  0.26852391289E+03  0.26292260085E+03 0.  0.
         25    1    3    3    0    0 -0.27478706568E+02  0.18375949205E+02  0.16815408592E+03  0.21216988367E+03  0.12509000000E+03 0.  0.
         25    1    4    4    0    0 -0.73405501629E+01 -0.75542411252E+01 -0.56323659017E+02  0.13758929065E+03  0.12509000000E+03 0.  0.
         25    1    4    4    0    0  0.34819256731E+02 -0.10821708080E+02  0.12918095685E+02  0.13093462224E+03  0.12509000000E+03 0.  0.
<mgrwt>
<rscale>  2 0.46422444E+03</rscale>
<asrwt>0</asrwt>
<pdfrwt beam="1">  1       21 0.44517818E-01 0.46422444E+03</pdfrwt>
<pdfrwt beam="2">  1       21 0.26172447E-01 0.46422444E+03</pdfrwt>
<totfact> 0.61986214E+04</totfact>
</mgrwt>
</event>
<event>
 7    0  0.4779893E-002  0.4467634E+03  0.7546771E-02  0.1028692E+00
         21   -1    0    0  502  501  0.00000000000E+00  0.00000000000E+00  0.27432676587E+02  0.27432676587E+02  0.00000000000E+00 0. -1.
         21   -1    0    0  501  502 -0.00000000000E+00 -0.00000000000E+00 -0.18189762061E+04  0.18189762061E+04  0.00000000000E+00 0. -1.
      99926    2    1    2    0    0  0.00000000000E+00 -0.35527136788E-14 -0.17915435295E+04  0.18464088827E+04  0.44676340934E+03 0.  0.
      99925    2    3    3    0    0  0.35864292741E+02  0.20849132138E+02 -0.73658648259E+03  0.78325187982E+03  0.26306449227E+03 0.  0.
         25    1    3    3    0    0 -0.35864292741E+02 -0.20849132138E+02 -0.10549570469E+04  0.10631570029E+04  0.12509000000E+03 0.  0.
         25    1    4    4    0    0  0.14628146054E+02  0.19831058434E+02 -0.25316341553E+03  0.28345454062E+03  0.12509000000E+03 0.  0.
         25    1    4    4    0    0  0.21236146687E+02  0.10180737043E+01 -0.48342306706E+03  0.49979733919E+03  0.12509000000E+03 0.  0.
<mgrwt>
<rscale>  2 0.44676341E+03</rscale>
<asrwt>0</asrwt>
<pdfrwt beam="1">  1       21 0.40342181E-02 0.44676341E+03</pdfrwt>
<pdfrwt beam="2">  1       21 0.26749644E+00 0.44676341E+03</pdfrwt>
<totfact> 0.17474403E+04</totfact>
</mgrwt>
</event>
<event>
 7    0  0.4779893E-002  0.4565686E+03  0.7546771E-02  0.1025781E+00
         21   -1    0    0  502  501  0.00000000000E+00  0.00000000000E+00  0.97661354811E+02  0.97661354811E+02  0.00000000000E+00 0. -1.
         21   -1    0    0  501  502 -0.00000000000E+00 -0.00000000000E+00 -0.53361658860E+03  0.53361658860E+03  0.00000000000E+00 0. -1.
      99926    2    1    2    0    0  0.00000000000E+00  0.00000000000E+00 -0.43595523379E+03  0.63127794341E+03  0.45656858846E+03 0.  0.
      99925    2    3    3    0    0  0.36476925611E+02 -0.85807680292E+02 -0.36621500033E+03  0.46038402204E+03  0.26295721550E+03 0.  0.
         25    1    4    4    0    0  0.17566970506E+00 -0.27362994315E+02 -0.11845239562E+03  0.17443406332E+03  0.12509000000E+03 0.  0.
         25    1    4    4    0    0  0.36301255906E+02 -0.58444685978E+02 -0.24776260471E+03  0.28594995872E+03  0.12509000000E+03 0.  0.
         25    1    3    3    0    0 -0.36476925611E+02  0.85807680292E+02 -0.69740233457E+02  0.17089392137E+03  0.12509000000E+03 0.  0.
<mgrwt>
<rscale>  2 0.45656859E+03</rscale>
<asrwt>0</asrwt>
<pdfrwt beam="1">  1       21 0.14361964E-01 0.45656859E+03</pdfrwt>
<pdfrwt beam="2">  1       21 0.78473028E-01 0.45656859E+03</pdfrwt>
<totfact> 0.56095355E+04</totfact>
</mgrwt>
</event>
<event>
 7    0  0.4779893E-002  0.4329260E+03  0.7546771E-02  0.1032940E+00
         21   -1    0    0  502  501  0.00000000000E+00  0.00000000000E+00  0.95486947844E+03  0.95486947844E+03  0.00000000000E+00 0.  1.
         21   -1    0    0  501  502 -0.00000000000E+00 -0.00000000000E+00 -0.49070826290E+02  0.49070826290E+02  0.00000000000E+00 0.  1.
      99926    2    1    2    0    0  0.00000000000E+00  0.00000000000E+00  0.90579865215E+03  0.10039403047E+04  0.43292601819E+03 0.  0.
      99925    2    3    3    0    0 -0.68242156241E+02  0.23271239294E+02  0.45379937890E+03  0.52944120717E+03  0.26301249608E+03 0.  0.
         25    1    4    4    0    0 -0.38850766353E+02 -0.15813750834E+02  0.28229564799E+03  0.31160519530E+03  0.12509000000E+03 0.  0.
         25    1    4    4    0    0 -0.29391389888E+02  0.39084990128E+02  0.17150373091E+03  0.21783601187E+03  0.12509000000E+03 0.  0.
         25    1    3    3    0    0  0.68242156241E+02 -0.23271239294E+02  0.45199927325E+03  0.47449909756E+03  0.12509000000E+03 0.  0.
<mgrwt>
<rscale>  2 0.43292602E+03</rscale>
<asrwt>0</asrwt>
<pdfrwt beam="1">  1       21 0.14042197E+00 0.43292602E+03</pdfrwt>
<pdfrwt beam="2">  1       21 0.72162986E-02 0.43292602E+03</pdfrwt>
<totfact> 0.46532487E+04</totfact>
</mgrwt>
</event>
<event>
 7    0  0.4779893E-002  0.4560240E+03  0.7546771E-02  0.1025941E+00
         21   -1    0    0  502  501  0.00000000000E+00  0.00000000000E+00  0.51973511374E+03  0.51973511374E+03  0.00000000000E+00 0.  1.
         21   -1    0    0  501  502 -0.00000000000E+00 -0.00000000000E+00 -0.10003069632E+03  0.10003069632E+03  0.00000000000E+00 0.  1.
      99926    2    1    2    0    0  0.14210854715E-13  0.35527136788E-14  0.41970441742E+03  0.61976581006E+03  0.45602397011E+03 0.  0.
      99925    2    3    3    0    0  0.66755746363E+02  0.28674535870E+02  0.38331945290E+03  0.47060169768E+03  0.26316078014E+03 0.  0.
         25    1    3    3    0    0 -0.66755746363E+02 -0.28674535870E+02  0.36384964522E+02  0.14916411238E+03  0.12509000000E+03 0.  0.
         25    1    4    4    0    0  0.66120173717E+02  0.10195971189E+02  0.15888640697E+03  0.21299820098E+03  0.12509000000E+03 0.  0.
         25    1    4    4    0    0  0.63557264575E+00  0.18478564680E+02  0.22443304593E+03  0.25760349670E+03  0.12509000000E+03 0.  0.
<mgrwt>
<rscale>  2 0.45602397E+03</rscale>
<asrwt>0</asrwt>
<pdfrwt beam="1">  1       21 0.76431634E-01 0.45602397E+03</pdfrwt>
<pdfrwt beam="2">  1       21 0.14710397E-01 0.45602397E+03</pdfrwt>
<totfact> 0.57015411E+04</totfact>
</mgrwt>
</event>
<event>
 7    0  0.4779893E-002  0.4399918E+03  0.7546771E-02  0.1030749E+00
         21   -1    0    0  502  501  0.00000000000E+00  0.00000000000E+00  0.17695660904E+03  0.17695660904E+03  0.00000000000E+00 0. -1.
         21   -1    0    0  501  502 -0.00000000000E+00 -0.00000000000E+00 -0.27350312446E+03  0.27350312446E+03  0.00000000000E+00 0. -1.
      99926    2    1    2    0    0  0.00000000000E+00  0.17763568394E-14 -0.96546515422E+02  0.45045973350E+03  0.43999175205E+03 0.  0.
      99925    2    3    3    0    0 -0.83824678582E+02 -0.52799107322E+01 -0.11520541660E+03  0.29863708404E+03  0.26240687063E+03 0.  0.
         25    1    4    4    0    0 -0.28487854143E+02  0.12156006745E+02 -0.93116253837E+02  0.15898890264E+03  0.12509000000E+03 0.  0.
         25    1    3    3    0    0  0.83824678582E+02  0.52799107322E+01  0.18658901180E+02  0.15182264946E+03  0.12509000000E+03 0.  0.
         25    1    4    4    0    0 -0.55336824439E+02 -0.17435917477E+02 -0.22089162766E+02  0.13964818140E+03  0.12509000000E+03 0.  0.
<mgrwt>
<rscale>  2 0.43999175E+03</rscale>
<asrwt>0</asrwt>
<pdfrwt beam="1">  1       21 0.26023031E-01 0.43999175E+03</pdfrwt>
<pdfrwt beam="2">  1       21 0.40221047E-01 0.43999175E+03</pdfrwt>
<totfact> 0.77770969E+04</totfact>
</mgrwt>
</event>
<event>
 7    0  0.4779893E-002  0.4482678E+03  0.7546771E-02  0.1028240E+00
         21   -1    0    0  502  501  0.00000000000E+00  0.00000000000E+00  0.34343479375E+03  0.34343479375E+03  0.00000000000E+00 0. -1.
         21   -1    0    0  501  502 -0.00000000000E+00 -0.00000000000E+00 -0.14627525610E+03  0.14627525610E+03  0.00000000000E+00 0. -1.
      99926    2    1    2    0    0  0.17763568394E-14  0.00000000000E+00  0.19715953765E+03  0.48971004985E+03  0.44826783248E+03 0.  0.
      99925    2    3    3    0    0 -0.78040187957E+01 -0.10140072351E+03  0.88926182060E+02  0.29553235597E+03  0.26284691006E+03 0.  0.
         25    1    4    4    0    0 -0.31648956006E+02 -0.48683261942E+02  0.13893129209E+02  0.13860823767E+03  0.12509000000E+03 0.  0.
         25    1    3    3    0    0  0.78040187957E+01  0.10140072351E+03  0.10823335559E+03  0.19417769388E+03  0.12509000000E+03 0.  0.
         25    1    4    4    0    0  0.23844937211E+02 -0.52717461567E+02  0.75033052850E+02  0.15692411830E+03  0.12509000000E+03 0.  0.
<mgrwt>
<rscale>  2 0.44826783E+03</rscale>
<asrwt>0</asrwt>
<pdfrwt beam="1">  1       21 0.50505117E-01 0.44826783E+03</pdfrwt>
<pdfrwt beam="2">  1       21 0.21511067E-01 0.44826783E+03</pdfrwt>
<totfact> 0.69648300E+04</totfact>
</mgrwt>
</event>
<event>
 7    0  0.4779893E-002  0.4487727E+03  0.7546771E-02  0.1028089E+00
         21   -1    0    0  502  501  0.00000000000E+00  0.00000000000E+00  0.23343638876E+04  0.23343638876E+04  0.00000000000E+00 0. -1.
         21   -1    0    0  501  502 -0.00000000000E+00 -0.00000000000E+00 -0.21568712480E+02  0.21568712480E+02  0.00000000000E+00 0. -1.
      99926    2    1    2    0    0  0.00000000000E+00 -0.71054273576E-14  0.23127951751E+04  0.23559326000E+04  0.44877265298E+03 0.  0.
      99925    2    3    3    0    0 -0.83247969778E+02 -0.63527826247E+02  0.15852041010E+04  0.16102769902E+04  0.26297135668E+03 0.  0.
         25    1    3    3    0    0  0.83247969778E+02  0.63527826247E+02  0.72759107412E+03  0.74565560980E+03  0.12509000000E+03 0.  0.
         25    1    4    4    0    0 -0.57931595927E+02 -0.69008634773E+02  0.79410762937E+03  0.80893306065E+03  0.12509000000E+03 0.  0.
         25    1    4    4    0    0 -0.25316373851E+02  0.54808085262E+01  0.79109647159E+03  0.80134392960E+03  0.12509000000E+03 0.  0.
<mgrwt>
<rscale>  2 0.44877265E+03</rscale>
<asrwt>0</asrwt>
<pdfrwt beam="1">  1       21 0.34328864E+00 0.44877265E+03</pdfrwt>
<pdfrwt beam="2">  1       21 0.31718711E-02 0.44877265E+03</pdfrwt>
<totfact> 0.91555950E+03</totfact>
</mgrwt>
</event>
<event>
 7    0  0.4779893E-002  0.4456303E+03  0.7546771E-02  0.1029033E+00
         21   -1    0    0  502  501  0.00000000000E+00  0.00000000000E+00  0.23552855198E+04  0.23552855198E+04  0.00000000000E+00 0.  1.
         21   -1    0    0  501  502 -0.00000000000E+00 -0.00000000000E+00 -0.21078798138E+02  0.21078798138E+02  0.00000000000E+00 0.  1.
      99926    2    1    2    0    0  0.00000000000E+00  0.00000000000E+00  0.23342067216E+04  0.23763643179E+04  0.44563028635E+03 0.  0.
      99925    2    3    3    0    0  0.67628997321E+02  0.79287714968E+02  0.14960667684E+04  0.15225573653E+04  0.26287816966E+03 0.  0.
         25    1    3    3    0    0 -0.67628997321E+02 -0.79287714968E+02  0.83813995327E+03  0.85380695265E+03  0.12509000000E+03 0.  0.
         25    1    4    4    0    0  0.15620853014E+02  0.56782419740E+02  0.57981603711E+03  0.59607247817E+03  0.12509000000E+03 0.  0.
         25    1    4    4    0    0  0.52008144307E+02  0.22505295228E+02  0.91625073125E+03  0.92648488709E+03  0.12509000000E+03 0.  0.
<mgrwt>
<rscale>  2 0.44563029E+03</rscale>
<asrwt>0</asrwt>
<pdfrwt beam="1">  1       21 0.34636534E+00 0.44563029E+03</pdfrwt>
<pdfrwt beam="2">  1       21 0.30998249E-02 0.44563029E+03</pdfrwt>
<totfact> 0.91276741E+03</totfact>
</mgrwt>
</event>
<event>
 7    0  0.4779893E-002  0.4526129E+03  0.7546771E-02  0.1026946E+00
         21   -1    0    0  502  501  0.00000000000E+00  0.00000000000E+00  0.34650473206E+03  0.34650473206E+03  0.00000000000E+00 0. -1.
         21   -1    0    0  501  502 -0.00000000000E+00 -0.00000000000E+00 -0.14780350079E+03  0.14780350079E+03  0.00000000000E+00 0. -1.
      99926    2    1    2    0    0 -0.14210854715E-13  0.35527136788E-14  0.19870123127E+03  0.49430823286E+03  0.45261291383E+03 0.  0.
      99925    2    3    3    0    0 -0.65994192337E+02  0.25055597385E+02  0.21878791849E+03  0.34927720347E+03  0.26295131717E+03 0.  0.
         25    1    3    3    0    0  0.65994192337E+02 -0.25055597385E+02 -0.20086687222E+02  0.14503102939E+03  0.12509000000E+03 0.  0.
         25    1    4    4    0    0  0.51698323281E+01  0.26969580541E+02  0.95349150170E+02  0.15966544391E+03  0.12509000000E+03 0.  0.
         25    1    4    4    0    0 -0.71164024665E+02 -0.19139831552E+01  0.12343876832E+03  0.18961175956E+03  0.12509000000E+03 0.  0.
<mgrwt>
<rscale>  2 0.45261291E+03</rscale>
<asrwt>0</asrwt>
<pdfrwt beam="1">  1       21 0.50956578E-01 0.45261291E+03</pdfrwt>
<pdfrwt beam="2">  1       21 0.21735809E-01 0.45261291E+03</pdfrwt>
<totfact> 0.66931782E+04</totfact>
</mgrwt>
</event>
<event>
 7    0  0.4779893E-002  0.4573952E+03  0.7546771E-02  0.1025539E+00
         21   -1    0    0  502  501  0.00000000000E+00  0.00000000000E+00  0.20044346790E+03  0.20044346790E+03  0.00000000000E+00 0.  1.
         21   -1    0    0  501  502 -0.00000000000E+00 -0.00000000000E+00 -0.26093434662E+03  0.26093434662E+03  0.00000000000E+00 0.  1.
      99926    2    1    2    0    0  0.00000000000E+00  0.14210854715E-13 -0.60490878718E+02  0.46137781452E+03  0.45739516977E+03 0.  0.
      99925    2    3    3    0    0  0.34373175285E+02 -0.98524371345E+02 -0.87243129369E+02  0.29629674976E+03  0.26323341993E+03 0.  0.
         25    1    3    3    0    0 -0.34373175285E+02  0.98524371345E+02  0.26752250650E+02  0.16508106476E+03  0.12509000000E+03 0.  0.
         25    1    4    4    0    0  0.29464012124E+02 -0.68801754521E+02 -0.82598604026E+02  0.16754655151E+03  0.12509000000E+03 0.  0.
         25    1    4    4    0    0  0.49091631614E+01 -0.29722616824E+02 -0.46445253426E+01  0.12875019825E+03  0.12509000000E+03 0.  0.
<mgrwt>
<rscale>  2 0.45739517E+03</rscale>
<asrwt>0</asrwt>
<pdfrwt beam="1">  1       21 0.29476981E-01 0.45739517E+03</pdfrwt>
<pdfrwt beam="2">  1       21 0.38372698E-01 0.45739517E+03</pdfrwt>
<totfact> 0.66795258E+04</totfact>
</mgrwt>
</event>
<event>
 7    0  0.4779893E-002  0.4644795E+03  0.7546771E-02  0.1023490E+00
         21   -1    0    0  502  501  0.00000000000E+00  0.00000000000E+00  0.47406706829E+03  0.47406706829E+03  0.00000000000E+00 0.  1.
         21   -1    0    0  501  502 -0.00000000000E+00 -0.00000000000E+00 -0.11377143420E+03  0.11377143420E+03  0.00000000000E+00 0.  1.
      99926    2    1    2    0    0  0.00000000000E+00  0.71054273576E-14  0.36029563409E+03  0.58783850248E+03  0.46447945171E+03 0.  0.
      99925    2    3    3    0    0 -0.11595755348E+03 -0.37393171020E+02  0.22608879433E+03  0.36760365650E+03  0.26300551687E+03 0.  0.
         25    1    4    4    0    0 -0.28268530507E+02 -0.70022526455E+01  0.13858901467E+03  0.18895122240E+03  0.12509000000E+03 0.  0.
         25    1    4    4    0    0 -0.87689022969E+02 -0.30390918375E+02  0.87499779654E+02  0.17865243410E+03  0.12509000000E+03 0.  0.
         25    1    3    3    0    0  0.11595755348E+03  0.37393171020E+02  0.13420683976E+03  0.22023484599E+03  0.12509000000E+03 0.  0.
<mgrwt>
<rscale>  2 0.46447945E+03</rscale>
<asrwt>0</asrwt>
<pdfrwt beam="1">  1       21 0.69715745E-01 0.46447945E+03</pdfrwt>
<pdfrwt beam="2">  1       21 0.16731093E-01 0.46447945E+03</pdfrwt>
<totfact> 0.55180841E+04</totfact>
</mgrwt>
</event>
<event>
 7    0  0.4779893E-002  0.4559336E+03  0.7546771E-02  0.1025967E+00
         21   -1    0    0  502  501  0.00000000000E+00  0.00000000000E+00  0.69399357089E+02  0.69399357089E+02  0.00000000000E+00 0. -1.
         21   -1    0    0  501  502 -0.00000000000E+00 -0.00000000000E+00 -0.74883771504E+03  0.74883771504E+03  0.00000000000E+00 0. -1.
      99926    2    1    2    0    0  0.00000000000E+00  0.00000000000E+00 -0.67943835795E+03  0.81823707213E+03  0.45593357406E+03 0.  0.
      99925    2    3    3    0    0  0.57644662630E+02  0.18671643185E+02 -0.60057954896E+03  0.65843169912E+03  0.26299233901E+03 0.  0.
         25    1    3    3    0    0 -0.57644662630E+02 -0.18671643185E+02 -0.78858808990E+02  0.15980537301E+03  0.12509000000E+03 0.  0.
         25    1    4    4    0    0  0.40428121853E+01  0.30655707747E+02 -0.23254672835E+03  0.26586012434E+03  0.12509000000E+03 0.  0.
         25    1    4    4    0    0  0.53601850444E+02 -0.11984064562E+02 -0.36803282061E+03  0.39257157477E+03  0.12509000000E+03 0.  0.
<mgrwt>
<rscale>  2 0.45593357E+03</rscale>
<asrwt>0</asrwt>
<pdfrwt beam="1">  1       21 0.10205787E-01 0.45593357E+03</pdfrwt>
<pdfrwt beam="2">  1       21 0.11012320E+00 0.45593357E+03</pdfrwt>
<totfact> 0.46553359E+04</totfact>
</mgrwt>
</event>
<event>
 7    0  0.4779893E-002  0.4483158E+03  0.7546771E-02  0.1028225E+00
         21   -1    0    0  502  501  0.00000000000E+00  0.00000000000E+00  0.17265140789E+04  0.17265140789E+04  0.00000000000E+00 0.  1.
         21   -1    0    0  501  502 -0.00000000000E+00 -0.00000000000E+00 -0.29103018831E+02  0.29103018831E+02  0.00000000000E+00 0.  1.
      99926    2    1    2    0    0  0.22204460493E-15  0.00000000000E+00  0.16974110601E+04  0.17556170978E+04  0.44831583399E+03 0.  0.
      99925    2    3    3    0    0  0.14574683203E+01 -0.87288647467E+02  0.13128386074E+04  0.13418962841E+04  0.26366455200E+03 0.  0.
         25    1    3    3    0    0 -0.14574683203E+01  0.87288647467E+02  0.38457245273E+03  0.41372081370E+03  0.12509000000E+03 0.  0.
         25    1    4    4    0    0 -0.14582890584E+02 -0.72153491745E+02  0.83192382544E+03  0.84449011036E+03  0.12509000000E+03 0.  0.
         25    1    4    4    0    0  0.16040358904E+02 -0.15135155723E+02  0.48091478195E+03  0.49740617372E+03  0.12509000000E+03 0.  0.
<mgrwt>
<rscale>  2 0.44831583E+03</rscale>
<asrwt>0</asrwt>
<pdfrwt beam="1">  1       21 0.25389906E+00 0.44831583E+03</pdfrwt>
<pdfrwt beam="2">  1       21 0.42798569E-02 0.44831583E+03</pdfrwt>
<totfact> 0.19100180E+04</totfact>
</mgrwt>
</event>
<event>
 7    0  0.4779893E-002  0.4370214E+03  0.7546771E-02  0.1031665E+00
         21   -1    0    0  502  501  0.00000000000E+00  0.00000000000E+00  0.10542608102E+03  0.10542608102E+03  0.00000000000E+00 0. -1.
         21   -1    0    0  501  502 -0.00000000000E+00 -0.00000000000E+00 -0.45289475865E+03  0.45289475865E+03  0.00000000000E+00 0. -1.
      99926    2    1    2    0    0 -0.71054273576E-14  0.00000000000E+00 -0.34746867763E+03  0.55832083967E+03  0.43702137027E+03 0.  0.
      99925    2    3    3    0    0  0.63017443101E+02 -0.70969092236E+02 -0.21054833015E+03  0.34998817338E+03  0.26297017319E+03 0.  0.
         25    1    4    4    0    0  0.59960505763E+02 -0.41821085560E+02 -0.14793138831E+03  0.20706392539E+03  0.12509000000E+03 0.  0.
         25    1    3    3    0    0 -0.63017443101E+02  0.70969092236E+02 -0.13692034748E+03  0.20833266629E+03  0.12509000000E+03 0.  0.
         25    1    4    4    0    0  0.30569373372E+01 -0.29148006676E+02 -0.62616941841E+02  0.14292424799E+03  0.12509000000E+03 0.  0.
<mgrwt>
<rscale>  2 0.43702137E+03</rscale>
<asrwt>0</asrwt>
<pdfrwt beam="1">  1       21 0.15503836E-01 0.43702137E+03</pdfrwt>
<pdfrwt beam="2">  1       21 0.66602170E-01 0.43702137E+03</pdfrwt>
<totfact> 0.70874005E+04</totfact>
</mgrwt>
</event>
<event>
 7    0  0.4779893E-002  0.4614113E+03  0.7546771E-02  0.1024373E+00
         21   -1    0    0  502  501  0.00000000000E+00  0.00000000000E+00  0.40099370250E+03  0.40099370250E+03  0.00000000000E+00 0.  1.
         21   -1    0    0  501  502 -0.00000000000E+00 -0.00000000000E+00 -0.13273302832E+03  0.13273302832E+03  0.00000000000E+00 0.  1.
      99926    2    1    2    0    0 -0.71054273576E-14 -0.71054273576E-14  0.26826067418E+03  0.53372673081E+03  0.46141134997E+03 0.  0.
      99925    2    3    3    0    0 -0.51093479280E+02 -0.36341681323E+02  0.50767356464E+02  0.27511096800E+03  0.26301608089E+03 0.  0.
         25    1    4    4    0    0  0.93749051306E+01  0.29086883840E+01  0.14981851518E+02  0.12636579161E+03  0.12509000000E+03 0.  0.
         25    1    3    3    0    0  0.51093479280E+02  0.36341681323E+02  0.21749331771E+03  0.25861576281E+03  0.12509000000E+03 0.  0.
         25    1    4    4    0    0 -0.60468384411E+02 -0.39250369707E+02  0.35785504946E+02  0.14874517639E+03  0.12509000000E+03 0.  0.
<mgrwt>
<rscale>  2 0.46141135E+03</rscale>
<asrwt>0</asrwt>
<pdfrwt beam="1">  1       21 0.58969662E-01 0.46141135E+03</pdfrwt>
<pdfrwt beam="2">  1       21 0.19519563E-01 0.46141135E+03</pdfrwt>
<totfact> 0.59854999E+04</totfact>
</mgrwt>
</event>
<event>
 7    0  0.4779893E-002  0.4540609E+03  0.7546771E-02  0.1026518E+00
         21   -1    0    0  502  501  0.00000000000E+00  0.00000000000E+00  0.87280353325E+02  0.87280353325E+02  0.00000000000E+00 0.  1.
         21   -1    0    0  501  502 -0.00000000000E+00 -0.00000000000E+00 -0.59054318404E+03  0.59054318404E+03  0.00000000000E+00 0.  1.
      99926    2    1    2    0    0  0.00000000000E+00  0.00000000000E+00 -0.50326283071E+03  0.67782353736E+03  0.45406086709E+03 0.  0.
      99925    2    3    3    0    0  0.45051294712E+02  0.40124862565E+02 -0.45836978737E+03  0.53186971867E+03  0.26295039819E+03 0.  0.
         25    1    3    3    0    0 -0.45051294712E+02 -0.40124862565E+02 -0.44893043342E+02  0.14595381869E+03  0.12509000000E+03 0.  0.
         25    1    4    4    0    0  0.27949536454E+02  0.58597964658E+02 -0.21491859893E+03  0.25700663477E+03  0.12509000000E+03 0.  0.
         25    1    4    4    0    0  0.17101758257E+02 -0.18473102094E+02 -0.24345118844E+03  0.27486308389E+03  0.12509000000E+03 0.  0.
<mgrwt>
<rscale>  2 0.45406087E+03</rscale>
<asrwt>0</asrwt>
<pdfrwt beam="1">  1       21 0.12835346E-01 0.45406087E+03</pdfrwt>
<pdfrwt beam="2">  1       21 0.86844587E-01 0.45406087E+03</pdfrwt>
<totfact> 0.54526266E+04</totfact>
</mgrwt>
</event>
<event>
 7    0  0.4779893E-002  0.4025952E+03  0.7546771E-02  0.1042885E+00
         21   -1    0    0  502  501  0.00000000000E+00  0.00000000000E+00  0.16143762122E+03  0.16143762122E+03  0.00000000000E+00 0. -1.
         21   -1    0    0  501  502 -0.00000000000E+00 -0.00000000000E+00 -0.25099929743E+03  0.25099929743E+03  0.00000000000E+00 0. -1.
      99926    2    1    2    0    0  0.00000000000E+00  0.00000000000E+00 -0.89561676213E+02  0.41243691864E+03  0.40259522851E+03 0.  0.
      99925    2    3    3    0    0 -0.28222437707E+02  0.38302297093E+02 -0.42874167998E+02  0.27069488721E+03  0.26300942136E+03 0.  0.
         25    1    3    3    0    0  0.28222437707E+02 -0.38302297093E+02 -0.46687508214E+02  0.14174203144E+03  0.12509000000E+03 0.  0.
         25    1    4    4    0    0 -0.30794078409E+02  0.41235505248E+02  0.82272330389E+01  0.13551323781E+03  0.12509000000E+03 0.  0.
         25    1    4    4    0    0  0.25716407020E+01 -0.29332081544E+01 -0.51101401037E+02  0.13518164940E+03  0.12509000000E+03 0.  0.
<mgrwt>
<rscale>  2 0.40259523E+03</rscale>
<asrwt>0</asrwt>
<pdfrwt beam="1">  1       21 0.23740827E-01 0.40259523E+03</pdfrwt>
<pdfrwt beam="2">  1       21 0.36911661E-01 0.40259523E+03</pdfrwt>
<totfact> 0.11162824E+05</totfact>
</mgrwt>
</event>
<event>
 7    0  0.4779893E-002  0.4564428E+03  0.7546771E-02  0.1025818E+00
         21   -1    0    0  502  501  0.00000000000E+00  0.00000000000E+00  0.43028927285E+02  0.43028927285E+02  0.00000000000E+00 0. -1.
         21   -1    0    0  501  502 -0.00000000000E+00 -0.00000000000E+00 -0.12104650298E+04  0.12104650298E+04  0.00000000000E+00 0. -1.
      99926    2    1    2    0    0  0.00000000000E+00 -0.14210854715E-13 -0.11674361025E+04  0.12534939571E+04  0.45644281898E+03 0.  0.
      99925    2    3    3    0    0  0.78957354761E+02 -0.80686479085E+02 -0.67911263827E+03  0.73691687125E+03  0.26288386770E+03 0.  0.
         25    1    4    4    0    0  0.28308224906E+02 -0.79934475780E+02 -0.35462050674E+03  0.38547903694E+03  0.12509000000E+03 0.  0.
         25    1    3    3    0    0 -0.78957354761E+02  0.80686479085E+02 -0.48832346427E+03  0.51657708586E+03  0.12509000000E+03 0.  0.
         25    1    4    4    0    0  0.50649129855E+02 -0.75200330552E+00 -0.32449213153E+03  0.35143783432E+03  0.12509000000E+03 0.  0.
<mgrwt>
<rscale>  2 0.45644282E+03</rscale>
<asrwt>0</asrwt>
<pdfrwt beam="1">  1       21 0.63277829E-02 0.45644282E+03</pdfrwt>
<pdfrwt beam="2">  1       21 0.17800958E+00 0.45644282E+03</pdfrwt>
<totfact> 0.30155675E+04</totfact>
</mgrwt>
</event>
<event>
 7    0  0.4779893E-002  0.5037853E+03  0.7546771E-02  0.1012796E+00
         21   -1    0    0  502  501  0.00000000000E+00  0.00000000000E+00  0.12701511940E+03  0.12701511940E+03  0.00000000000E+00 0.  1.
         21   -1    0    0  501  502 -0.00000000000E+00 -0.00000000000E+00 -0.49954611431E+03  0.49954611431E+03  0.00000000000E+00 0.  1.
      99926    2    1    2    0    0  0.00000000000E+00  0.71054273576E-14 -0.37253099491E+03  0.62656123371E+03  0.50378530885E+03 0.  0.
      99925    2    3    3    0    0  0.13710919168E+03 -0.50188440729E+02 -0.29084444971E+03  0.41766410641E+03  0.26179190559E+03 0.  0.
         25    1    4    4    0    0  0.84732358378E+02  0.50457386751E+01 -0.12271667175E+03  0.19470983966E+03  0.12509000000E+03 0.  0.
         25    1    3    3    0    0 -0.13710919168E+03  0.50188440729E+02 -0.81686545208E+02  0.20889712730E+03  0.12509000000E+03 0.  0.
         25    1    4    4    0    0  0.52376833301E+02 -0.55234179404E+02 -0.16812777795E+03  0.22295426675E+03  0.12509000000E+03 0.  0.
<mgrwt>
<rscale>  2 0.50378531E+03</rscale>
<asrwt>0</asrwt>
<pdfrwt beam="1">  1       21 0.18678694E-01 0.50378531E+03</pdfrwt>
<pdfrwt beam="2">  1       21 0.73462663E-01 0.50378531E+03</pdfrwt>
<totfact> 0.39506420E+04</totfact>
</mgrwt>
</event>
<event>
 7    0  0.4779893E-002  0.4535189E+03  0.7546771E-02  0.1026678E+00
         21   -1    0    0  502  501  0.00000000000E+00  0.00000000000E+00  0.19610482286E+03  0.19610482286E+03  0.00000000000E+00 0. -1.
         21   -1    0    0  501  502 -0.00000000000E+00 -0.00000000000E+00 -0.26220589141E+03  0.26220589141E+03  0.00000000000E+00 0. -1.
      99926    2    1    2    0    0  0.00000000000E+00  0.00000000000E+00 -0.66101068550E+02  0.45831071426E+03  0.45351886349E+03 0.  0.
      99925    2    3    3    0    0  0.38867494950E+02  0.90984017169E+02  0.11160229804E+02  0.28109449077E+03  0.26287028830E+03 0.  0.
         25    1    4    4    0    0  0.27692973810E+02  0.79093932523E+02 -0.17941106147E+02  0.15163160076E+03  0.12509000000E+03 0.  0.
         25    1    4    4    0    0  0.11174521140E+02  0.11890084646E+02  0.29101335952E+02  0.12946289001E+03  0.12509000000E+03 0.  0.
         25    1    3    3    0    0 -0.38867494950E+02 -0.90984017169E+02 -0.77261298354E+02  0.17721622349E+03  0.12509000000E+03 0.  0.
<mgrwt>
<rscale>  2 0.45351886E+03</rscale>
<asrwt>0</asrwt>
<pdfrwt beam="1">  1       21 0.28838945E-01 0.45351886E+03</pdfrwt>
<pdfrwt beam="2">  1       21 0.38559690E-01 0.45351886E+03</pdfrwt>
<totfact> 0.69116639E+04</totfact>
</mgrwt>
</event>
<event>
 7    0  0.4779893E-002  0.4572482E+03  0.7546771E-02  0.1025582E+00
         21   -1    0    0  502  501  0.00000000000E+00  0.00000000000E+00  0.94479524387E+02  0.94479524387E+02  0.00000000000E+00 0.  1.
         21   -1    0    0  501  502 -0.00000000000E+00 -0.00000000000E+00 -0.55323085852E+03  0.55323085852E+03  0.00000000000E+00 0.  1.
      99926    2    1    2    0    0  0.00000000000E+00 -0.71054273576E-14 -0.45875133414E+03  0.64771038291E+03  0.45724824063E+03 0.  0.
      99925    2    3    3    0    0 -0.10249940704E+03  0.41018999025E+02 -0.24185336146E+03  0.37406659005E+03  0.26314269629E+03 0.  0.
         25    1    4    4    0    0 -0.44482411250E+02 -0.20278524453E+02 -0.12016193695E+03  0.18021182718E+03  0.12509000000E+03 0.  0.
         25    1    3    3    0    0  0.10249940704E+03 -0.41018999025E+02 -0.21689797267E+03  0.27364379286E+03  0.12509000000E+03 0.  0.
         25    1    4    4    0    0 -0.58016995787E+02  0.61297523478E+02 -0.12169142451E+03  0.19385476286E+03  0.12509000000E+03 0.  0.
<mgrwt>
<rscale>  2 0.45724824E+03</rscale>
<asrwt>0</asrwt>
<pdfrwt beam="1">  1       21 0.13894048E-01 0.45724824E+03</pdfrwt>
<pdfrwt beam="2">  1       21 0.81357479E-01 0.45724824E+03</pdfrwt>
<totfact> 0.54854093E+04</totfact>
</mgrwt>
</event>
<event>
 7    0  0.4779893E-002  0.4390146E+03  0.7546771E-02  0.1031050E+00
         21   -1    0    0  502  501  0.00000000000E+00  0.00000000000E+00  0.20541169707E+03  0.20541169707E+03  0.00000000000E+00 0. -1.
         21   -1    0    0  501  502 -0.00000000000E+00 -0.00000000000E+00 -0.23457014682E+03  0.23457014682E+03  0.00000000000E+00 0. -1.
      99926    2    1    2    0    0  0.71054273576E-14  0.00000000000E+00 -0.29158449746E+02  0.43998184389E+03  0.43901458719E+03 0.  0.
      99925    2    3    3    0    0  0.45044033300E+02  0.85712502719E+02 -0.32945641596E+02  0.28174958112E+03  0.26252964234E+03 0.  0.
         25    1    4    4    0    0  0.43201502515E+02  0.65912593104E+02  0.95403326159E+01  0.14815318355E+03  0.12509000000E+03 0.  0.
         25    1    3    3    0    0 -0.45044033300E+02 -0.85712502719E+02  0.37871918498E+01  0.15823226277E+03  0.12509000000E+03 0.  0.
         25    1    4    4    0    0  0.18425307845E+01  0.19799909616E+02 -0.42485974212E+02  0.13359639758E+03  0.12509000000E+03 0.  0.
<mgrwt>
<rscale>  2 0.43901459E+03</rscale>
<asrwt>0</asrwt>
<pdfrwt beam="1">  1       21 0.30207603E-01 0.43901459E+03</pdfrwt>
<pdfrwt beam="2">  1       21 0.34495610E-01 0.43901459E+03</pdfrwt>
<totfact> 0.79302438E+04</totfact>
</mgrwt>
</event>
<event>
 7    0  0.4779893E-002  0.4192313E+03  0.7546771E-02  0.1037317E+00
         21   -1    0    0  502  501  0.00000000000E+00  0.00000000000E+00  0.25801613212E+03  0.25801613212E+03  0.00000000000E+00 0. -1.
         21   -1    0    0  501  502 -0.00000000000E+00 -0.00000000000E+00 -0.17029444326E+03  0.17029444326E+03  0.00000000000E+00 0. -1.
      99926    2    1    2    0    0  0.00000000000E+00 -0.66613381478E-15  0.87721688856E+02  0.42831057538E+03  0.41923126588E+03 0.  0.
      99925    2    3    3    0    0  0.30709167802E+02  0.11201154633E+01 -0.11342436005E+02  0.26581283208E+03  0.26378685182E+03 0.  0.
         25    1    4    4    0    0  0.53739401223E+02  0.17148619343E+02 -0.13741099682E+01  0.13722752882E+03  0.12509000000E+03 0.  0.
         25    1    4    4    0    0 -0.23030233421E+02 -0.16028503880E+02 -0.99683260363E+01  0.12858530325E+03  0.12509000000E+03 0.  0.
         25    1    3    3    0    0 -0.30709167802E+02 -0.11201154633E+01  0.99064124860E+02  0.16249774331E+03  0.12509000000E+03 0.  0.
<mgrwt>
<rscale>  2 0.41923127E+03</rscale>
<asrwt>0</asrwt>
<pdfrwt beam="1">  1       21 0.37943549E-01 0.41923127E+03</pdfrwt>
<pdfrwt beam="2">  1       21 0.25043301E-01 0.41923127E+03</pdfrwt>
<totfact> 0.94843567E+04</totfact>
</mgrwt>
</event>
<event>
 7    0  0.4779893E-002  0.4557758E+03  0.7546771E-02  0.1026014E+00
         21   -1    0    0  502  501  0.00000000000E+00  0.00000000000E+00  0.16187692504E+02  0.16187692504E+02  0.00000000000E+00 0.  1.
         21   -1    0    0  501  502 -0.00000000000E+00 -0.00000000000E+00 -0.32081720458E+04  0.32081720458E+04  0.00000000000E+00 0.  1.
      99926    2    1    2    0    0  0.00000000000E+00  0.00000000000E+00 -0.31919843533E+04  0.32243597383E+04  0.45577583339E+03 0.  0.
      99925    2    3    3    0    0  0.10625331400E+03 -0.29528075684E+02 -0.22082243326E+04  0.22265656913E+04  0.26301787051E+03 0.  0.
         25    1    4    4    0    0  0.49250312773E+02  0.10211946203E+00 -0.13751992915E+04  0.13817547551E+04  0.12509000000E+03 0.  0.
         25    1    4    4    0    0  0.57003001230E+02 -0.29630195146E+02 -0.83302504111E+03  0.84481093614E+03  0.12509000000E+03 0.  0.
         25    1    3    3    0    0 -0.10625331400E+03  0.29528075684E+02 -0.98376002066E+03  0.99779404706E+03  0.12509000000E+03 0.  0.
<mgrwt>
<rscale>  2 0.45577583E+03</rscale>
<asrwt>0</asrwt>
<pdfrwt beam="1">  1       21 0.23805435E-02 0.45577583E+03</pdfrwt>
<pdfrwt beam="2">  1       21 0.47178991E+00 0.45577583E+03</pdfrwt>
<totfact> 0.21671072E+03</totfact>
</mgrwt>
</event>
<event>
 7    0  0.4779893E-002  0.4523711E+03  0.7546771E-02  0.1027017E+00
         21   -1    0    0  502  501  0.00000000000E+00  0.00000000000E+00  0.72610534733E+03  0.72610534733E+03  0.00000000000E+00 0. -1.
         21   -1    0    0  501  502 -0.00000000000E+00 -0.00000000000E+00 -0.70457958064E+02  0.70457958064E+02  0.00000000000E+00 0. -1.
      99926    2    1    2    0    0  0.00000000000E+00  0.00000000000E+00  0.65564738926E+03  0.79656330539E+03  0.45237108711E+03 0.  0.
      99925    2    3    3    0    0 -0.50558491223E+02 -0.96964817699E+02  0.38306422691E+03  0.47733388099E+03  0.26296595805E+03 0.  0.
         25    1    3    3    0    0  0.50558491223E+02  0.96964817699E+02  0.27258316236E+03  0.31922942441E+03  0.12509000000E+03 0.  0.
         25    1    4    4    0    0 -0.32687520158E+02 -0.38090711758E+02  0.12401244587E+03  0.18315559267E+03  0.12509000000E+03 0.  0.
         25    1    4    4    0    0 -0.17870971064E+02 -0.58874105942E+02  0.25905178104E+03  0.29417828832E+03  0.12509000000E+03 0.  0.
<mgrwt>
<rscale>  2 0.45237109E+03</rscale>
<asrwt>0</asrwt>
<pdfrwt beam="1">  1       21 0.10678019E+00 0.45237109E+03</pdfrwt>
<pdfrwt beam="2">  1       21 0.10361465E-01 0.45237109E+03</pdfrwt>
<totfact> 0.48933289E+04</totfact>
</mgrwt>
</event>
<event>
 7    0  0.4779893E-002  0.4570218E+03  0.7546771E-02  0.1025649E+00
         21   -1    0    0  502  501  0.00000000000E+00  0.00000000000E+00  0.71133079310E+02  0.71133079310E+02  0.00000000000E+00 0.  1.
         21   -1    0    0  501  502 -0.00000000000E+00 -0.00000000000E+00 -0.73407814579E+03  0.73407814579E+03  0.00000000000E+00 0.  1.
      99926    2    1    2    0    0  0.71054273576E-14  0.14210854715E-13 -0.66294506648E+03  0.80521122510E+03  0.45702183302E+03 0.  0.
      99925    2    3    3    0    0 -0.46267768013E+02 -0.10548243634E+03 -0.41866737797E+03  0.50757663716E+03  0.26283914945E+03 0.  0.
         25    1    4    4    0    0 -0.28224966475E+02 -0.10940603764E+02 -0.17419781843E+03  0.21658424132E+03  0.12509000000E+03 0.  0.
         25    1    3    3    0    0  0.46267768013E+02  0.10548243634E+03 -0.24427768851E+03  0.29763458794E+03  0.12509000000E+03 0.  0.
         25    1    4    4    0    0 -0.18042801538E+02 -0.94541832577E+02 -0.24446955954E+03  0.29099239584E+03  0.12509000000E+03 0.  0.
<mgrwt>
<rscale>  2 0.45702183E+03</rscale>
<asrwt>0</asrwt>
<pdfrwt beam="1">  1       21 0.10460747E-01 0.45702183E+03</pdfrwt>
<pdfrwt beam="2">  1       21 0.10795267E+00 0.45702183E+03</pdfrwt>
<totfact> 0.46767326E+04</totfact>
</mgrwt>
</event>
<event>
 7    0  0.4779893E-002  0.4545065E+03  0.7546771E-02  0.1026387E+00
         21   -1    0    0  502  501  0.00000000000E+00  0.00000000000E+00  0.20874846255E+03  0.20874846255E+03  0.00000000000E+00 0.  1.
         21   -1    0    0  501  502 -0.00000000000E+00 -0.00000000000E+00 -0.24739843383E+03  0.24739843383E+03  0.00000000000E+00 0.  1.
      99926    2    1    2    0    0  0.00000000000E+00  0.00000000000E+00 -0.38649971280E+02  0.45614689637E+03  0.45450651348E+03 0.  0.
      99925    2    3    3    0    0  0.50748930832E+02 -0.57664626082E+02  0.58472705501E+02  0.28013273352E+03  0.26297267542E+03 0.  0.
         25    1    4    4    0    0 -0.30375745413E+01 -0.21610073794E+02 -0.16301820131E+01  0.12698971510E+03  0.12509000000E+03 0.  0.
         25    1    3    3    0    0 -0.50748930832E+02  0.57664626082E+02 -0.97122676782E+02  0.17601416286E+03  0.12509000000E+03 0.  0.
         25    1    4    4    0    0  0.53786505373E+02 -0.36054552289E+02  0.60102887514E+02  0.15314301841E+03  0.12509000000E+03 0.  0.
<mgrwt>
<rscale>  2 0.45450651E+03</rscale>
<asrwt>0</asrwt>
<pdfrwt beam="1">  1       21 0.30698303E-01 0.45450651E+03</pdfrwt>
<pdfrwt beam="2">  1       21 0.36382123E-01 0.45450651E+03</pdfrwt>
<totfact> 0.68732105E+04</totfact>
</mgrwt>
</event>
<event>
 7    0  0.4779893E-002  0.4396047E+03  0.7546771E-02  0.1030868E+00
         21   -1    0    0  502  501  0.00000000000E+00  0.00000000000E+00  0.28266332886E+03  0.28266332886E+03  0.00000000000E+00 0. -1.
         21   -1    0    0  501  502 -0.00000000000E+00 -0.00000000000E+00 -0.17092092275E+03  0.17092092275E+03  0.00000000000E+00 0. -1.
      99926    2    1    2    0    0 -0.53290705182E-14  0.00000000000E+00  0.11174240611E+03  0.45358425161E+03  0.43960471788E+03 0.  0.
      99925    2    3    3    0    0 -0.11229987712E+02 -0.61500767157E+02 -0.65554665826E+01  0.27041670053E+03  0.26300905079E+03 0.  0.
         25    1    4    4    0    0  0.27377387352E+02 -0.50814171799E+02 -0.16207321336E+02  0.13871476763E+03  0.12509000000E+03 0.  0.
         25    1    3    3    0    0  0.11229987712E+02  0.61500767157E+02  0.11829787269E+03  0.18316755108E+03  0.12509000000E+03 0.  0.
         25    1    4    4    0    0 -0.38607375065E+02 -0.10686595358E+02  0.96518547537E+01  0.13170193290E+03  0.12509000000E+03 0.  0.
<mgrwt>
<rscale>  2 0.43960472E+03</rscale>
<asrwt>0</asrwt>
<pdfrwt beam="1">  1       21 0.41568137E-01 0.43960472E+03</pdfrwt>
<pdfrwt beam="2">  1       21 0.25135430E-01 0.43960472E+03</pdfrwt>
<totfact> 0.77745384E+04</totfact>
</mgrwt>
</event>
<event>
 7    0  0.4779893E-002  0.4507341E+03  0.7546771E-02  0.1027503E+00
         21   -1    0    0  502  501  0.00000000000E+00  0.00000000000E+00  0.46357650575E+02  0.46357650575E+02  0.00000000000E+00 0. -1.
         21   -1    0    0  501  502 -0.00000000000E+00 -0.00000000000E+00 -0.10956188282E+04  0.10956188282E+04  0.00000000000E+00 0. -1.
      99926    2    1    2    0    0  0.00000000000E+00  0.00000000000E+00 -0.10492611776E+04  0.11419764787E+04  0.45073413361E+03 0.  0.
      99925    2    3    3    0    0  0.98777579190E+02  0.46174537114E+02 -0.66017616708E+03  0.71898268265E+03  0.26308635149E+03 0.  0.
         25    1    4    4    0    0  0.75293457126E+02  0.17517414794E+02 -0.26821873272E+03  0.30588357457E+03  0.12509000000E+03 0.  0.
         25    1    4    4    0    0  0.23484122064E+02  0.28657122320E+02 -0.39195743436E+03  0.41309910808E+03  0.12509000000E+03 0.  0.
         25    1    3    3    0    0 -0.98777579190E+02 -0.46174537114E+02 -0.38908501050E+03  0.42299379608E+03  0.12509000000E+03 0.  0.
<mgrwt>
<rscale>  2 0.45073413E+03</rscale>
<asrwt>0</asrwt>
<pdfrwt beam="1">  1       21 0.68173026E-02 0.45073413E+03</pdfrwt>
<pdfrwt beam="2">  1       21 0.16112039E+00 0.45073413E+03</pdfrwt>
<totfact> 0.35207537E+04</totfact>
</mgrwt>
</event>
<event>
 7    0  0.4779893E-002  0.4371241E+03  0.7546771E-02  0.1031633E+00
         21   -1    0    0  502  501  0.00000000000E+00  0.00000000000E+00  0.56766401664E+03  0.56766401664E+03  0.00000000000E+00 0.  1.
         21   -1    0    0  501  502 -0.00000000000E+00 -0.00000000000E+00 -0.84150780224E+02  0.84150780224E+02  0.00000000000E+00 0.  1.
      99926    2    1    2    0    0  0.00000000000E+00  0.00000000000E+00  0.48351323641E+03  0.65181479686E+03  0.43712410094E+03 0.  0.
      99925    2    3    3    0    0 -0.17403124855E+02  0.13733817382E+02  0.17103764114E+03  0.31450189726E+03  0.26299445279E+03 0.  0.
         25    1    4    4    0    0 -0.33424673038E+02  0.23017116242E+02  0.53881183292E+02  0.14211856466E+03  0.12509000000E+03 0.  0.
         25    1    4    4    0    0  0.16021548184E+02 -0.92832988603E+01  0.11715645785E+03  0.17238333261E+03  0.12509000000E+03 0.  0.
         25    1    3    3    0    0  0.17403124855E+02 -0.13733817382E+02  0.31247559527E+03  0.33731289960E+03  0.12509000000E+03 0.  0.
<mgrwt>
<rscale>  2 0.43712410E+03</rscale>
<asrwt>0</asrwt>
<pdfrwt beam="1">  1       21 0.83480000E-01 0.43712410E+03</pdfrwt>
<pdfrwt beam="2">  1       21 0.12375115E-01 0.43712410E+03</pdfrwt>
<totfact> 0.64174658E+04</totfact>
</mgrwt>
</event>
<event>
 7    0  0.4779893E-002  0.4153116E+03  0.7546771E-02  0.1038603E+00
         21   -1    0    0  502  501  0.00000000000E+00  0.00000000000E+00  0.30858929996E+03  0.30858929996E+03  0.00000000000E+00 0.  1.
         21   -1    0    0  501  502 -0.00000000000E+00 -0.00000000000E+00 -0.13973568270E+03  0.13973568270E+03  0.00000000000E+00 0.  1.
      99926    2    1    2    0    0  0.00000000000E+00  0.17763568394E-14  0.16885361725E+03  0.44832498266E+03  0.41531162519E+03 0.  0.
      99925    2    3    3    0    0  0.67156151939E+02  0.15262304688E+02  0.98568349543E+02  0.28916966969E+03  0.26298382394E+03 0.  0.
         25    1    4    4    0    0  0.10489207010E+02  0.26326302964E+02  0.17857253470E+02  0.12949705515E+03  0.12509000000E+03 0.  0.
         25    1    4    4    0    0  0.56666944929E+02 -0.11063998276E+02  0.80711096073E+02  0.15967261454E+03  0.12509000000E+03 0.  0.
         25    1    3    3    0    0 -0.67156151939E+02 -0.15262304688E+02  0.70285267710E+02  0.15915531296E+03  0.12509000000E+03 0.  0.
<mgrwt>
<rscale>  2 0.41531163E+03</rscale>
<asrwt>0</asrwt>
<pdfrwt beam="1">  1       21 0.45380780E-01 0.41531163E+03</pdfrwt>
<pdfrwt beam="2">  1       21 0.20549365E-01 0.41531163E+03</pdfrwt>
<totfact> 0.95913294E+04</totfact>
</mgrwt>
</event>
<event>
 7    0  0.4779893E-002  0.4626776E+03  0.7546771E-02  0.1024007E+00
         21   -1    0    0  502  501  0.00000000000E+00  0.00000000000E+00  0.86263705379E+02  0.86263705379E+02  0.00000000000E+00 0.  1.
         21   -1    0    0  501  502 -0.00000000000E+00 -0.00000000000E+00 -0.62039585626E+03  0.62039585626E+03  0.00000000000E+00 0.  1.
      99926    2    1    2    0    0  0.14210854715E-13 -0.17763568394E-14 -0.53413215088E+03  0.70665956164E+03  0.46267762152E+03 0.  0.
      99925    2    3    3    0    0  0.11678756028E+03  0.41956129873E+01 -0.29121462122E+03  0.40948390361E+03  0.26308586869E+03 0.  0.
         25    1    4    4    0    0  0.61482648615E+02  0.41827248016E+02 -0.15948208831E+03  0.21589738153E+03  0.12509000000E+03 0.  0.
         25    1    4    4    0    0  0.55304911663E+02 -0.37631635029E+02 -0.13173253290E+03  0.19358652209E+03  0.12509000000E+03 0.  0.
         25    1    3    3    0    0 -0.11678756028E+03 -0.41956129873E+01 -0.24291752966E+03  0.29717565802E+03  0.12509000000E+03 0.  0.
<mgrwt>
<rscale>  2 0.46267762E+03</rscale>
<asrwt>0</asrwt>
<pdfrwt beam="1">  1       21 0.12685838E-01 0.46267762E+03</pdfrwt>
<pdfrwt beam="2">  1       21 0.91234689E-01 0.46267762E+03</pdfrwt>
<totfact> 0.49484946E+04</totfact>
</mgrwt>
</event>
<event>
 7    0  0.4779893E-002  0.4541007E+03  0.7546771E-02  0.1026506E+00
         21   -1    0    0  502  501  0.00000000000E+00  0.00000000000E+00  0.46893059434E+02  0.46893059434E+02  0.00000000000E+00 0.  1.
         21   -1    0    0  501  502 -0.00000000000E+00 -0.00000000000E+00 -0.10993494514E+04  0.10993494514E+04  0.00000000000E+00 0.  1.
      99926    2    1    2    0    0  0.00000000000E+00 -0.31086244690E-14 -0.10524563919E+04  0.11462425108E+04  0.45410068999E+03 0.  0.
      99925    2    3    3    0    0 -0.71078043982E+02 -0.27995917527E+01 -0.88286225445E+03  0.92382487297E+03  0.26257705448E+03 0.  0.
         25    1    4    4    0    0 -0.19960504012E+02  0.30894825614E+02 -0.36611900079E+03  0.38864320759E+03  0.12509000000E+03 0.  0.
         25    1    3    3    0    0  0.71078043982E+02  0.27995917527E+01 -0.16959413750E+03  0.22241763784E+03  0.12509000000E+03 0.  0.
         25    1    4    4    0    0 -0.51117539969E+02 -0.33694417367E+02 -0.51674325366E+03  0.53518166538E+03  0.12509000000E+03 0.  0.
<mgrwt>
<rscale>  2 0.45410069E+03</rscale>
<asrwt>0</asrwt>
<pdfrwt beam="1">  1       21 0.68960380E-02 0.45410069E+03</pdfrwt>
<pdfrwt beam="2">  1       21 0.16166904E+00 0.45410069E+03</pdfrwt>
<totfact> 0.34146782E+04</totfact>
</mgrwt>
</event>
<event>
 6    0  0.4779893E-002  0.4569150E+03  0.7546771E-02  0.1025680E+00
         21   -1    0    0  502  501  0.00000000000E+00  0.00000000000E+00  0.12574026786E+03  0.12574026786E+03  0.00000000000E+00 0. -1.
         21   -1    0    0  501  502 -0.00000000000E+00 -0.00000000000E+00 -0.41508445406E+03  0.41508445406E+03  0.00000000000E+00 0. -1.
      99926    2    1    2    0    0  0.00000000000E+00  0.00000000000E+00 -0.28934418619E+03  0.54082472192E+03  0.45691500496E+03 0.  0.
         25    1    3    3    0    0 -0.65632923642E+02  0.75106231613E+02 -0.16462572839E+03  0.22955993823E+03  0.12509000000E+03 0.  0.
         25    1    3    3    0    0  0.31479393116E+02 -0.36601037736E+01 -0.21585580052E+02  0.13083498736E+03  0.12509000000E+03 0.  0.
         25    1    3    3    0    0  0.34153530526E+02 -0.71446127839E+02 -0.10313287775E+03  0.18042979633E+03  0.12509000000E+03 0.  0.
<mgrwt>
<rscale>  2 0.45691500E+03</rscale>
<asrwt>0</asrwt>
<pdfrwt beam="1">  1       21 0.18491216E-01 0.45691500E+03</pdfrwt>
<pdfrwt beam="2">  1       21 0.61041833E-01 0.45691500E+03</pdfrwt>
<totfact> 0.61538987E+04</totfact>
</mgrwt>
</event>
<event>
 7    0  0.4779893E-002  0.4629750E+03  0.7546771E-02  0.1023922E+00
         21   -1    0    0  502  501  0.00000000000E+00  0.00000000000E+00  0.26639187034E+02  0.26639187034E+02  0.00000000000E+00 0.  1.
         21   -1    0    0  501  502 -0.00000000000E+00 -0.00000000000E+00 -0.20115653221E+04  0.20115653221E+04  0.00000000000E+00 0.  1.
      99926    2    1    2    0    0  0.00000000000E+00  0.00000000000E+00 -0.19849261351E+04  0.20382045092E+04  0.46297500946E+03 0.  0.
      99925    2    3    3    0    0 -0.93901411959E+02 -0.59560491017E+02 -0.14446400783E+04  0.14725885100E+04  0.26299626737E+03 0.  0.
         25    1    3    3    0    0  0.93901411959E+02  0.59560491017E+02 -0.54028605680E+03  0.56561599918E+03  0.12509000000E+03 0.  0.
         25    1    4    4    0    0 -0.69594485678E+01 -0.18796234869E+02 -0.57839242834E+03  0.59210391118E+03  0.12509000000E+03 0.  0.
         25    1    4    4    0    0 -0.86941963391E+02 -0.40764256149E+02 -0.86624764996E+03  0.88048459881E+03  0.12509000000E+03 0.  0.
<mgrwt>
<rscale>  2 0.46297501E+03</rscale>
<asrwt>0</asrwt>
<pdfrwt beam="1">  1       21 0.39175276E-02 0.46297501E+03</pdfrwt>
<pdfrwt beam="2">  1       21 0.29581842E+00 0.46297501E+03</pdfrwt>
<totfact> 0.12315694E+04</totfact>
</mgrwt>
</event>
<event>
 7    0  0.4779893E-002  0.4315130E+03  0.7546771E-02  0.1033383E+00
         21   -1    0    0  502  501  0.00000000000E+00  0.00000000000E+00  0.33952206535E+02  0.33952206535E+02  0.00000000000E+00 0.  1.
         21   -1    0    0  501  502 -0.00000000000E+00 -0.00000000000E+00 -0.13710705321E+04  0.13710705321E+04  0.00000000000E+00 0.  1.
      99926    2    1    2    0    0 -0.71054273576E-14  0.00000000000E+00 -0.13371183256E+04  0.14050227386E+04  0.43151301199E+03 0.  0.
      99925    2    3    3    0    0 -0.54621997945E+02 -0.70643261849E+02 -0.84499849287E+03  0.88946142227E+03  0.26295462659E+03 0.  0.
         25    1    4    4    0    0 -0.25592827352E+02 -0.45347580280E+02 -0.55493117218E+03  0.57123332344E+03  0.12509000000E+03 0.  0.
         25    1    4    4    0    0 -0.29029170593E+02 -0.25295681569E+02 -0.29006732069E+03  0.31822809883E+03  0.12509000000E+03 0.  0.
         25    1    3    3    0    0  0.54621997945E+02  0.70643261849E+02 -0.49211983269E+03  0.51556131637E+03  0.12509000000E+03 0.  0.
<mgrwt>
<rscale>  2 0.43151301E+03</rscale>
<asrwt>0</asrwt>
<pdfrwt beam="1">  1       21 0.49929728E-02 0.43151301E+03</pdfrwt>
<pdfrwt beam="2">  1       21 0.20162797E+00 0.43151301E+03</pdfrwt>
<totfact> 0.31581464E+04</totfact>
</mgrwt>
</event>
<event>
 7    0  0.4779893E-002  0.4614034E+03  0.7546771E-02  0.1024375E+00
         21   -1    0    0  502  501  0.00000000000E+00  0.00000000000E+00  0.46591279125E+02  0.46591279125E+02  0.00000000000E+00 0.  1.
         21   -1    0    0  501  502 -0.00000000000E+00 -0.00000000000E+00 -0.11423442300E+04  0.11423442300E+04  0.00000000000E+00 0.  1.
      99926    2    1    2    0    0  0.00000000000E+00  0.00000000000E+00 -0.10957529509E+04  0.11889355091E+04  0.46140341947E+03 0.  0.
      99925    2    3    3    0    0 -0.89802398411E+02  0.26095013284E+02 -0.49571158571E+03  0.56890118064E+03  0.26300790227E+03 0.  0.
         25    1    3    3    0    0  0.89802398411E+02 -0.26095013284E+02 -0.60004136515E+03  0.62003432846E+03  0.12509000000E+03 0.  0.
         25    1    4    4    0    0 -0.68177734932E+02  0.47668682092E+02 -0.27610251105E+03  0.31432564563E+03  0.12509000000E+03 0.  0.
         25    1    4    4    0    0 -0.21624663479E+02 -0.21573668808E+02 -0.21960907466E+03  0.25457553501E+03  0.12509000000E+03 0.  0.
<mgrwt>
<rscale>  2 0.46140342E+03</rscale>
<asrwt>0</asrwt>
<pdfrwt beam="1">  1       21 0.68516590E-02 0.46140342E+03</pdfrwt>
<pdfrwt beam="2">  1       21 0.16799179E+00 0.46140342E+03</pdfrwt>
<totfact> 0.30936213E+04</totfact>
</mgrwt>
</event>
<event>
 7    0  0.4779893E-002  0.4594501E+03  0.7546771E-02  0.1024941E+00
         21   -1    0    0  502  501  0.00000000000E+00  0.00000000000E+00  0.10034488051E+04  0.10034488051E+04  0.00000000000E+00 0.  1.
         21   -1    0    0  501  502 -0.00000000000E+00 -0.00000000000E+00 -0.52592225745E+02  0.52592225745E+02  0.00000000000E+00 0.  1.
      99926    2    1    2    0    0  0.17763568394E-14  0.00000000000E+00  0.95085657931E+03  0.10560410308E+04  0.45945013257E+03 0.  0.
      99925    2    3    3    0    0  0.11122913969E+02  0.11601404094E+03  0.57402710566E+03  0.64224043000E+03  0.26340591296E+03 0.  0.
         25    1    3    3    0    0 -0.11122913969E+02 -0.11601404094E+03  0.37682947364E+03  0.41380060079E+03  0.12509000000E+03 0.  0.
         25    1    4    4    0    0  0.37673530748E+02  0.35902909319E+02  0.30607568991E+03  0.33472100303E+03  0.12509000000E+03 0.  0.
         25    1    4    4    0    0 -0.26550616779E+02  0.80111131621E+02  0.26795141575E+03  0.30751942697E+03  0.12509000000E+03 0.  0.
<mgrwt>
<rscale>  2 0.45945013E+03</rscale>
<asrwt>0</asrwt>
<pdfrwt beam="1">  1       21 0.14756599E+00 0.45945013E+03</pdfrwt>
<pdfrwt beam="2">  1       21 0.77341515E-02 0.45945013E+03</pdfrwt>
<totfact> 0.35796936E+04</totfact>
</mgrwt>
</event>
<event>
 7    0  0.4779893E-002  0.4496167E+03  0.7546771E-02  0.1027836E+00
         21   -1    0    0  502  501  0.00000000000E+00  0.00000000000E+00  0.61381630347E+03  0.61381630347E+03  0.00000000000E+00 0.  1.
         21   -1    0    0  501  502 -0.00000000000E+00 -0.00000000000E+00 -0.82335384921E+02  0.82335384921E+02  0.00000000000E+00 0.  1.
      99926    2    1    2    0    0  0.00000000000E+00  0.00000000000E+00  0.53148091854E+03  0.69615168839E+03  0.44961673286E+03 0.  0.
      99925    2    3    3    0    0 -0.83385311799E+02  0.61874273965E+02  0.29188144302E+03  0.40660557328E+03  0.26334726017E+03 0.  0.
         25    1    4    4    0    0 -0.25852492884E+02  0.22466624599E+02  0.85280063348E+02  0.15522015950E+03  0.12509000000E+03 0.  0.
         25    1    3    3    0    0  0.83385311799E+02 -0.61874273965E+02  0.23959947553E+03  0.28954611511E+03  0.12509000000E+03 0.  0.
         25    1    4    4    0    0 -0.57532818915E+02  0.39407649366E+02  0.20660137967E+03  0.25138541378E+03  0.12509000000E+03 0.  0.
<mgrwt>
<rscale>  2 0.44961673E+03</rscale>
<asrwt>0</asrwt>
<pdfrwt beam="1">  1       21 0.90267101E-01 0.44961673E+03</pdfrwt>
<pdfrwt beam="2">  1       21 0.12108145E-01 0.44961673E+03</pdfrwt>
<totfact> 0.55423596E+04</totfact>
</mgrwt>
</event>
<event>
 7    0  0.4779893E-002  0.4583567E+03  0.7546771E-02  0.1025259E+00
         21   -1    0    0  502  501  0.00000000000E+00  0.00000000000E+00  0.19760895392E+02  0.19760895392E+02  0.00000000000E+00 0. -1.
         21   -1    0    0  501  502 -0.00000000000E+00 -0.00000000000E+00 -0.26579121274E+04  0.26579121274E+04  0.00000000000E+00 0. -1.
      99926    2    1    2    0    0  0.00000000000E+00 -0.14210854715E-13 -0.26381512320E+04  0.26776730227E+04  0.45835673229E+03 0.  0.
      99925    2    3    3    0    0 -0.25701322809E+02 -0.10159850205E+03 -0.19498474473E+04  0.19702888120E+04  0.26296410612E+03 0.  0.
         25    1    4    4    0    0 -0.50880055810E+02 -0.42114917287E+02 -0.10529995424E+04  0.10624584654E+04  0.12509000000E+03 0.  0.
         25    1    4    4    0    0  0.25178733002E+02 -0.59483584767E+02 -0.89684790491E+03  0.90783034654E+03  0.12509000000E+03 0.  0.
         25    1    3    3    0    0  0.25701322809E+02  0.10159850205E+03 -0.68830378464E+03  0.70738421078E+03  0.12509000000E+03 0.  0.
<mgrwt>
<rscale>  2 0.45835673E+03</rscale>
<asrwt>0</asrwt>
<pdfrwt beam="1">  1       21 0.29060125E-02 0.45835673E+03</pdfrwt>
<pdfrwt beam="2">  1       21 0.39086963E+00 0.45835673E+03</pdfrwt>
<totfact> 0.53388142E+03</totfact>
</mgrwt>
</event>
<event>
 7    0  0.4779893E-002  0.4592194E+03  0.7546771E-02  0.1025008E+00
         21   -1    0    0  502  501  0.00000000000E+00  0.00000000000E+00  0.51802080865E+02  0.51802080865E+02  0.00000000000E+00 0.  1.
         21   -1    0    0  501  502 -0.00000000000E+00 -0.00000000000E+00 -0.10177316700E+04  0.10177316700E+04  0.00000000000E+00 0.  1.
      99926    2    1    2    0    0  0.00000000000E+00  0.00000000000E+00 -0.96592958912E+03  0.10695337509E+04  0.45921941713E+03 0.  0.
      99925    2    3    3    0    0  0.22030220830E+02 -0.50667285070E+02 -0.84580925471E+03  0.88752026991E+03  0.26314716365E+03 0.  0.
         25    1    4    4    0    0  0.14997232661E+02 -0.55693520570E+02 -0.53310659176E+03  0.55061495757E+03  0.12509000000E+03 0.  0.
         25    1    3    3    0    0 -0.22030220830E+02  0.50667285070E+02 -0.12012033441E+03  0.18201348094E+03  0.12509000000E+03 0.  0.
         25    1    4    4    0    0  0.70329881687E+01  0.50262354992E+01 -0.31270266295E+03  0.33690531234E+03  0.12509000000E+03 0.  0.
<mgrwt>
<rscale>  2 0.45921942E+03</rscale>
<asrwt>0</asrwt>
<pdfrwt beam="1">  1       21 0.76179535E-02 0.45921942E+03</pdfrwt>
<pdfrwt beam="2">  1       21 0.14966641E+00 0.45921942E+03</pdfrwt>
<totfact> 0.35389016E+04</totfact>
</mgrwt>
</event>
<event>
 7    0  0.4779893E-002  0.4572846E+03  0.7546771E-02  0.1025572E+00
         21   -1    0    0  502  501  0.00000000000E+00  0.00000000000E+00  0.15088088724E+03  0.15088088724E+03  0.00000000000E+00 0.  1.
         21   -1    0    0  501  502 -0.00000000000E+00 -0.00000000000E+00 -0.34648056198E+03  0.34648056198E+03  0.00000000000E+00 0.  1.
      99926    2    1    2    0    0  0.00000000000E+00  0.00000000000E+00 -0.19559967473E+03  0.49736144922E+03  0.45728457050E+03 0.  0.
      99925    2    3    3    0    0 -0.59790569161E+02  0.92935105645E+02 -0.15852904575E+03  0.32638312997E+03  0.26302593629E+03 0.  0.
         25    1    4    4    0    0 -0.12758864717E+02  0.19379983146E+02 -0.40520211374E+02  0.13352066509E+03  0.12509000000E+03 0.  0.
         25    1    4    4    0    0 -0.47031704445E+02  0.73555122499E+02 -0.11800883438E+03  0.19286246488E+03  0.12509000000E+03 0.  0.
         25    1    3    3    0    0  0.59790569161E+02 -0.92935105645E+02 -0.37070628981E+02  0.17097831925E+03  0.12509000000E+03 0.  0.
<mgrwt>
<rscale>  2 0.45728457E+03</rscale>
<asrwt>0</asrwt>
<pdfrwt beam="1">  1       21 0.22188366E-01 0.45728457E+03</pdfrwt>
<pdfrwt beam="2">  1       21 0.50953024E-01 0.45728457E+03</pdfrwt>
<totfact> 0.64282662E+04</totfact>
</mgrwt>
</event>
<event>
 7    0  0.4779893E-002  0.4628354E+03  0.7546771E-02  0.1023962E+00
         21   -1    0    0  502  501  0.00000000000E+00  0.00000000000E+00  0.11196500211E+04  0.11196500211E+04  0.00000000000E+00 0.  1.
         21   -1    0    0  501  502 -0.00000000000E+00 -0.00000000000E+00 -0.47831160741E+02  0.47831160741E+02  0.00000000000E+00 0.  1.
      99926    2    1    2    0    0  0.00000000000E+00  0.00000000000E+00  0.10718188603E+04  0.11674811818E+04  0.46283543568E+03 0.  0.
      99925    2    3    3    0    0  0.11509628453E+03  0.32387322030E+02  0.70554192305E+03  0.76238564219E+03  0.26295697156E+03 0.  0.
         25    1    4    4    0    0  0.30244992130E+02  0.23795463808E+02  0.24752021168E+03  0.27999061937E+03  0.12509000000E+03 0.  0.
         25    1    3    3    0    0 -0.11509628453E+03 -0.32387322030E+02  0.36627693726E+03  0.40509553961E+03  0.12509000000E+03 0.  0.
         25    1    4    4    0    0  0.84851292395E+02  0.85918582218E+01  0.45802171138E+03  0.48239502282E+03  0.12509000000E+03 0.  0.
<mgrwt>
<rscale>  2 0.46283544E+03</rscale>
<asrwt>0</asrwt>
<pdfrwt beam="1">  1       21 0.16465440E+00 0.46283544E+03</pdfrwt>
<pdfrwt beam="2">  1       21 0.70339949E-02 0.46283544E+03</pdfrwt>
<totfact> 0.31251859E+04</totfact>
</mgrwt>
</event>
<event>
 7    0  0.4779893E-002  0.4521646E+03  0.7546771E-02  0.1027078E+00
         21   -1    0    0  502  501  0.00000000000E+00  0.00000000000E+00  0.30879612328E+03  0.30879612328E+03  0.00000000000E+00 0. -1.
         21   -1    0    0  501  502 -0.00000000000E+00 -0.00000000000E+00 -0.16552412294E+03  0.16552412294E+03  0.00000000000E+00 0. -1.
      99926    2    1    2    0    0  0.00000000000E+00  0.00000000000E+00  0.14327200034E+03  0.47432024622E+03  0.45216460487E+03 0.  0.
      99925    2    3    3    0    0 -0.29259643660E+02 -0.98039882585E+02  0.13413643744E+03  0.31245946674E+03  0.26300264102E+03 0.  0.
         25    1    4    4    0    0 -0.10812166175E+02 -0.23716262229E+02  0.98997967307E+02  0.16163993833E+03  0.12509000000E+03 0.  0.
         25    1    4    4    0    0 -0.18447477485E+02 -0.74323620356E+02  0.35138470136E+02  0.15081952842E+03  0.12509000000E+03 0.  0.
         25    1    3    3    0    0  0.29259643660E+02  0.98039882585E+02  0.91355628926E+01  0.16186077948E+03  0.12509000000E+03 0.  0.
<mgrwt>
<rscale>  2 0.45216460E+03</rscale>
<asrwt>0</asrwt>
<pdfrwt beam="1">  1       21 0.45411195E-01 0.45216460E+03</pdfrwt>
<pdfrwt beam="2">  1       21 0.24341783E-01 0.45216460E+03</pdfrwt>
<totfact> 0.68647697E+04</totfact>
</mgrwt>
</event>
<event>
 7    0  0.4779893E-002  0.4689467E+03  0.7546771E-02  0.1022218E+00
         21   -1    0    0  502  501  0.00000000000E+00  0.00000000000E+00  0.51689506294E+03  0.51689506294E+03  0.00000000000E+00 0.  1.
         21   -1    0    0  501  502 -0.00000000000E+00 -0.00000000000E+00 -0.10636155553E+03  0.10636155553E+03  0.00000000000E+00 0.  1.
      99926    2    1    2    0    0 -0.14210854715E-13  0.00000000000E+00  0.41053350741E+03  0.62325661847E+03  0.46894674726E+03 0.  0.
      99925    2    3    3    0    0 -0.96860326201E+02  0.17111391791E+01  0.36125465640E+03  0.45754372203E+03  0.26354597324E+03 0.  0.
         25    1    3    3    0    0  0.96860326201E+02 -0.17111391791E+01  0.49278851010E+02  0.16571289644E+03  0.12509000000E+03 0.  0.
         25    1    4    4    0    0 -0.92061195720E+02  0.23607054319E+01  0.19002644150E+03  0.24543511007E+03  0.12509000000E+03 0.  0.
         25    1    4    4    0    0 -0.47991304811E+01 -0.64956625279E+00  0.17122821490E+03  0.21210861196E+03  0.12509000000E+03 0.  0.
<mgrwt>
<rscale>  2 0.46894675E+03</rscale>
<asrwt>0</asrwt>
<pdfrwt beam="1">  1       21 0.76013978E-01 0.46894675E+03</pdfrwt>
<pdfrwt beam="2">  1       21 0.15641406E-01 0.46894675E+03</pdfrwt>
<totfact> 0.51373266E+04</totfact>
</mgrwt>
</event>
<event>
 7    0  0.4779893E-002  0.4408774E+03  0.7546771E-02  0.1030478E+00
         21   -1    0    0  502  501  0.00000000000E+00  0.00000000000E+00  0.99340117918E+02  0.99340117918E+02  0.00000000000E+00 0. -1.
         21   -1    0    0  501  502 -0.00000000000E+00 -0.00000000000E+00 -0.48916004206E+03  0.48916004206E+03  0.00000000000E+00 0. -1.
      99926    2    1    2    0    0 -0.35527136788E-14 -0.71054273576E-14 -0.38981992415E+03  0.58850015998E+03  0.44087738096E+03 0.  0.
      99925    2    3    3    0    0  0.16021942089E+02 -0.48897585612E+02 -0.13522113939E+03  0.30020217906E+03  0.26303785900E+03 0.  0.
         25    1    4    4    0    0  0.36973458488E+02 -0.45248562291E+02 -0.93044785076E+02  0.16649116839E+03  0.12509000000E+03 0.  0.
         25    1    4    4    0    0 -0.20951516400E+02 -0.36490233202E+01 -0.42176354317E+02  0.13371101067E+03  0.12509000000E+03 0.  0.
         25    1    3    3    0    0 -0.16021942089E+02  0.48897585612E+02 -0.25459878475E+03  0.28829798092E+03  0.12509000000E+03 0.  0.
<mgrwt>
<rscale>  2 0.44087738E+03</rscale>
<asrwt>0</asrwt>
<pdfrwt beam="1">  1       21 0.14608841E-01 0.44087738E+03</pdfrwt>
<pdfrwt beam="2">  1       21 0.71935299E-01 0.44087738E+03</pdfrwt>
<totfact> 0.66510336E+04</totfact>
</mgrwt>
</event>
<event>
 7    0  0.4779893E-002  0.4552233E+03  0.7546771E-02  0.1026176E+00
         21   -1    0    0  502  501  0.00000000000E+00  0.00000000000E+00  0.41735302169E+02  0.41735302169E+02  0.00000000000E+00 0. -1.
         21   -1    0    0  501  502 -0.00000000000E+00 -0.00000000000E+00 -0.12413247799E+04  0.12413247799E+04  0.00000000000E+00 0. -1.
      99926    2    1    2    0    0  0.11102230246E-15  0.00000000000E+00 -0.11995894777E+04  0.12830600820E+04  0.45522330686E+03 0.  0.
      99925    2    3    3    0    0 -0.90921670294E+00  0.62255396543E+02 -0.48855524383E+03  0.55842655334E+03  0.26320605641E+03 0.  0.
         25    1    3    3    0    0  0.90921670294E+00 -0.62255396543E+02 -0.71103423385E+03  0.72463352868E+03  0.12509000000E+03 0.  0.
         25    1    4    4    0    0  0.75228641088E+00  0.11960754552E+02 -0.31138539520E+03  0.33578564298E+03  0.12509000000E+03 0.  0.
         25    1    4    4    0    0 -0.16615031138E+01  0.50294641990E+02 -0.17716984863E+03  0.22264091037E+03  0.12509000000E+03 0.  0.
<mgrwt>
<rscale>  2 0.45522331E+03</rscale>
<asrwt>0</asrwt>
<pdfrwt beam="1">  1       21 0.61375464E-02 0.45522331E+03</pdfrwt>
<pdfrwt beam="2">  1       21 0.18254770E+00 0.45522331E+03</pdfrwt>
<totfact> 0.29559395E+04</totfact>
</mgrwt>
</event>
<event>
 7    0  0.4779893E-002  0.4685130E+03  0.7546771E-02  0.1022341E+00
         21   -1    0    0  502  501  0.00000000000E+00  0.00000000000E+00  0.42089187336E+02  0.42089187336E+02  0.00000000000E+00 0. -1.
         21   -1    0    0  501  502 -0.00000000000E+00 -0.00000000000E+00 -0.13038055375E+04  0.13038055375E+04  0.00000000000E+00 0. -1.
      99926    2    1    2    0    0  0.00000000000E+00  0.00000000000E+00 -0.12617163502E+04  0.13458947249E+04  0.46851303298E+03 0.  0.
      99925    2    3    3    0    0 -0.11698176596E+03  0.41468227093E+02 -0.83735286361E+03  0.88639910544E+03  0.26294335608E+03 0.  0.
         25    1    3    3    0    0  0.11698176596E+03 -0.41468227093E+02 -0.42436348658E+03  0.45949561942E+03  0.12509000000E+03 0.  0.
         25    1    4    4    0    0 -0.86080103470E+02  0.20328165329E+02 -0.35417464044E+03  0.38588884740E+03  0.12509000000E+03 0.  0.
         25    1    4    4    0    0 -0.30901662488E+02  0.21140061764E+02 -0.48317822317E+03  0.50051025804E+03  0.12509000000E+03 0.  0.
<mgrwt>
<rscale>  2 0.46851303E+03</rscale>
<asrwt>0</asrwt>
<pdfrwt beam="1">  1       21 0.61895859E-02 0.46851303E+03</pdfrwt>
<pdfrwt beam="2">  1       21 0.19173612E+00 0.46851303E+03</pdfrwt>
<totfact> 0.25070958E+04</totfact>
</mgrwt>
</event>
<event>
 7    0  0.4779893E-002  0.4574389E+03  0.7546771E-02  0.1025527E+00
         21   -1    0    0  502  501  0.00000000000E+00  0.00000000000E+00  0.59914314044E+03  0.59914314044E+03  0.00000000000E+00 0.  1.
         21   -1    0    0  501  502 -0.00000000000E+00 -0.00000000000E+00 -0.87312321991E+02  0.87312321991E+02  0.00000000000E+00 0.  1.
      99926    2    1    2    0    0  0.00000000000E+00  0.00000000000E+00  0.51183081845E+03  0.68645546243E+03  0.45743886497E+03 0.  0.
      99925    2    3    3    0    0  0.52160124885E+02 -0.45589736592E+02  0.45943747123E+03  0.53416733537E+03  0.26353908533E+03 0.  0.
         25    1    4    4    0    0  0.22149400327E+01 -0.53714925508E+02  0.25779338758E+03  0.29153925630E+03  0.12509000000E+03 0.  0.
         25    1    4    4    0    0  0.49945184853E+02  0.81251889161E+01  0.20164408365E+03  0.24262807908E+03  0.12509000000E+03 0.  0.
         25    1    3    3    0    0 -0.52160124885E+02  0.45589736592E+02  0.52393347221E+02  0.15228812706E+03  0.12509000000E+03 0.  0.
<mgrwt>
<rscale>  2 0.45743886E+03</rscale>
<asrwt>0</asrwt>
<pdfrwt beam="1">  1       21 0.88109283E-01 0.45743886E+03</pdfrwt>
<pdfrwt beam="2">  1       21 0.12840048E-01 0.45743886E+03</pdfrwt>
<totfact> 0.52626934E+04</totfact>
</mgrwt>
</event>
<event>
 7    0  0.4779893E-002  0.4532900E+03  0.7546771E-02  0.1026745E+00
         21   -1    0    0  502  501  0.00000000000E+00  0.00000000000E+00  0.51638166218E+02  0.51638166218E+02  0.00000000000E+00 0. -1.
         21   -1    0    0  501  502 -0.00000000000E+00 -0.00000000000E+00 -0.99476703193E+03  0.99476703193E+03  0.00000000000E+00 0. -1.
      99926    2    1    2    0    0 -0.17763568394E-14  0.00000000000E+00 -0.94312886571E+03  0.10464051982E+04  0.45328995287E+03 0.  0.
      99925    2    3    3    0    0 -0.11772202479E+02  0.11112143871E+03 -0.59815694132E+03  0.66281727392E+03  0.26277072377E+03 0.  0.
         25    1    4    4    0    0  0.12350503904E+02  0.91934624096E+02 -0.29982612666E+03  0.33785755043E+03  0.12509000000E+03 0.  0.
         25    1    4    4    0    0 -0.24122706383E+02  0.19186814610E+02 -0.29833081466E+03  0.32495972349E+03  0.12509000000E+03 0.  0.
         25    1    3    3    0    0  0.11772202479E+02 -0.11112143871E+03 -0.34497192440E+03  0.38358792423E+03  0.12509000000E+03 0.  0.
<mgrwt>
<rscale>  2 0.45328995E+03</rscale>
<asrwt>0</asrwt>
<pdfrwt beam="1">  1       21 0.75938477E-02 0.45328995E+03</pdfrwt>
<pdfrwt beam="2">  1       21 0.14628927E+00 0.45328995E+03</pdfrwt>
<totfact> 0.37913101E+04</totfact>
</mgrwt>
</event>
<event>
 7    0  0.4779893E-002  0.4506598E+03  0.7546771E-02  0.1027525E+00
         21   -1    0    0  502  501  0.00000000000E+00  0.00000000000E+00  0.33071208704E+02  0.33071208704E+02  0.00000000000E+00 0.  1.
         21   -1    0    0  501  502 -0.00000000000E+00 -0.00000000000E+00 -0.15352799671E+04  0.15352799671E+04  0.00000000000E+00 0.  1.
      99926    2    1    2    0    0  0.00000000000E+00  0.00000000000E+00 -0.15022087584E+04  0.15683511759E+04  0.45065980168E+03 0.  0.
      99925    2    3    3    0    0 -0.76872285248E+02  0.71396111190E+02 -0.84571062403E+03  0.89185722797E+03  0.26301350260E+03 0.  0.
         25    1    4    4    0    0 -0.79068316559E+02  0.36404956322E+02 -0.49093192995E+03  0.51404162037E+03  0.12509000000E+03 0.  0.
         25    1    3    3    0    0  0.76872285248E+02 -0.71396111190E+02 -0.65649813441E+03  0.67649394788E+03  0.12509000000E+03 0.  0.
         25    1    4    4    0    0  0.21960313118E+01  0.34991154868E+02 -0.35477869408E+03  0.37781560760E+03  0.12509000000E+03 0.  0.
<mgrwt>
<rscale>  2 0.45065980E+03</rscale>
<asrwt>0</asrwt>
<pdfrwt beam="1">  1       21 0.48634145E-02 0.45065980E+03</pdfrwt>
<pdfrwt beam="2">  1       21 0.22577640E+00 0.45065980E+03</pdfrwt>
<totfact> 0.22915307E+04</totfact>
</mgrwt>
</event>
<event>
 7    0  0.4779893E-002  0.4696000E+03  0.7546771E-02  0.1022033E+00
         21   -1    0    0  502  501  0.00000000000E+00  0.00000000000E+00  0.21694989877E+02  0.21694989877E+02  0.00000000000E+00 0.  1.
         21   -1    0    0  501  502 -0.00000000000E+00 -0.00000000000E+00 -0.25411872787E+04  0.25411872787E+04  0.00000000000E+00 0.  1.
      99926    2    1    2    0    0  0.00000000000E+00  0.71054273576E-14 -0.25194922888E+04  0.25628822685E+04  0.46959996714E+03 0.  0.
      99925    2    3    3    0    0  0.10106773030E+03 -0.51688746506E+02 -0.18691549485E+04  0.18909651778E+04  0.26291190414E+03 0.  0.
         25    1    4    4    0    0  0.81348457569E+02 -0.41270170499E+02 -0.11897667040E+04  0.11997971148E+04  0.12509000000E+03 0.  0.
         25    1    3    3    0    0 -0.10106773030E+03  0.51688746506E+02 -0.65033734027E+03  0.67191709078E+03  0.12509000000E+03 0.  0.
         25    1    4    4    0    0  0.19719272733E+02 -0.10418576007E+02 -0.67938824450E+03  0.69116806300E+03  0.12509000000E+03 0.  0.
<mgrwt>
<rscale>  2 0.46959997E+03</rscale>
<asrwt>0</asrwt>
<pdfrwt beam="1">  1       21 0.31904396E-02 0.46959997E+03</pdfrwt>
<pdfrwt beam="2">  1       21 0.37370403E+00 0.46959997E+03</pdfrwt>
<totfact> 0.58203474E+03</totfact>
</mgrwt>
</event>
<event>
 7    0  0.4779893E-002  0.4600405E+03  0.7546771E-02  0.1024769E+00
         21   -1    0    0  502  501  0.00000000000E+00  0.00000000000E+00  0.94174451913E+02  0.94174451913E+02  0.00000000000E+00 0.  1.
         21   -1    0    0  501  502 -0.00000000000E+00 -0.00000000000E+00 -0.56182247612E+03  0.56182247612E+03  0.00000000000E+00 0.  1.
      99926    2    1    2    0    0  0.14210854715E-13  0.00000000000E+00 -0.46764802421E+03  0.65599692804E+03  0.46004053631E+03 0.  0.
      99925    2    3    3    0    0  0.96260752908E+02 -0.65321105538E+02 -0.26867300476E+03  0.39375363290E+03  0.26329405720E+03 0.  0.
         25    1    4    4    0    0  0.22500950231E+02 -0.33260576822E+02 -0.17177775660E+03  0.21625832815E+03  0.12509000000E+03 0.  0.
         25    1    4    4    0    0  0.73759802677E+02 -0.32060528716E+02 -0.96895248162E+02  0.17749530475E+03  0.12509000000E+03 0.  0.
         25    1    3    3    0    0 -0.96260752908E+02  0.65321105538E+02 -0.19897501945E+03  0.26224329514E+03  0.12509000000E+03 0.  0.
<mgrwt>
<rscale>  2 0.46004054E+03</rscale>
<asrwt>0</asrwt>
<pdfrwt beam="1">  1       21 0.13849184E-01 0.46004054E+03</pdfrwt>
<pdfrwt beam="2">  1       21 0.82620951E-01 0.46004054E+03</pdfrwt>
<totfact> 0.53210012E+04</totfact>
</mgrwt>
</event>
<event>
 7    0  0.4779893E-002  0.4523011E+03  0.7546771E-02  0.1027038E+00
         21   -1    0    0  502  501  0.00000000000E+00  0.00000000000E+00  0.51197723634E+02  0.51197723634E+02  0.00000000000E+00 0. -1.
         21   -1    0    0  501  502 -0.00000000000E+00 -0.00000000000E+00 -0.99895207515E+03  0.99895207515E+03  0.00000000000E+00 0. -1.
      99926    2    1    2    0    0  0.00000000000E+00 -0.17763568394E-14 -0.94775435151E+03  0.10501497988E+04  0.45230110443E+03 0.  0.
      99925    2    3    3    0    0  0.10822655481E+03 -0.90881443152E+01 -0.54943919170E+03  0.61875895955E+03  0.26302783715E+03 0.  0.
         25    1    3    3    0    0 -0.10822655481E+03  0.90881443152E+01 -0.39831515982E+03  0.43139083923E+03  0.12509000000E+03 0.  0.
         25    1    4    4    0    0  0.56379352431E+02 -0.34015455282E+02 -0.33884828695E+03  0.36715303654E+03  0.12509000000E+03 0.  0.
         25    1    4    4    0    0  0.51847202384E+02  0.24927310967E+02 -0.21059090475E+03  0.25160592301E+03  0.12509000000E+03 0.  0.
<mgrwt>
<rscale>  2 0.45230110E+03</rscale>
<asrwt>0</asrwt>
<pdfrwt beam="1">  1       21 0.75290783E-02 0.45230110E+03</pdfrwt>
<pdfrwt beam="2">  1       21 0.14690469E+00 0.45230110E+03</pdfrwt>
<totfact> 0.38067503E+04</totfact>
</mgrwt>
</event>
<event>
 7    0  0.4779893E-002  0.4524312E+03  0.7546771E-02  0.1027000E+00
         21   -1    0    0  502  501  0.00000000000E+00  0.00000000000E+00  0.24304710524E+03  0.24304710524E+03  0.00000000000E+00 0. -1.
         21   -1    0    0  501  502 -0.00000000000E+00 -0.00000000000E+00 -0.21054967346E+03  0.21054967346E+03  0.00000000000E+00 0. -1.
      99926    2    1    2    0    0  0.00000000000E+00  0.00000000000E+00  0.32497431778E+02  0.45359677870E+03  0.45243116004E+03 0.  0.
      99925    2    3    3    0    0  0.74476528287E+02  0.53299363737E+02 -0.41886134207E+02  0.28164330118E+03  0.26302267093E+03 0.  0.
         25    1    4    4    0    0  0.24807108305E+02  0.50807843826E+02  0.93881375458E+01  0.13759533002E+03  0.12509000000E+03 0.  0.
         25    1    4    4    0    0  0.49669419982E+02  0.24915199112E+01 -0.51274271753E+02  0.14404797116E+03  0.12509000000E+03 0.  0.
         25    1    3    3    0    0 -0.74476528287E+02 -0.53299363737E+02  0.74383565984E+02  0.17195347751E+03  0.12509000000E+03 0.  0.
<mgrwt>
<rscale>  2 0.45243116E+03</rscale>
<asrwt>0</asrwt>
<pdfrwt beam="1">  1       21 0.35742222E-01 0.45243116E+03</pdfrwt>
<pdfrwt beam="2">  1       21 0.30963187E-01 0.45243116E+03</pdfrwt>
<totfact> 0.70074020E+04</totfact>
</mgrwt>
</event>
<event>
 7    0  0.4779893E-002  0.4470661E+03  0.7546771E-02  0.1028601E+00
         21   -1    0    0  502  501  0.00000000000E+00  0.00000000000E+00  0.60374217761E+02  0.60374217761E+02  0.00000000000E+00 0.  1.
         21   -1    0    0  501  502 -0.00000000000E+00 -0.00000000000E+00 -0.82762182799E+03  0.82762182799E+03  0.00000000000E+00 0.  1.
      99926    2    1    2    0    0  0.00000000000E+00  0.00000000000E+00 -0.76724761023E+03  0.88799604575E+03  0.44706608221E+03 0.  0.
      99925    2    3    3    0    0 -0.10141969586E+03 -0.20718199011E+02 -0.52764545498E+03  0.59856228929E+03  0.26296746856E+03 0.  0.
         25    1    4    4    0    0 -0.25380818930E+02 -0.15096832803E+02 -0.31622525711E+03  0.34134736218E+03  0.12509000000E+03 0.  0.
         25    1    3    3    0    0  0.10141969586E+03  0.20718199011E+02 -0.23960215525E+03  0.28943375646E+03  0.12509000000E+03 0.  0.
         25    1    4    4    0    0 -0.76038876931E+02 -0.56213662081E+01 -0.21142019787E+03  0.25721492711E+03  0.12509000000E+03 0.  0.
<mgrwt>
<rscale>  2 0.44706608E+03</rscale>
<asrwt>0</asrwt>
<pdfrwt beam="1">  1       21 0.88785619E-02 0.44706608E+03</pdfrwt>
<pdfrwt beam="2">  1       21 0.12170909E+00 0.44706608E+03</pdfrwt>
<totfact> 0.46584146E+04</totfact>
</mgrwt>
</event>
<event>
 7    0  0.4779893E-002  0.4572115E+03  0.7546771E-02  0.1025593E+00
         21   -1    0    0  502  501  0.00000000000E+00  0.00000000000E+00  0.29241670170E+03  0.29241670170E+03  0.00000000000E+00 0. -1.
         21   -1    0    0  501  502 -0.00000000000E+00 -0.00000000000E+00 -0.17871957397E+03  0.17871957397E+03  0.00000000000E+00 0. -1.
      99926    2    1    2    0    0  0.14210854715E-13  0.00000000000E+00  0.11369712772E+03  0.47113627567E+03  0.45721149745E+03 0.  0.
      99925    2    3    3    0    0 -0.79214467692E+02  0.24440670219E+02 -0.11062808267E+02  0.27598293088E+03  0.26300554017E+03 0.  0.
         25    1    3    3    0    0  0.79214467692E+02 -0.24440670219E+02  0.12475993599E+03  0.19515334479E+03  0.12509000000E+03 0.  0.
         25    1    4    4    0    0 -0.59001446875E+02  0.48924212120E+02 -0.60491105313E+01  0.14682931963E+03  0.12509000000E+03 0.  0.
         25    1    4    4    0    0 -0.20213020817E+02 -0.24483541901E+02 -0.50136977354E+01  0.12915361125E+03  0.12509000000E+03 0.  0.
<mgrwt>
<rscale>  2 0.45721150E+03</rscale>
<asrwt>0</asrwt>
<pdfrwt beam="1">  1       21 0.43002456E-01 0.45721150E+03</pdfrwt>
<pdfrwt beam="2">  1       21 0.26282290E-01 0.45721150E+03</pdfrwt>
<totfact> 0.66182604E+04</totfact>
</mgrwt>
</event>
<event>
 7    0  0.4779893E-002  0.4576058E+03  0.7546771E-02  0.1025478E+00
         21   -1    0    0  502  501  0.00000000000E+00  0.00000000000E+00  0.29657145260E+03  0.29657145260E+03  0.00000000000E+00 0. -1.
         21   -1    0    0  501  502 -0.00000000000E+00 -0.00000000000E+00 -0.17651995128E+03  0.17651995128E+03  0.00000000000E+00 0. -1.
      99926    2    1    2    0    0  0.00000000000E+00  0.00000000000E+00  0.12005150132E+03  0.47309140387E+03  0.45760584945E+03 0.  0.
      99925    2    3    3    0    0  0.98080817109E+02 -0.39560931994E+02  0.12395357688E+03  0.30923888385E+03  0.26282938199E+03 0.  0.
         25    1    4    4    0    0  0.40723199729E+02  0.20525350838E+02  0.59322894114E+02  0.14576139026E+03  0.12509000000E+03 0.  0.
         25    1    3    3    0    0 -0.98080817109E+02  0.39560931994E+02 -0.39020755630E+01  0.16385252003E+03  0.12509000000E+03 0.  0.
         25    1    4    4    0    0  0.57357617379E+02 -0.60086282833E+02  0.64630682770E+02  0.16347749359E+03  0.12509000000E+03 0.  0.
<mgrwt>
<rscale>  2 0.45760585E+03</rscale>
<asrwt>0</asrwt>
<pdfrwt beam="1">  1       21 0.43613449E-01 0.45760585E+03</pdfrwt>
<pdfrwt beam="2">  1       21 0.25958816E-01 0.45760585E+03</pdfrwt>
<totfact> 0.65834900E+04</totfact>
</mgrwt>
</event>
<event>
 7    0  0.4779893E-002  0.4389271E+03  0.7546771E-02  0.1031077E+00
         21   -1    0    0  502  501  0.00000000000E+00  0.00000000000E+00  0.26631453132E+02  0.26631453132E+02  0.00000000000E+00 0. -1.
         21   -1    0    0  501  502 -0.00000000000E+00 -0.00000000000E+00 -0.18085471742E+04  0.18085471742E+04  0.00000000000E+00 0. -1.
      99926    2    1    2    0    0  0.00000000000E+00  0.00000000000E+00 -0.17819157211E+04  0.18351786273E+04  0.43892705228E+03 0.  0.
      99925    2    3    3    0    0  0.20267087147E+02  0.94199091382E+02 -0.10755871107E+04  0.11114163476E+04  0.26282016926E+03 0.  0.
         25    1    4    4    0    0  0.19921267482E+02  0.29831662133E+02 -0.65874033337E+03  0.67147086301E+03  0.12509000000E+03 0.  0.
         25    1    3    3    0    0 -0.20267087147E+02 -0.94199091382E+02 -0.70632861040E+03  0.72376227976E+03  0.12509000000E+03 0.  0.
         25    1    4    4    0    0  0.34581966542E+00  0.64367429249E+02 -0.41684677730E+03  0.43994548456E+03  0.12509000000E+03 0.  0.
<mgrwt>
<rscale>  2 0.43892705E+03</rscale>
<asrwt>0</asrwt>
<pdfrwt beam="1">  1       21 0.39163897E-02 0.43892705E+03</pdfrwt>
<pdfrwt beam="2">  1       21 0.26596285E+00 0.43892705E+03</pdfrwt>
<totfact> 0.18835162E+04</totfact>
</mgrwt>
</event>
<event>
 7    0  0.4779893E-002  0.4582451E+03  0.7546771E-02  0.1025291E+00
         21   -1    0    0  502  501  0.00000000000E+00  0.00000000000E+00  0.13215066724E+04  0.13215066724E+04  0.00000000000E+00 0. -1.
         21   -1    0    0  501  502 -0.00000000000E+00 -0.00000000000E+00 -0.39725221007E+02  0.39725221007E+02  0.00000000000E+00 0. -1.
      99926    2    1    2    0    0  0.00000000000E+00  0.00000000000E+00  0.12817814514E+04  0.13612318934E+04  0.45824510744E+03 0.  0.
      99925    2    3    3    0    0 -0.32403337561E+02 -0.92574347564E+02  0.98974932610E+03  0.10287409064E+04  0.26283861579E+03 0.  0.
         25    1    4    4    0    0  0.71922267360E+01 -0.79074980477E+02  0.49347400081E+03  0.51523652650E+03  0.12509000000E+03 0.  0.
         25    1    3    3    0    0  0.32403337561E+02  0.92574347564E+02  0.29203212527E+03  0.33249098695E+03  0.12509000000E+03 0.  0.
         25    1    4    4    0    0 -0.39595564297E+02 -0.13499367086E+02  0.49627532529E+03  0.51350437994E+03  0.12509000000E+03 0.  0.
<mgrwt>
<rscale>  2 0.45824511E+03</rscale>
<asrwt>0</asrwt>
<pdfrwt beam="1">  1       21 0.19433919E+00 0.45824511E+03</pdfrwt>
<pdfrwt beam="2">  1       21 0.58419451E-02 0.45824511E+03</pdfrwt>
<totfact> 0.26703745E+04</totfact>
</mgrwt>
</event>
<event>
 7    0  0.4779893E-002  0.4530056E+03  0.7546771E-02  0.1026830E+00
         21   -1    0    0  502  501  0.00000000000E+00  0.00000000000E+00  0.71639671650E+02  0.71639671650E+02  0.00000000000E+00 0.  1.
         21   -1    0    0  501  502 -0.00000000000E+00 -0.00000000000E+00 -0.71613265592E+03  0.71613265592E+03  0.00000000000E+00 0.  1.
      99926    2    1    2    0    0  0.35527136788E-14  0.00000000000E+00 -0.64449298427E+03  0.78777232757E+03  0.45300555550E+03 0.  0.
      99925    2    3    3    0    0 -0.25030879096E+02 -0.10483733560E+03 -0.35361537776E+03  0.45329556917E+03  0.26232732567E+03 0.  0.
         25    1    4    4    0    0 -0.23093253617E+01 -0.59446934691E+02 -0.11899819720E+03  0.18261256820E+03  0.12509000000E+03 0.  0.
         25    1    3    3    0    0  0.25030879096E+02  0.10483733560E+03 -0.29087760651E+03  0.33447675840E+03  0.12509000000E+03 0.  0.
         25    1    4    4    0    0 -0.22721553735E+02 -0.45390400904E+02 -0.23461718056E+03  0.27068300097E+03  0.12509000000E+03 0.  0.
<mgrwt>
<rscale>  2 0.45300556E+03</rscale>
<asrwt>0</asrwt>
<pdfrwt beam="1">  1       21 0.10535246E-01 0.45300556E+03</pdfrwt>
<pdfrwt beam="2">  1       21 0.10531363E+00 0.45300556E+03</pdfrwt>
<totfact> 0.49126465E+04</totfact>
</mgrwt>
</event>
<event>
 7    0  0.4779893E-002  0.4753315E+03  0.7546771E-02  0.1020426E+00
         21   -1    0    0  502  501  0.00000000000E+00  0.00000000000E+00  0.34640995342E+03  0.34640995342E+03  0.00000000000E+00 0.  1.
         21   -1    0    0  501  502 -0.00000000000E+00 -0.00000000000E+00 -0.16305828130E+03  0.16305828130E+03  0.00000000000E+00 0.  1.
      99926    2    1    2    0    0  0.35527136788E-14 -0.14210854715E-13  0.18335167212E+03  0.50946823472E+03  0.47533151223E+03 0.  0.
      99925    2    3    3    0    0  0.31013025833E+02 -0.99840850690E+02  0.19853427954E+03  0.34573667727E+03  0.26303609376E+03 0.  0.
         25    1    3    3    0    0 -0.31013025833E+02  0.99840850690E+02 -0.15182607420E+02  0.16373155745E+03  0.12509000000E+03 0.  0.
         25    1    4    4    0    0  0.16035738297E+02 -0.86717762689E+02  0.82068289112E+02  0.17366584997E+03  0.12509000000E+03 0.  0.
         25    1    4    4    0    0  0.14977287536E+02 -0.13123088001E+02  0.11646599043E+03  0.17207082730E+03  0.12509000000E+03 0.  0.
<mgrwt>
<rscale>  2 0.47533151E+03</rscale>
<asrwt>0</asrwt>
<pdfrwt beam="1">  1       21 0.50942640E-01 0.47533151E+03</pdfrwt>
<pdfrwt beam="2">  1       21 0.23979159E-01 0.47533151E+03</pdfrwt>
<totfact> 0.55156439E+04</totfact>
</mgrwt>
</event>
<event>
 7    0  0.4779893E-002  0.4555003E+03  0.7546771E-02  0.1026094E+00
         21   -1    0    0  502  501  0.00000000000E+00  0.00000000000E+00  0.27268447339E+03  0.27268447339E+03  0.00000000000E+00 0. -1.
         21   -1    0    0  501  502 -0.00000000000E+00 -0.00000000000E+00 -0.19022031558E+03  0.19022031558E+03  0.00000000000E+00 0. -1.
      99926    2    1    2    0    0  0.00000000000E+00  0.88817841970E-15  0.82464157816E+02  0.46290478897E+03  0.45550028137E+03 0.  0.
      99925    2    3    3    0    0 -0.49875382618E+02 -0.57851135854E+01  0.15544525052E+03  0.30962475334E+03  0.26302707207E+03 0.  0.
         25    1    4    4    0    0 -0.60578688152E+02  0.17460482772E+02  0.79606357185E+02  0.16111898126E+03  0.12509000000E+03 0.  0.
         25    1    4    4    0    0  0.10703305534E+02 -0.23245596357E+02  0.75838893340E+02  0.14850577208E+03  0.12509000000E+03 0.  0.
         25    1    3    3    0    0  0.49875382618E+02  0.57851135854E+01 -0.72981092708E+02  0.15328003563E+03  0.12509000000E+03 0.  0.
<mgrwt>
<rscale>  2 0.45550028E+03</rscale>
<asrwt>0</asrwt>
<pdfrwt beam="1">  1       21 0.40100658E-01 0.45550028E+03</pdfrwt>
<pdfrwt beam="2">  1       21 0.27973576E-01 0.45550028E+03</pdfrwt>
<totfact> 0.67696319E+04</totfact>
</mgrwt>
</event>
<event>
 7    0  0.4779893E-002  0.4558895E+03  0.7546771E-02  0.1025980E+00
         21   -1    0    0  502  501  0.00000000000E+00  0.00000000000E+00  0.52242296045E+03  0.52242296045E+03  0.00000000000E+00 0. -1.
         21   -1    0    0  501  502 -0.00000000000E+00 -0.00000000000E+00 -0.99457380114E+02  0.99457380114E+02  0.00000000000E+00 0. -1.
      99926    2    1    2    0    0  0.00000000000E+00  0.00000000000E+00  0.42296558034E+03  0.62188034057E+03  0.45588954346E+03 0.  0.
      99925    2    3    3    0    0  0.23253148304E+02  0.88955672563E+02  0.35795732949E+03  0.45357287976E+03  0.26294692796E+03 0.  0.
         25    1    3    3    0    0 -0.23253148304E+02 -0.88955672563E+02  0.65008250846E+02  0.16830746081E+03  0.12509000000E+03 0.  0.
         25    1    4    4    0    0  0.19524312569E+02  0.30821963960E+01  0.15563951597E+03  0.20065359640E+03  0.12509000000E+03 0.  0.
         25    1    4    4    0    0  0.37288357351E+01  0.85873476167E+02  0.20231781352E+03  0.25291928336E+03  0.12509000000E+03 0.  0.
<mgrwt>
<rscale>  2 0.45588954E+03</rscale>
<asrwt>0</asrwt>
<pdfrwt beam="1">  1       21 0.76826905E-01 0.45588954E+03</pdfrwt>
<pdfrwt beam="2">  1       21 0.14626086E-01 0.45588954E+03</pdfrwt>
<totfact> 0.56950221E+04</totfact>
</mgrwt>
</event>
<event>
 7    0  0.4779893E-002  0.4522709E+03  0.7546771E-02  0.1027047E+00
         21   -1    0    0  502  501  0.00000000000E+00  0.00000000000E+00  0.46683251492E+03  0.46683251492E+03  0.00000000000E+00 0.  1.
         21   -1    0    0  501  502 -0.00000000000E+00 -0.00000000000E+00 -0.10954086470E+03  0.10954086470E+03  0.00000000000E+00 0.  1.
      99926    2    1    2    0    0  0.00000000000E+00  0.00000000000E+00  0.35729165021E+03  0.57637337962E+03  0.45227088058E+03 0.  0.
      99925    2    3    3    0    0 -0.34552603180E+02 -0.91145290750E+02  0.15886833892E+03  0.32236419676E+03  0.26301745156E+03 0.  0.
         25    1    4    4    0    0  0.49629237649E+01 -0.36758369229E+02  0.11448346916E+03  0.17357932230E+03  0.12509000000E+03 0.  0.
         25    1    3    3    0    0  0.34552603180E+02  0.91145290750E+02  0.19842331129E+03  0.25400918286E+03  0.12509000000E+03 0.  0.
         25    1    4    4    0    0 -0.39515526945E+02 -0.54386921521E+02  0.44384869765E+02  0.14878487445E+03  0.12509000000E+03 0.  0.
<mgrwt>
<rscale>  2 0.45227088E+03</rscale>
<asrwt>0</asrwt>
<pdfrwt beam="1">  1       21 0.68651839E-01 0.45227088E+03</pdfrwt>
<pdfrwt beam="2">  1       21 0.16108951E-01 0.45227088E+03</pdfrwt>
<totfact> 0.61472361E+04</totfact>
</mgrwt>
</event>
<event>
 7    0  0.4779893E-002  0.4527570E+03  0.7546771E-02  0.1026903E+00
         21   -1    0    0  502  501  0.00000000000E+00  0.00000000000E+00  0.18917560304E+03  0.18917560304E+03  0.00000000000E+00 0. -1.
         21   -1    0    0  501  502 -0.00000000000E+00 -0.00000000000E+00 -0.27089758996E+03  0.27089758996E+03  0.00000000000E+00 0. -1.
      99926    2    1    2    0    0 -0.71054273576E-14 -0.71054273576E-14 -0.81721986925E+02  0.46007319300E+03  0.45275695442E+03 0.  0.
      99925    2    3    3    0    0  0.55735844250E+02  0.46326330391E+02 -0.13701012592E+03  0.30529302749E+03  0.26301985631E+03 0.  0.
         25    1    3    3    0    0 -0.55735844250E+02 -0.46326330391E+02  0.55288138992E+02  0.15478016551E+03  0.12509000000E+03 0.  0.
         25    1    4    4    0    0  0.37956407080E+02  0.63335346625E+02 -0.69310740549E+02  0.16094577294E+03  0.12509000000E+03 0.  0.
         25    1    4    4    0    0  0.17779437170E+02 -0.17009016234E+02 -0.67699385368E+02  0.14434725456E+03  0.12509000000E+03 0.  0.
<mgrwt>
<rscale>  2 0.45275695E+03</rscale>
<asrwt>0</asrwt>
<pdfrwt beam="1">  1       21 0.27819942E-01 0.45275695E+03</pdfrwt>
<pdfrwt beam="2">  1       21 0.39837881E-01 0.45275695E+03</pdfrwt>
<totfact> 0.69406760E+04</totfact>
</mgrwt>
</event>
<event>
 7    0  0.4779893E-002  0.4560436E+03  0.7546771E-02  0.1025935E+00
         21   -1    0    0  502  501  0.00000000000E+00  0.00000000000E+00  0.67140777930E+02  0.67140777930E+02  0.00000000000E+00 0.  1.
         21   -1    0    0  501  502 -0.00000000000E+00 -0.00000000000E+00 -0.77440175778E+03  0.77440175778E+03  0.00000000000E+00 0.  1.
      99926    2    1    2    0    0  0.17763568394E-14  0.17763568394E-14 -0.70726097985E+03  0.84154253571E+03  0.45604357883E+03 0.  0.
      99925    2    3    3    0    0 -0.12498304282E+02 -0.15121412446E+02 -0.65201665900E+03  0.70339657011E+03  0.26316562562E+03 0.  0.
         25    1    4    4    0    0 -0.51328525606E+01  0.30832382354E+02 -0.35778951107E+03  0.38031279798E+03  0.12509000000E+03 0.  0.
         25    1    3    3    0    0  0.12498304282E+02  0.15121412446E+02 -0.55244320849E+02  0.13814596560E+03  0.12509000000E+03 0.  0.
         25    1    4    4    0    0 -0.73654517212E+01 -0.45953794800E+02 -0.29422714793E+03  0.32308377213E+03  0.12509000000E+03 0.  0.
<mgrwt>
<rscale>  2 0.45604358E+03</rscale>
<asrwt>0</asrwt>
<pdfrwt beam="1">  1       21 0.98736430E-02 0.45604358E+03</pdfrwt>
<pdfrwt beam="2">  1       21 0.11388262E+00 0.45604358E+03</pdfrwt>
<totfact> 0.45446884E+04</totfact>
</mgrwt>
</event>
<event>
 7    0  0.4779893E-002  0.4511674E+03  0.7546771E-02  0.1027374E+00
         21   -1    0    0  502  501  0.00000000000E+00  0.00000000000E+00  0.64010363940E+02  0.64010363940E+02  0.00000000000E+00 0.  1.
         21   -1    0    0  501  502 -0.00000000000E+00 -0.00000000000E+00 -0.79499620320E+03  0.79499620320E+03  0.00000000000E+00 0.  1.
      99926    2    1    2    0    0  0.00000000000E+00  0.00000000000E+00 -0.73098583926E+03  0.85900656714E+03  0.45116735830E+03 0.  0.
      99925    2    3    3    0    0 -0.44280360410E+02  0.45634538923E+02 -0.28917137600E+03  0.39544342203E+03  0.26213003236E+03 0.  0.
         25    1    4    4    0    0 -0.28293152426E+02  0.71218527696E+00 -0.18828563536E+03  0.22781571119E+03  0.12509000000E+03 0.  0.
         25    1    4    4    0    0 -0.15987207983E+02  0.44922353646E+02 -0.10088574064E+03  0.16762771084E+03  0.12509000000E+03 0.  0.
         25    1    3    3    0    0  0.44280360410E+02 -0.45634538923E+02 -0.44181446326E+03  0.46356314512E+03  0.12509000000E+03 0.  0.
<mgrwt>
<rscale>  2 0.45116736E+03</rscale>
<asrwt>0</asrwt>
<pdfrwt beam="1">  1       21 0.94132895E-02 0.45116736E+03</pdfrwt>
<pdfrwt beam="2">  1       21 0.11691120E+00 0.45116736E+03</pdfrwt>
<totfact> 0.46418876E+04</totfact>
</mgrwt>
</event>
<event>
 7    0  0.4779893E-002  0.4546668E+03  0.7546771E-02  0.1026339E+00
         21   -1    0    0  502  501  0.00000000000E+00  0.00000000000E+00  0.47362679177E+03  0.47362679177E+03  0.00000000000E+00 0. -1.
         21   -1    0    0  501  502 -0.00000000000E+00 -0.00000000000E+00 -0.10911646403E+03  0.10911646403E+03  0.00000000000E+00 0. -1.
      99926    2    1    2    0    0  0.00000000000E+00  0.00000000000E+00  0.36451032774E+03  0.58274325580E+03  0.45466682653E+03 0.  0.
      99925    2    3    3    0    0  0.85285369329E+02  0.64705998163E+02  0.18327602537E+03  0.33788852156E+03  0.26290319722E+03 0.  0.
         25    1    4    4    0    0  0.47056846528E+02  0.73458727220E+02  0.91278452198E+02  0.17773518320E+03  0.12509000000E+03 0.  0.
         25    1    3    3    0    0 -0.85285369329E+02 -0.64705998163E+02  0.18123430237E+03  0.24485473423E+03  0.12509000000E+03 0.  0.
         25    1    4    4    0    0  0.38228522802E+02 -0.87527290574E+01  0.91997573167E+02  0.16015333837E+03  0.12509000000E+03 0.  0.
<mgrwt>
<rscale>  2 0.45466683E+03</rscale>
<asrwt>0</asrwt>
<pdfrwt beam="1">  1       21 0.69650998E-01 0.45466683E+03</pdfrwt>
<pdfrwt beam="2">  1       21 0.16046539E-01 0.45466683E+03</pdfrwt>
<totfact> 0.59910874E+04</totfact>
</mgrwt>
</event>
<event>
 7    0  0.4779893E-002  0.4259826E+03  0.7546771E-02  0.1035137E+00
         21   -1    0    0  502  501  0.00000000000E+00  0.00000000000E+00  0.99058216943E+02  0.99058216943E+02  0.00000000000E+00 0.  1.
         21   -1    0    0  501  502 -0.00000000000E+00 -0.00000000000E+00 -0.45796608132E+03  0.45796608132E+03  0.00000000000E+00 0.  1.
      99926    2    1    2    0    0 -0.17763568394E-14  0.00000000000E+00 -0.35890786438E+03  0.55702429827E+03  0.42598264489E+03 0.  0.
      99925    2    3    3    0    0 -0.12892529966E+02  0.67169770479E+02 -0.17052251890E+03  0.32077328369E+03  0.26294405238E+03 0.  0.
         25    1    3    3    0    0  0.12892529966E+02 -0.67169770479E+02 -0.18838534548E+03  0.23625101457E+03  0.12509000000E+03 0.  0.
         25    1    4    4    0    0 -0.42012140381E+02  0.53863819353E+02 -0.92388918590E+02  0.16985155682E+03  0.12509000000E+03 0.  0.
         25    1    4    4    0    0  0.29119610415E+02  0.13305951125E+02 -0.78133600310E+02  0.15092172688E+03  0.12509000000E+03 0.  0.
<mgrwt>
<rscale>  2 0.42598264E+03</rscale>
<asrwt>0</asrwt>
<pdfrwt beam="1">  1       21 0.14567385E-01 0.42598264E+03</pdfrwt>
<pdfrwt beam="2">  1       21 0.67347953E-01 0.42598264E+03</pdfrwt>
<totfact> 0.77778303E+04</totfact>
</mgrwt>
</event>
<event>
 7    0  0.4779893E-002  0.4377989E+03  0.7546771E-02  0.1031424E+00
         21   -1    0    0  502  501  0.00000000000E+00  0.00000000000E+00  0.19677391991E+03  0.19677391991E+03  0.00000000000E+00 0. -1.
         21   -1    0    0  501  502 -0.00000000000E+00 -0.00000000000E+00 -0.24351283961E+03  0.24351283961E+03  0.00000000000E+00 0. -1.
      99926    2    1    2    0    0  0.00000000000E+00  0.00000000000E+00 -0.46738919705E+02  0.44028675952E+03  0.43779893101E+03 0.  0.
      99925    2    3    3    0    0 -0.34365782975E+02  0.45383375892E+02  0.48363822420E+02  0.27315597987E+03  0.26274411920E+03 0.  0.
         25    1    4    4    0    0 -0.43279122345E+02  0.22198191408E+02  0.55925792395E+02  0.14539960278E+03  0.12509000000E+03 0.  0.
         25    1    3    3    0    0  0.34365782975E+02 -0.45383375892E+02 -0.95102742125E+02  0.16713077965E+03  0.12509000000E+03 0.  0.
         25    1    4    4    0    0  0.89133393702E+01  0.23185184484E+02 -0.75619699748E+01  0.12775637709E+03  0.12509000000E+03 0.  0.
<mgrwt>
<rscale>  2 0.43779893E+03</rscale>
<asrwt>0</asrwt>
<pdfrwt beam="1">  1       21 0.28937341E-01 0.43779893E+03</pdfrwt>
<pdfrwt beam="2">  1       21 0.35810712E-01 0.43779893E+03</pdfrwt>
<totfact> 0.80075309E+04</totfact>
</mgrwt>
</event>
<event>
 7    0  0.4779893E-002  0.4613865E+03  0.7546771E-02  0.1024380E+00
         21   -1    0    0  502  501  0.00000000000E+00  0.00000000000E+00  0.43801866487E+03  0.43801866487E+03  0.00000000000E+00 0.  1.
         21   -1    0    0  501  502 -0.00000000000E+00 -0.00000000000E+00 -0.12150025645E+03  0.12150025645E+03  0.00000000000E+00 0.  1.
      99926    2    1    2    0    0  0.00000000000E+00  0.17763568394E-14  0.31651840843E+03  0.55951892132E+03  0.46138651957E+03 0.  0.
      99925    2    3    3    0    0 -0.93907815754E+02 -0.10623988049E+02  0.11045344400E+03  0.30059456046E+03  0.26310754361E+03 0.  0.
         25    1    3    3    0    0  0.93907815754E+02  0.10623988049E+02  0.20606496442E+03  0.25892436085E+03  0.12509000000E+03 0.  0.
         25    1    4    4    0    0 -0.45524747542E+02  0.29049892306E+02  0.78060684229E+02  0.15702667736E+03  0.12509000000E+03 0.  0.
         25    1    4    4    0    0 -0.48383068211E+02 -0.39673880355E+02  0.32392759775E+02  0.14356788310E+03  0.12509000000E+03 0.  0.
<mgrwt>
<rscale>  2 0.46138652E+03</rscale>
<asrwt>0</asrwt>
<pdfrwt beam="1">  1       21 0.64414509E-01 0.46138652E+03</pdfrwt>
<pdfrwt beam="2">  1       21 0.17867685E-01 0.46138652E+03</pdfrwt>
<totfact> 0.58243264E+04</totfact>
</mgrwt>
</event>
<event>
 7    0  0.4779893E-002  0.4558831E+03  0.7546771E-02  0.1025982E+00
         21   -1    0    0  502  501  0.00000000000E+00  0.00000000000E+00  0.15974619817E+03  0.15974619817E+03  0.00000000000E+00 0.  1.
         21   -1    0    0  501  502 -0.00000000000E+00 -0.00000000000E+00 -0.32524936579E+03  0.32524936579E+03  0.00000000000E+00 0.  1.
      99926    2    1    2    0    0  0.00000000000E+00 -0.71054273576E-14 -0.16550316762E+03  0.48499556395E+03  0.45588309747E+03 0.  0.
      99925    2    3    3    0    0  0.20965375250E+02 -0.39126670330E+02  0.74165299129E+01  0.26700663491E+03  0.26318642609E+03 0.  0.
         25    1    4    4    0    0  0.34168329310E+02 -0.52940205162E+02  0.10210952330E+02  0.14043472397E+03  0.12509000000E+03 0.  0.
         25    1    4    4    0    0 -0.13202954059E+02  0.13813534832E+02 -0.27944224172E+01  0.12657191093E+03  0.12509000000E+03 0.  0.
         25    1    3    3    0    0 -0.20965375250E+02  0.39126670330E+02 -0.17291969753E+03  0.21798892904E+03  0.12509000000E+03 0.  0.
<mgrwt>
<rscale>  2 0.45588310E+03</rscale>
<asrwt>0</asrwt>
<pdfrwt beam="1">  1       21 0.23492088E-01 0.45588310E+03</pdfrwt>
<pdfrwt beam="2">  1       21 0.47830788E-01 0.45588310E+03</pdfrwt>
<totfact> 0.65875206E+04</totfact>
</mgrwt>
</event>
<event>
 7    0  0.4779893E-002  0.4650889E+03  0.7546771E-02  0.1023316E+00
         21   -1    0    0  502  501  0.00000000000E+00  0.00000000000E+00  0.47997855000E+03  0.47997855000E+03  0.00000000000E+00 0. -1.
         21   -1    0    0  501  502 -0.00000000000E+00 -0.00000000000E+00 -0.11266530038E+03  0.11266530038E+03  0.00000000000E+00 0. -1.
      99926    2    1    2    0    0  0.00000000000E+00  0.00000000000E+00  0.36731324962E+03  0.59264385037E+03  0.46508892702E+03 0.  0.
      99925    2    3    3    0    0 -0.70102418935E+02 -0.62933976698E+02  0.32864150498E+03  0.43134274530E+03  0.26301386002E+03 0.  0.
         25    1    3    3    0    0  0.70102418935E+02  0.62933976698E+02  0.38671744641E+02  0.16130110507E+03  0.12509000000E+03 0.  0.
         25    1    4    4    0    0 -0.69690400636E+02 -0.52147328159E+02  0.20170925694E+03  0.25280472348E+03  0.12509000000E+03 0.  0.
         25    1    4    4    0    0 -0.41201829908E+00 -0.10786648539E+02  0.12693224804E+03  0.17853802183E+03  0.12509000000E+03 0.  0.
<mgrwt>
<rscale>  2 0.46508893E+03</rscale>
<asrwt>0</asrwt>
<pdfrwt beam="1">  1       21 0.70585080E-01 0.46508893E+03</pdfrwt>
<pdfrwt beam="2">  1       21 0.16568427E-01 0.46508893E+03</pdfrwt>
<totfact> 0.54644177E+04</totfact>
</mgrwt>
</event>
<event>
 7    0  0.4779893E-002  0.4556809E+03  0.7546771E-02  0.1026041E+00
         21   -1    0    0  502  501  0.00000000000E+00  0.00000000000E+00  0.10178309302E+04  0.10178309302E+04  0.00000000000E+00 0.  1.
         21   -1    0    0  501  502 -0.00000000000E+00 -0.00000000000E+00 -0.51001867685E+02  0.51001867685E+02  0.00000000000E+00 0.  1.
      99926    2    1    2    0    0  0.00000000000E+00  0.00000000000E+00  0.96682906249E+03  0.10688327979E+04  0.45568093410E+03 0.  0.
      99925    2    3    3    0    0 -0.27827607894E+02  0.11031802856E+03  0.61552412444E+03  0.67895190479E+03  0.26298535712E+03 0.  0.
         25    1    3    3    0    0  0.27827607894E+02 -0.11031802856E+03  0.35130493805E+03  0.38988089307E+03  0.12509000000E+03 0.  0.
         25    1    4    4    0    0  0.25863713300E+02  0.57594453112E+02  0.28264223835E+03  0.31546821662E+03  0.12509000000E+03 0.  0.
         25    1    4    4    0    0 -0.53691321194E+02  0.52723575443E+02  0.33288188609E+03  0.36348368817E+03  0.12509000000E+03 0.  0.
<mgrwt>
<rscale>  2 0.45568093E+03</rscale>
<asrwt>0</asrwt>
<pdfrwt beam="1">  1       21 0.14968101E+00 0.45568093E+03</pdfrwt>
<pdfrwt beam="2">  1       21 0.75002753E-02 0.45568093E+03</pdfrwt>
<totfact> 0.36400057E+04</totfact>
</mgrwt>
</event>
<event>
 7    0  0.4779893E-002  0.4519263E+03  0.7546771E-02  0.1027149E+00
         21   -1    0    0  502  501  0.00000000000E+00  0.00000000000E+00  0.11948150853E+03  0.11948150853E+03  0.00000000000E+00 0.  1.
         21   -1    0    0  501  502 -0.00000000000E+00 -0.00000000000E+00 -0.42734102245E+03  0.42734102245E+03  0.00000000000E+00 0.  1.
      99926    2    1    2    0    0  0.35527136788E-14  0.11102230246E-14 -0.30785951392E+03  0.54682253099E+03  0.45192632152E+03 0.  0.
      99925    2    3    3    0    0  0.27705631335E+02  0.10604239062E+01 -0.32338847394E+03  0.41775904581E+03  0.26300910397E+03 0.  0.
         25    1    4    4    0    0  0.38685562148E+02 -0.27498461058E+02 -0.18970719055E+03  0.23214018249E+03  0.12509000000E+03 0.  0.
         25    1    4    4    0    0 -0.10979930813E+02  0.28558884965E+02 -0.13368128339E+03  0.18561886332E+03  0.12509000000E+03 0.  0.
         25    1    3    3    0    0 -0.27705631335E+02 -0.10604239062E+01  0.15528960020E+02  0.12906348518E+03  0.12509000000E+03 0.  0.
<mgrwt>
<rscale>  2 0.45192632E+03</rscale>
<asrwt>0</asrwt>
<pdfrwt beam="1">  1       21 0.17570810E-01 0.45192632E+03</pdfrwt>
<pdfrwt beam="2">  1       21 0.62844269E-01 0.45192632E+03</pdfrwt>
<totfact> 0.63609936E+04</totfact>
</mgrwt>
</event>
<event>
 7    0  0.4779893E-002  0.4520190E+03  0.7546771E-02  0.1027122E+00
         21   -1    0    0  502  501  0.00000000000E+00  0.00000000000E+00  0.78367371555E+02  0.78367371555E+02  0.00000000000E+00 0.  1.
         21   -1    0    0  501  502 -0.00000000000E+00 -0.00000000000E+00 -0.65180574826E+03  0.65180574826E+03  0.00000000000E+00 0.  1.
      99926    2    1    2    0    0  0.00000000000E+00  0.00000000000E+00 -0.57343837670E+03  0.73017311981E+03  0.45201904055E+03 0.  0.
      99925    2    3    3    0    0 -0.77942455573E+02  0.72131841075E+02 -0.40816078142E+03  0.49727352669E+03  0.26345342657E+03 0.  0.
         25    1    4    4    0    0 -0.10502039274E+02  0.60481921317E+02 -0.17142340264E+03  0.22091140013E+03  0.12509000000E+03 0.  0.
         25    1    3    3    0    0  0.77942455573E+02 -0.72131841075E+02 -0.16527759528E+03  0.23289959313E+03  0.12509000000E+03 0.  0.
         25    1    4    4    0    0 -0.67440416299E+02  0.11649919758E+02 -0.23673737878E+03  0.27636212656E+03  0.12509000000E+03 0.  0.
<mgrwt>
<rscale>  2 0.45201904E+03</rscale>
<asrwt>0</asrwt>
<pdfrwt beam="1">  1       21 0.11524614E-01 0.45201904E+03</pdfrwt>
<pdfrwt beam="2">  1       21 0.95853784E-01 0.45201904E+03</pdfrwt>
<totfact> 0.52515427E+04</totfact>
</mgrwt>
</event>
<event>
 7    0  0.4779893E-002  0.4549539E+03  0.7546771E-02  0.1026255E+00
         21   -1    0    0  502  501  0.00000000000E+00  0.00000000000E+00  0.35910360799E+03  0.35910360799E+03  0.00000000000E+00 0. -1.
         21   -1    0    0  501  502 -0.00000000000E+00 -0.00000000000E+00 -0.14409700437E+03  0.14409700437E+03  0.00000000000E+00 0. -1.
      99926    2    1    2    0    0  0.35527136788E-14  0.14210854715E-13  0.21500660362E+03  0.50320061236E+03  0.45495386214E+03 0.  0.
      99925    2    3    3    0    0  0.24828057674E+02 -0.98831897102E+02  0.81030032694E+02  0.29348316914E+03  0.26302533725E+03 0.  0.
         25    1    3    3    0    0 -0.24828057674E+02  0.98831897102E+02  0.13397657093E+03  0.20971744322E+03  0.12509000000E+03 0.  0.
         25    1    4    4    0    0 -0.42643206010E+01 -0.32146277961E+02  0.34080487622E+01  0.12926983605E+03  0.12509000000E+03 0.  0.
         25    1    4    4    0    0  0.29092378275E+02 -0.66685619141E+02  0.77621983932E+02  0.16421333309E+03  0.12509000000E+03 0.  0.
<mgrwt>
<rscale>  2 0.45495386E+03</rscale>
<asrwt>0</asrwt>
<pdfrwt beam="1">  1       21 0.52809354E-01 0.45495386E+03</pdfrwt>
<pdfrwt beam="2">  1       21 0.21190736E-01 0.45495386E+03</pdfrwt>
<totfact> 0.65070217E+04</totfact>
</mgrwt>
</event>
<event>
 7    0  0.4779893E-002  0.4539625E+03  0.7546771E-02  0.1026547E+00
         21   -1    0    0  502  501  0.00000000000E+00  0.00000000000E+00  0.13571894219E+04  0.13571894219E+04  0.00000000000E+00 0.  1.
         21   -1    0    0  501  502 -0.00000000000E+00 -0.00000000000E+00 -0.37961156843E+02  0.37961156843E+02  0.00000000000E+00 0.  1.
      99926    2    1    2    0    0  0.00000000000E+00 -0.71054273576E-14  0.13192282650E+04  0.13951505787E+04  0.45396246766E+03 0.  0.
      99925    2    3    3    0    0 -0.38618019019E+02 -0.25910218690E+02  0.51646101146E+03  0.58136592518E+03  0.26285294706E+03 0.  0.
         25    1    4    4    0    0 -0.29005433510E+02  0.25963003618E+02  0.26394577845E+03  0.29466977245E+03  0.12509000000E+03 0.  0.
         25    1    4    4    0    0 -0.96125855084E+01 -0.51873222307E+02  0.25251523300E+03  0.28669615273E+03  0.12509000000E+03 0.  0.
         25    1    3    3    0    0  0.38618019019E+02  0.25910218690E+02  0.80276725358E+03  0.81378465354E+03  0.12509000000E+03 0.  0.
<mgrwt>
<rscale>  2 0.45396247E+03</rscale>
<asrwt>0</asrwt>
<pdfrwt beam="1">  1       21 0.19958665E+00 0.45396247E+03</pdfrwt>
<pdfrwt beam="2">  1       21 0.55825239E-02 0.45396247E+03</pdfrwt>
<totfact> 0.26675961E+04</totfact>
</mgrwt>
</event>
<event>
 7    0  0.4779893E-002  0.4453592E+03  0.7546771E-02  0.1029115E+00
         21   -1    0    0  502  501  0.00000000000E+00  0.00000000000E+00  0.76717237730E+02  0.76717237730E+02  0.00000000000E+00 0.  1.
         21   -1    0    0  501  502 -0.00000000000E+00 -0.00000000000E+00 -0.64635014298E+03  0.64635014298E+03  0.00000000000E+00 0.  1.
      99926    2    1    2    0    0  0.00000000000E+00 -0.35527136788E-14 -0.56963290525E+03  0.72306738071E+03  0.44535917000E+03 0.  0.
      99925    2    3    3    0    0  0.76222663357E+02 -0.30700871844E+02 -0.46482065263E+03  0.54035023773E+03  0.26299753298E+03 0.  0.
         25    1    4    4    0    0  0.36549518761E+02 -0.12467900676E+02 -0.15186135589E+03  0.20050111068E+03  0.12509000000E+03 0.  0.
         25    1    3    3    0    0 -0.76222663357E+02  0.30700871844E+02 -0.10481225261E+03  0.18271714298E+03  0.12509000000E+03 0.  0.
         25    1    4    4    0    0  0.39673144597E+02 -0.18232971168E+02 -0.31295929674E+03  0.33984912705E+03  0.12509000000E+03 0.  0.
<mgrwt>
<rscale>  2 0.44535917E+03</rscale>
<asrwt>0</asrwt>
<pdfrwt beam="1">  1       21 0.11281947E-01 0.44535917E+03</pdfrwt>
<pdfrwt beam="2">  1       21 0.95051489E-01 0.44535917E+03</pdfrwt>
<totfact> 0.55778994E+04</totfact>
</mgrwt>
</event>
<event>
 7    0  0.4779893E-002  0.4500182E+03  0.7546771E-02  0.1027717E+00
         21   -1    0    0  502  501  0.00000000000E+00  0.00000000000E+00  0.23733106344E+03  0.23733106344E+03  0.00000000000E+00 0.  1.
         21   -1    0    0  501  502 -0.00000000000E+00 -0.00000000000E+00 -0.21332688638E+03  0.21332688638E+03  0.00000000000E+00 0.  1.
      99926    2    1    2    0    0  0.00000000000E+00  0.00000000000E+00  0.24004177056E+02  0.45065794982E+03  0.45001820766E+03 0.  0.
      99925    2    3    3    0    0 -0.50991514153E+02 -0.88380171599E+02 -0.21551046366E+02  0.28292609319E+03  0.26300482384E+03 0.  0.
         25    1    4    4    0    0 -0.87434821326E+01 -0.78987245008E+02 -0.26112943200E+02  0.15048198316E+03  0.12509000000E+03 0.  0.
         25    1    3    3    0    0  0.50991514153E+02  0.88380171599E+02  0.45555223421E+02  0.16773185663E+03  0.12509000000E+03 0.  0.
         25    1    4    4    0    0 -0.42248032021E+02 -0.93929265910E+01  0.45618968343E+01  0.13244411003E+03  0.12509000000E+03 0.  0.
<mgrwt>
<rscale>  2 0.45001821E+03</rscale>
<asrwt>0</asrwt>
<pdfrwt beam="1">  1       21 0.34901627E-01 0.45001821E+03</pdfrwt>
<pdfrwt beam="2">  1       21 0.31371601E-01 0.45001821E+03</pdfrwt>
<totfact> 0.71671890E+04</totfact>
</mgrwt>
</event>
<event>
 7    0  0.4779893E-002  0.4546112E+03  0.7546771E-02  0.1026356E+00
         21   -1    0    0  502  501  0.00000000000E+00  0.00000000000E+00  0.32356297595E+02  0.32356297595E+02  0.00000000000E+00 0.  1.
         21   -1    0    0  501  502 -0.00000000000E+00 -0.00000000000E+00 -0.15968404533E+04  0.15968404533E+04  0.00000000000E+00 0.  1.
      99926    2    1    2    0    0  0.00000000000E+00 -0.71054273576E-14 -0.15644841557E+04  0.16291967509E+04  0.45461124015E+03 0.  0.
      99925    2    3    3    0    0  0.94617209492E+02 -0.54620352920E+02 -0.10876779109E+04  0.11242932924E+04  0.26278578734E+03 0.  0.
         25    1    4    4    0    0  0.79979668878E+02 -0.10720497644E+02 -0.64526606630E+03  0.66221407485E+03  0.12509000000E+03 0.  0.
         25    1    4    4    0    0  0.14637540614E+02 -0.43899855276E+02 -0.44241184462E+03  0.46207921750E+03  0.12509000000E+03 0.  0.
         25    1    3    3    0    0 -0.94617209492E+02  0.54620352920E+02 -0.47680624476E+03  0.50490345852E+03  0.12509000000E+03 0.  0.
<mgrwt>
<rscale>  2 0.45461124E+03</rscale>
<asrwt>0</asrwt>
<pdfrwt beam="1">  1       21 0.47582792E-02 0.45461124E+03</pdfrwt>
<pdfrwt beam="2">  1       21 0.23482947E+00 0.45461124E+03</pdfrwt>
<totfact> 0.20840806E+04</totfact>
</mgrwt>
</event>
<event>
 7    0  0.4779893E-002  0.4554061E+03  0.7546771E-02  0.1026122E+00
         21   -1    0    0  502  501  0.00000000000E+00  0.00000000000E+00  0.19835562556E+04  0.19835562556E+04  0.00000000000E+00 0. -1.
         21   -1    0    0  501  502 -0.00000000000E+00 -0.00000000000E+00 -0.26139256882E+02  0.26139256882E+02  0.00000000000E+00 0. -1.
      99926    2    1    2    0    0  0.00000000000E+00  0.00000000000E+00  0.19574169987E+04  0.20096955124E+04  0.45540613304E+03 0.  0.
      99925    2    3    3    0    0 -0.77469164224E+02 -0.82762680324E+02  0.12108145371E+04  0.12442453988E+04  0.26310385146E+03 0.  0.
         25    1    4    4    0    0 -0.54870526624E+02 -0.50388643463E+02  0.79533099063E+03  0.80854726692E+03  0.12509000000E+03 0.  0.
         25    1    3    3    0    0  0.77469164224E+02  0.82762680324E+02  0.74660246159E+03  0.76545011360E+03  0.12509000000E+03 0.  0.
         25    1    4    4    0    0 -0.22598637600E+02 -0.32374036860E+02  0.41548354645E+03  0.43569813192E+03  0.12509000000E+03 0.  0.
<mgrwt>
<rscale>  2 0.45540613E+03</rscale>
<asrwt>0</asrwt>
<pdfrwt beam="1">  1       21 0.29169935E+00 0.45540613E+03</pdfrwt>
<pdfrwt beam="2">  1       21 0.38440097E-02 0.45540613E+03</pdfrwt>
<totfact> 0.13509362E+04</totfact>
</mgrwt>
</event>
<event>
 7    0  0.4779893E-002  0.4554512E+03  0.7546771E-02  0.1026109E+00
         21   -1    0    0  502  501  0.00000000000E+00  0.00000000000E+00  0.11896945016E+03  0.11896945016E+03  0.00000000000E+00 0.  1.
         21   -1    0    0  501  502 -0.00000000000E+00 -0.00000000000E+00 -0.43590148112E+03  0.43590148112E+03  0.00000000000E+00 0.  1.
      99926    2    1    2    0    0  0.14210854715E-13  0.17763568394E-14 -0.31693203096E+03  0.55487093128E+03  0.45545124671E+03 0.  0.
      99925    2    3    3    0    0 -0.88999023880E+02 -0.97353210414E+01 -0.11431857463E+03  0.30047886475E+03  0.26306502795E+03 0.  0.
         25    1    4    4    0    0 -0.48079667378E+02 -0.15502777056E+02 -0.15492839225E+02  0.13579221877E+03  0.12509000000E+03 0.  0.
         25    1    4    4    0    0 -0.40919356502E+02  0.57674560143E+01 -0.98825735410E+02  0.16468664598E+03  0.12509000000E+03 0.  0.
         25    1    3    3    0    0  0.88999023880E+02  0.97353210414E+01 -0.20261345632E+03  0.25439206652E+03  0.12509000000E+03 0.  0.
<mgrwt>
<rscale>  2 0.45545125E+03</rscale>
<asrwt>0</asrwt>
<pdfrwt beam="1">  1       21 0.17495508E-01 0.45545125E+03</pdfrwt>
<pdfrwt beam="2">  1       21 0.64103158E-01 0.45545125E+03</pdfrwt>
<totfact> 0.61326564E+04</totfact>
</mgrwt>
</event>
<event>
 7    0  0.4779893E-002  0.4607455E+03  0.7546771E-02  0.1024565E+00
         21   -1    0    0  502  501  0.00000000000E+00  0.00000000000E+00  0.42890805177E+03  0.42890805177E+03  0.00000000000E+00 0. -1.
         21   -1    0    0  501  502 -0.00000000000E+00 -0.00000000000E+00 -0.12373656016E+03  0.12373656016E+03  0.00000000000E+00 0. -1.
      99926    2    1    2    0    0  0.35527136788E-14 -0.14210854715E-13  0.30517149161E+03  0.55264461193E+03  0.46074551306E+03 0.  0.
      99925    2    3    3    0    0  0.29361531539E+02 -0.11461834214E+03  0.19810706413E+03  0.34988918384E+03  0.26301438785E+03 0.  0.
         25    1    3    3    0    0 -0.29361531539E+02  0.11461834214E+03  0.10706442748E+03  0.20275542809E+03  0.12509000000E+03 0.  0.
         25    1    4    4    0    0  0.50288109515E+02 -0.39644293533E+02  0.10745178118E+03  0.17690098176E+03  0.12509000000E+03 0.  0.
         25    1    4    4    0    0 -0.20926577976E+02 -0.74974048610E+02  0.90655282952E+02  0.17298820208E+03  0.12509000000E+03 0.  0.
<mgrwt>
<rscale>  2 0.46074551E+03</rscale>
<asrwt>0</asrwt>
<pdfrwt beam="1">  1       21 0.63074713E-01 0.46074551E+03</pdfrwt>
<pdfrwt beam="2">  1       21 0.18196553E-01 0.46074551E+03</pdfrwt>
<totfact> 0.58965713E+04</totfact>
</mgrwt>
</event>
<event>
 7    0  0.4779893E-002  0.4559141E+03  0.7546771E-02  0.1025973E+00
         21   -1    0    0  502  501  0.00000000000E+00  0.00000000000E+00  0.20990989440E+03  0.20990989440E+03  0.00000000000E+00 0.  1.
         21   -1    0    0  501  502 -0.00000000000E+00 -0.00000000000E+00 -0.24755583016E+03  0.24755583016E+03  0.00000000000E+00 0.  1.
      99926    2    1    2    0    0 -0.14210854715E-13  0.00000000000E+00 -0.37645935755E+02  0.45746572456E+03  0.45591410668E+03 0.  0.
      99925    2    3    3    0    0  0.61021162128E+02  0.73568063431E+02  0.38781215752E+02  0.28246726808E+03  0.26295994496E+03 0.  0.
         25    1    4    4    0    0  0.43124509551E+01  0.54802787812E+01  0.43856220362E+01  0.12536096868E+03  0.12509000000E+03 0.  0.
         25    1    4    4    0    0  0.56708711173E+02  0.68087784650E+02  0.34395593716E+02  0.15710629939E+03  0.12509000000E+03 0.  0.
         25    1    3    3    0    0 -0.61021162128E+02 -0.73568063431E+02 -0.76427151508E+02  0.17499845648E+03  0.12509000000E+03 0.  0.
<mgrwt>
<rscale>  2 0.45591411E+03</rscale>
<asrwt>0</asrwt>
<pdfrwt beam="1">  1       21 0.30869103E-01 0.45591411E+03</pdfrwt>
<pdfrwt beam="2">  1       21 0.36405269E-01 0.45591411E+03</pdfrwt>
<totfact> 0.67869214E+04</totfact>
</mgrwt>
</event>
<event>
 7    0  0.4779893E-002  0.4494268E+03  0.7546771E-02  0.1027893E+00
         21   -1    0    0  502  501  0.00000000000E+00  0.00000000000E+00  0.35450062834E+02  0.35450062834E+02  0.00000000000E+00 0.  1.
         21   -1    0    0  501  502 -0.00000000000E+00 -0.00000000000E+00 -0.14244294071E+04  0.14244294071E+04  0.00000000000E+00 0.  1.
      99926    2    1    2    0    0 -0.71054273576E-14  0.00000000000E+00 -0.13889793443E+04  0.14598794700E+04  0.44942679931E+03 0.  0.
      99925    2    3    3    0    0  0.41251565417E+02 -0.71201973651E+02 -0.11049916625E+04  0.11388375347E+04  0.26300749702E+03 0.  0.
         25    1    4    4    0    0 -0.25829084864E+01 -0.32353448173E+02 -0.39720133164E+03  0.41769584985E+03  0.12509000000E+03 0.  0.
         25    1    4    4    0    0  0.43834473903E+02 -0.38848525478E+02 -0.70779033086E+03  0.72114168482E+03  0.12509000000E+03 0.  0.
         25    1    3    3    0    0 -0.41251565417E+02  0.71201973651E+02 -0.28398768179E+03  0.32104193528E+03  0.12509000000E+03 0.  0.
<mgrwt>
<rscale>  2 0.44942680E+03</rscale>
<asrwt>0</asrwt>
<pdfrwt beam="1">  1       21 0.52132454E-02 0.44942680E+03</pdfrwt>
<pdfrwt beam="2">  1       21 0.20947488E+00 0.44942680E+03</pdfrwt>
<totfact> 0.25881652E+04</totfact>
</mgrwt>
</event>
<event>
 7    0  0.4779893E-002  0.4779798E+03  0.7546771E-02  0.1019692E+00
         21   -1    0    0  502  501  0.00000000000E+00  0.00000000000E+00  0.11179942835E+03  0.11179942835E+03  0.00000000000E+00 0.  1.
         21   -1    0    0  501  502 -0.00000000000E+00 -0.00000000000E+00 -0.51088075625E+03  0.51088075625E+03  0.00000000000E+00 0.  1.
      99926    2    1    2    0    0 -0.17763568394E-14  0.35527136788E-14 -0.39908132790E+03  0.62268018460E+03  0.47797981758E+03 0.  0.
      99925    2    3    3    0    0 -0.13819965411E+02  0.26563248692E+02 -0.41585716406E+03  0.49296690693E+03  0.26302584056E+03 0.  0.
         25    1    4    4    0    0  0.19877598526E+02 -0.83274007308E+01 -0.16168303178E+03  0.20555625846E+03  0.12509000000E+03 0.  0.
         25    1    3    3    0    0  0.13819965411E+02 -0.26563248692E+02  0.16775836165E+02  0.12971327767E+03  0.12509000000E+03 0.  0.
         25    1    4    4    0    0 -0.33697563937E+02  0.34890649423E+02 -0.25417413229E+03  0.28741064847E+03  0.12509000000E+03 0.  0.
<mgrwt>
<rscale>  2 0.47797982E+03</rscale>
<asrwt>0</asrwt>
<pdfrwt beam="1">  1       21 0.16441092E-01 0.47797982E+03</pdfrwt>
<pdfrwt beam="2">  1       21 0.75129523E-01 0.47797982E+03</pdfrwt>
<totfact> 0.47984473E+04</totfact>
</mgrwt>
</event>
<event>
 7    0  0.4779893E-002  0.4577853E+03  0.7546771E-02  0.1025426E+00
         21   -1    0    0  502  501  0.00000000000E+00  0.00000000000E+00  0.32625235363E+03  0.32625235363E+03  0.00000000000E+00 0. -1.
         21   -1    0    0  501  502 -0.00000000000E+00 -0.00000000000E+00 -0.16058687482E+03  0.16058687482E+03  0.00000000000E+00 0. -1.
      99926    2    1    2    0    0  0.00000000000E+00  0.00000000000E+00  0.16566547881E+03  0.48683922845E+03  0.45778530283E+03 0.  0.
      99925    2    3    3    0    0  0.74283937619E+02 -0.66454022442E+02  0.39807882225E+02  0.28331556102E+03  0.26219992208E+03 0.  0.
         25    1    4    4    0    0  0.53774758428E+02 -0.69607788869E+02  0.32301772089E+02  0.15629421453E+03  0.12509000000E+03 0.  0.
         25    1    4    4    0    0  0.20509179191E+02  0.31537664275E+01  0.75061101365E+01  0.12702134649E+03  0.12509000000E+03 0.  0.
         25    1    3    3    0    0 -0.74283937619E+02  0.66454022442E+02  0.12585759658E+03  0.20352366743E+03  0.12509000000E+03 0.  0.
<mgrwt>
<rscale>  2 0.45778530E+03</rscale>
<asrwt>0</asrwt>
<pdfrwt beam="1">  1       21 0.47978287E-01 0.45778530E+03</pdfrwt>
<pdfrwt beam="2">  1       21 0.23615717E-01 0.45778530E+03</pdfrwt>
<totfact> 0.64761706E+04</totfact>
</mgrwt>
</event>
<event>
 7    0  0.4779893E-002  0.4545026E+03  0.7546771E-02  0.1026388E+00
         21   -1    0    0  502  501  0.00000000000E+00  0.00000000000E+00  0.48352426897E+03  0.48352426897E+03  0.00000000000E+00 0.  1.
         21   -1    0    0  501  502 -0.00000000000E+00 -0.00000000000E+00 -0.10680571476E+03  0.10680571476E+03  0.00000000000E+00 0.  1.
      99926    2    1    2    0    0  0.14210854715E-13 -0.71054273576E-14  0.37671855421E+03  0.59032998372E+03  0.45450260791E+03 0.  0.
      99925    2    3    3    0    0  0.83855683066E+02 -0.58912594360E+02  0.29815272479E+03  0.41054520403E+03  0.26296358664E+03 0.  0.
         25    1    4    4    0    0  0.11362786189E+01 -0.32289354237E+02  0.12228628211E+03  0.17789136128E+03  0.12509000000E+03 0.  0.
         25    1    3    3    0    0 -0.83855683066E+02  0.58912594360E+02  0.78565829420E+02  0.17978477969E+03  0.12509000000E+03 0.  0.
         25    1    4    4    0    0  0.82719404447E+02 -0.26623240123E+02  0.17586644268E+03  0.23265384275E+03  0.12509000000E+03 0.  0.
<mgrwt>
<rscale>  2 0.45450261E+03</rscale>
<asrwt>0</asrwt>
<pdfrwt beam="1">  1       21 0.71106509E-01 0.45450261E+03</pdfrwt>
<pdfrwt beam="2">  1       21 0.15706723E-01 0.45450261E+03</pdfrwt>
<totfact> 0.59511062E+04</totfact>
</mgrwt>
</event>
<event>
 7    0  0.4779893E-002  0.4540658E+03  0.7546771E-02  0.1026516E+00
         21   -1    0    0  502  501  0.00000000000E+00  0.00000000000E+00  0.18074175072E+03  0.18074175072E+03  0.00000000000E+00 0. -1.
         21   -1    0    0  501  502 -0.00000000000E+00 -0.00000000000E+00 -0.28518001009E+03  0.28518001009E+03  0.00000000000E+00 0. -1.
      99926    2    1    2    0    0  0.00000000000E+00  0.00000000000E+00 -0.10443825937E+03  0.46592176080E+03  0.45406578507E+03 0.  0.
      99925    2    3    3    0    0  0.33078413701E+02  0.72575561384E+02 -0.14687482878E+03  0.31161763226E+03  0.26300558899E+03 0.  0.
         25    1    4    4    0    0  0.16326555034E+02  0.75657314351E+02 -0.95135432925E+02  0.17518231735E+03  0.12509000000E+03 0.  0.
         25    1    4    4    0    0  0.16751858667E+02 -0.30817529661E+01 -0.51739395855E+02  0.13643531491E+03  0.12509000000E+03 0.  0.
         25    1    3    3    0    0 -0.33078413701E+02 -0.72575561384E+02  0.42436569412E+02  0.15430412855E+03  0.12509000000E+03 0.  0.
<mgrwt>
<rscale>  2 0.45406579E+03</rscale>
<asrwt>0</asrwt>
<pdfrwt beam="1">  1       21 0.26579670E-01 0.45406579E+03</pdfrwt>
<pdfrwt beam="2">  1       21 0.41938236E-01 0.45406579E+03</pdfrwt>
<totfact> 0.68244846E+04</totfact>
</mgrwt>
</event>
<event>
 7    0  0.4779893E-002  0.4600979E+03  0.7546771E-02  0.1024753E+00
         21   -1    0    0  502  501  0.00000000000E+00  0.00000000000E+00  0.38535566202E+03  0.38535566202E+03  0.00000000000E+00 0. -1.
         21   -1    0    0  501  502 -0.00000000000E+00 -0.00000000000E+00 -0.13733424256E+03  0.13733424256E+03  0.00000000000E+00 0. -1.
      99926    2    1    2    0    0  0.00000000000E+00  0.00000000000E+00  0.24802141946E+03  0.52268990458E+03  0.46009793723E+03 0.  0.
      99925    2    3    3    0    0 -0.36538074676E+02  0.73166984178E+02  0.25166108321E+03  0.37319343731E+03  0.26315699188E+03 0.  0.
         25    1    4    4    0    0 -0.32846434591E+02  0.39648304609E+02  0.17992558366E+03  0.22510353191E+03  0.12509000000E+03 0.  0.
         25    1    3    3    0    0  0.36538074676E+02 -0.73166984178E+02 -0.36396637461E+01  0.14949646727E+03  0.12509000000E+03 0.  0.
         25    1    4    4    0    0 -0.36916400850E+01  0.33518679569E+02  0.71735499550E+02  0.14808990540E+03  0.12509000000E+03 0.  0.
<mgrwt>
<rscale>  2 0.46009794E+03</rscale>
<asrwt>0</asrwt>
<pdfrwt beam="1">  1       21 0.56669950E-01 0.46009794E+03</pdfrwt>
<pdfrwt beam="2">  1       21 0.20196212E-01 0.46009794E+03</pdfrwt>
<totfact> 0.61191665E+04</totfact>
</mgrwt>
</event>
